/*--------------------------------*- C++ -*----------------------------------*\
| =========                 |                                                 |
| \\      /  F ield         | OpenFOAM: The Open Source CFD Toolbox           |
|  \\    /   O peration     | Version:  4.1                                   |
|   \\  /    A nd           | Web:      www.OpenFOAM.org                      |
|    \\/     M anipulation  |                                                 |
\*---------------------------------------------------------------------------*/
FoamFile
{
    version     2.0;
    format      ascii;
    class       volScalarField;
    location    "1900";
    object      nut;
}
// * * * * * * * * * * * * * * * * * * * * * * * * * * * * * * * * * * * * * //

dimensions      [0 2 -1 0 0 0 0];

internalField   nonuniform List<scalar> 
6820
(
3.5437e-05
5.0672e-05
6.21565e-05
6.89859e-05
7.29393e-05
7.51484e-05
7.62608e-05
7.66561e-05
7.65742e-05
7.61754e-05
7.5569e-05
7.48308e-05
7.40141e-05
7.31561e-05
7.22832e-05
7.14133e-05
7.05589e-05
6.97282e-05
6.89267e-05
6.81574e-05
6.7422e-05
6.67213e-05
6.6055e-05
6.54225e-05
6.48227e-05
6.42545e-05
6.37163e-05
6.32068e-05
6.2723e-05
6.22708e-05
6.18119e-05
6.15226e-05
6.06187e-05
0.00135033
0.000930454
0.000725657
0.000569941
0.000453328
0.000372218
0.000316223
0.000276487
0.000247302
0.000225194
0.000208006
0.000194347
0.000183294
0.000174212
0.000166657
0.000160304
0.000154915
0.000150307
0.000146343
0.000142912
0.000139928
0.000137322
0.000135037
0.000133026
0.000131252
0.000129681
0.000128287
0.000127046
0.000125936
0.000124945
0.000124035
0.000123263
0.000122375
0.0034439
0.00180034
0.00133708
0.00108081
0.000912409
0.000791562
0.000700947
0.00063099
0.000575611
0.000530788
0.000493805
0.000462783
0.000436392
0.000413669
0.000393905
0.000376561
0.000361227
0.000347581
0.000335366
0.000324379
0.000314452
0.000305447
0.000297251
0.000289768
0.000282915
0.000276623
0.000270833
0.000265492
0.000260553
0.000255978
0.000251725
0.000247775
0.000244046
0.00637392
0.00310291
0.00217847
0.00173334
0.00146616
0.00128428
0.00115082
0.00104807
0.000966256
0.000899457
0.000843822
0.000796729
0.000756323
0.000721253
0.000690512
0.000663332
0.000639118
0.000617403
0.000597813
0.000580047
0.000563859
0.000549047
0.000535441
0.000522899
0.000511301
0.000500545
0.000490542
0.000481216
0.0004725
0.000464336
0.000456667
0.000449452
0.000442625
0.00899737
0.00527271
0.00366202
0.00284163
0.00235737
0.00203856
0.00181195
0.00164188
0.00150906
0.00140219
0.00131419
0.00124038
0.00117752
0.0011233
0.00107604
0.00103444
0.000997547
0.000964581
0.000934941
0.000908141
0.000883785
0.00086155
0.000841166
0.000822409
0.000805088
0.000789043
0.000774133
0.000760242
0.000747263
0.000735105
0.000723686
0.000712937
0.000702774
0.0103765
0.00752965
0.00561349
0.00443387
0.0036773
0.00316202
0.00279169
0.00251363
0.00229739
0.00212446
0.001983
0.00186511
0.00176535
0.00167982
0.00160567
0.00154076
0.00148347
0.00143253
0.00138693
0.00134588
0.00130873
0.00127494
0.00124408
0.00121579
0.00118975
0.00116571
0.00114344
0.00112275
0.00110348
0.00108547
0.00106861
0.00105279
0.00103788
0.0109773
0.00922098
0.00752197
0.0062241
0.00528073
0.00458893
0.00406896
0.0036676
0.00335003
0.00309329
0.00288184
0.00270491
0.00255482
0.00242601
0.0023143
0.00221655
0.00213034
0.00205377
0.00198532
0.00192379
0.00186819
0.00181772
0.00177171
0.0017296
0.00169093
0.00165529
0.00162234
0.0015918
0.0015634
0.00153694
0.00151221
0.00148906
0.00146732
0.0112223
0.01026
0.00902119
0.00786209
0.00689742
0.00612295
0.00550365
0.00500431
0.00459663
0.00425931
0.00397662
0.00373691
0.00353146
0.00335369
0.00319854
0.0030621
0.00294126
0.00283359
0.00273709
0.00265017
0.00257151
0.00250001
0.00243477
0.00237503
0.00232013
0.00226953
0.00222276
0.00217941
0.00213912
0.00210159
0.00206655
0.00203377
0.00200304
0.0113196
0.0108286
0.0100355
0.0091472
0.00830321
0.00755759
0.00691829
0.00637539
0.00591434
0.00552102
0.00518335
0.00489139
0.00463719
0.00441434
0.00421771
0.0040432
0.00388744
0.00374772
0.00362179
0.00350779
0.00340418
0.00330966
0.00322313
0.00314367
0.00307047
0.00300286
0.00294025
0.00288212
0.00282803
0.00277759
0.00273046
0.00268635
0.00264498
0.0113579
0.0111187
0.0106546
0.0100468
0.00939296
0.00875749
0.00817148
0.00764509
0.00717794
0.00676519
0.00640062
0.00607795
0.00579147
0.00553616
0.00530774
0.00510254
0.00491748
0.00474995
0.00459774
0.00445899
0.00433208
0.00421566
0.00410856
0.00400976
0.00391838
0.00383367
0.00375497
0.00368169
0.00361333
0.00354943
0.00348961
0.00343351
0.00338082
0.0113728
0.01126
0.0110057
0.0106242
0.0101642
0.00967403
0.00918758
0.0087244
0.00829364
0.0078983
0.00753797
0.00721062
0.00691349
0.00664365
0.00639827
0.0061747
0.00597058
0.00578376
0.00561239
0.00545481
0.00530956
0.0051754
0.00505118
0.00493595
0.00482882
0.00472904
0.00463594
0.00454891
0.00446743
0.00439102
0.00431927
0.0042518
0.00418827
0.0113787
0.0113266
0.011194
0.0109703
0.0106711
0.0103231
0.00995189
0.00957697
0.009211
0.00886139
0.00853191
0.008224
0.0079377
0.00767227
0.0074265
0.00719904
0.00698845
0.00679333
0.00661237
0.00644431
0.00628804
0.00614252
0.00600681
0.00588007
0.00576153
0.0056505
0.00554637
0.00544858
0.00535662
0.00527004
0.00518843
0.00511143
0.0050387
0.0113809
0.0113572
0.0112906
0.0111664
0.010984
0.0107537
0.0104904
0.0102084
0.00991919
0.00963122
0.00935016
0.00907954
0.00882138
0.00857663
0.00834556
0.00812801
0.00792352
0.00773148
0.0075512
0.00738196
0.00722301
0.00707367
0.00693326
0.00680115
0.00667673
0.00655947
0.00644885
0.0063444
0.00624569
0.00615233
0.00606396
0.00598023
0.00590086
0.0113818
0.0113708
0.0113383
0.0112723
0.0111671
0.0110237
0.0108485
0.0106497
0.0104355
0.0102131
0.00998805
0.00976447
0.00954535
0.00933265
0.00912765
0.00893106
0.00874324
0.00856427
0.00839403
0.00823232
0.00807881
0.00793316
0.007795
0.00766392
0.00753955
0.00742152
0.00730945
0.00720301
0.00710186
0.0070057
0.00691423
0.00682718
0.00674431
0.0113822
0.0113768
0.0113611
0.0113273
0.0112692
0.0111846
0.0110744
0.0109422
0.0107927
0.0106307
0.0104607
0.0102863
0.0101104
0.00993551
0.00976318
0.00959469
0.00943091
0.00927239
0.00911948
0.00897237
0.0088311
0.00869564
0.0085659
0.00844172
0.00832293
0.00820933
0.00810072
0.00799688
0.00789762
0.00780271
0.00771195
0.00762516
0.00754213
0.0113823
0.0113794
0.0113717
0.0113547
0.0113238
0.011276
0.0112101
0.0111268
0.0110279
0.0109162
0.0107945
0.0106655
0.0105317
0.0103951
0.0102574
0.01012
0.00998405
0.00985025
0.00971925
0.0095915
0.0094673
0.00934686
0.0092303
0.00911767
0.00900898
0.00890419
0.00880325
0.00870606
0.00861253
0.00852256
0.00843603
0.00835283
0.00827284
0.0113824
0.0113805
0.0113765
0.0113679
0.0113519
0.0113259
0.0112881
0.0112379
0.0111757
0.0111025
0.0110197
0.010929
0.0108321
0.0107305
0.0106258
0.010519
0.0104112
0.0103034
0.0101961
0.01009
0.00998548
0.00988291
0.00978254
0.00968457
0.00958912
0.0094963
0.00940615
0.0093187
0.00923395
0.00915188
0.00907246
0.00899564
0.00892138
0.0113824
0.0113809
0.0113786
0.0113741
0.0113658
0.0113519
0.011331
0.0113021
0.0112646
0.0112187
0.011165
0.0111041
0.0110372
0.0109652
0.0108891
0.0108098
0.0107282
0.010645
0.010561
0.0104765
0.0103922
0.0103084
0.0102255
0.0101436
0.010063
0.00998397
0.0099065
0.00983074
0.00975676
0.00968461
0.00961432
0.0095459
0.00947936
0.0113824
0.0113811
0.0113795
0.0113769
0.0113724
0.0113651
0.0113537
0.0113375
0.0113158
0.0112882
0.0112548
0.0112157
0.0111715
0.0111227
0.0110698
0.0110135
0.0109543
0.0108929
0.0108297
0.0107652
0.0107
0.0106342
0.0105683
0.0105025
0.010437
0.0103722
0.010308
0.0102447
0.0101824
0.0101212
0.0100611
0.0100022
0.00994458
0.0113824
0.0113812
0.0113798
0.0113781
0.0113755
0.0113714
0.0113653
0.0113563
0.011344
0.011328
0.011308
0.0112839
0.0112559
0.0112241
0.0111889
0.0111505
0.0111093
0.0110657
0.0110202
0.0109729
0.0109243
0.0108746
0.0108242
0.0107732
0.0107219
0.0106706
0.0106193
0.0105682
0.0105175
0.0104672
0.0104175
0.0103684
0.01032
0.0113824
0.0113812
0.01138
0.0113786
0.0113768
0.0113744
0.0113709
0.0113659
0.011359
0.0113499
0.0113382
0.0113238
0.0113067
0.0112868
0.0112641
0.011239
0.0112114
0.0111816
0.0111499
0.0111165
0.0110816
0.0110454
0.0110081
0.0109699
0.0109311
0.0108917
0.0108519
0.010812
0.0107719
0.0107318
0.0106918
0.010652
0.0106125
0.0113824
0.0113812
0.01138
0.0113788
0.0113774
0.0113757
0.0113735
0.0113706
0.0113666
0.0113614
0.0113547
0.0113463
0.011336
0.0113238
0.0113097
0.0112937
0.0112758
0.0112561
0.0112347
0.0112117
0.0111873
0.0111616
0.0111348
0.0111069
0.0110782
0.0110487
0.0110186
0.010988
0.010957
0.0109257
0.0108942
0.0108625
0.0108308
0.0113824
0.0113812
0.01138
0.0113789
0.0113776
0.0113763
0.0113747
0.0113728
0.0113703
0.0113672
0.0113632
0.0113582
0.0113521
0.0113447
0.011336
0.0113259
0.0113143
0.0113014
0.0112871
0.0112715
0.0112546
0.0112365
0.0112174
0.0111972
0.0111761
0.0111541
0.0111315
0.0111081
0.0110842
0.0110598
0.011035
0.0110099
0.0109845
0.0113824
0.0113812
0.01138
0.0113789
0.0113777
0.0113765
0.0113752
0.0113737
0.011372
0.0113699
0.0113673
0.0113642
0.0113603
0.0113555
0.0113499
0.0113432
0.0113355
0.0113267
0.0113167
0.0113057
0.0112936
0.0112805
0.0112663
0.0112512
0.0112351
0.0112182
0.0112006
0.0111822
0.0111632
0.0111436
0.0111235
0.0111029
0.011082
0.0113824
0.0113812
0.01138
0.0113789
0.0113777
0.0113766
0.0113753
0.011374
0.0113726
0.0113709
0.0113689
0.0113665
0.0113635
0.0113599
0.0113556
0.0113504
0.0113444
0.0113375
0.0113297
0.0113208
0.011311
0.0113002
0.0112885
0.0112759
0.0112624
0.011248
0.0112329
0.0112171
0.0112006
0.0111835
0.0111658
0.0111476
0.011129
0.0113824
0.0113812
0.01138
0.0113789
0.0113777
0.0113765
0.0113753
0.011374
0.0113725
0.0113707
0.0113686
0.0113661
0.011363
0.0113593
0.0113548
0.0113496
0.0113434
0.0113364
0.0113284
0.0113194
0.0113095
0.0112986
0.0112868
0.0112741
0.0112606
0.0112462
0.0112311
0.0112152
0.0111987
0.0111816
0.011164
0.0111458
0.0111272
0.0113824
0.0113812
0.01138
0.0113789
0.0113777
0.0113764
0.011375
0.0113734
0.0113715
0.0113691
0.0113662
0.0113626
0.0113583
0.011353
0.0113468
0.0113395
0.0113312
0.0113218
0.0113113
0.0112998
0.0112872
0.0112735
0.0112589
0.0112434
0.0112271
0.0112099
0.011192
0.0111734
0.0111542
0.0111344
0.0111142
0.0110935
0.0110725
0.0113824
0.0113812
0.01138
0.0113788
0.0113775
0.011376
0.0113742
0.0113718
0.0113688
0.0113648
0.0113599
0.0113537
0.0113462
0.0113373
0.011327
0.0113153
0.0113021
0.0112875
0.0112715
0.0112543
0.0112359
0.0112164
0.0111959
0.0111744
0.0111521
0.011129
0.0111053
0.011081
0.0110562
0.011031
0.0110054
0.0109796
0.0109535
0.0113824
0.0113812
0.01138
0.0113787
0.011377
0.0113748
0.0113718
0.0113676
0.0113618
0.0113543
0.0113449
0.0113333
0.0113196
0.0113037
0.0112857
0.0112656
0.0112436
0.0112198
0.0111944
0.0111675
0.0111393
0.01111
0.0110797
0.0110486
0.0110167
0.0109843
0.0109514
0.0109182
0.0108847
0.010851
0.0108173
0.0107836
0.0107499
0.0113824
0.0113813
0.0113799
0.0113781
0.0113755
0.0113714
0.0113652
0.0113564
0.0113446
0.0113295
0.0113109
0.0112888
0.0112634
0.0112347
0.0112031
0.0111689
0.0111323
0.0110938
0.0110535
0.0110117
0.0109688
0.010925
0.0108805
0.0108355
0.0107902
0.0107447
0.0106992
0.0106538
0.0106086
0.0105637
0.0105192
0.0104751
0.0104315
0.0113825
0.0113812
0.0113794
0.0113761
0.0113704
0.0113611
0.0113472
0.0113279
0.0113028
0.011272
0.0112356
0.011194
0.0111477
0.0110974
0.0110436
0.0109871
0.0109282
0.0108677
0.0108058
0.0107431
0.0106799
0.0106166
0.0105533
0.0104902
0.0104277
0.0103658
0.0103047
0.0102444
0.0101851
0.0101268
0.0100696
0.0100135
0.00995844
0.0113825
0.0113808
0.011377
0.0113691
0.0113545
0.0113315
0.0112988
0.011256
0.0112036
0.0111424
0.0110735
0.0109982
0.0109178
0.0108335
0.0107465
0.0106576
0.0105676
0.0104773
0.0103873
0.0102978
0.0102094
0.0101224
0.0100368
0.00995292
0.00987086
0.0097907
0.0097125
0.00963628
0.00956207
0.00948985
0.00941962
0.00935135
0.009285
0.0113825
0.0113787
0.0113679
0.0113447
0.0113054
0.011248
0.0111728
0.0110816
0.0109771
0.0108621
0.0107396
0.0106119
0.0104814
0.0103497
0.0102183
0.0100882
0.00996015
0.00983484
0.00971264
0.00959382
0.00947856
0.00936695
0.00925902
0.00915477
0.00905414
0.00895706
0.00886344
0.00877318
0.00868618
0.00860231
0.00852146
0.00844351
0.00836835
0.011382
0.0113691
0.0113325
0.0112633
0.0111587
0.0110222
0.0108601
0.0106799
0.0104883
0.010291
0.0100925
0.00989597
0.00970363
0.00951703
0.00933709
0.00916431
0.0089989
0.00884088
0.00869011
0.0085464
0.00840946
0.008279
0.00815471
0.00803628
0.00792339
0.00781574
0.00771303
0.00761498
0.00752134
0.00743184
0.00734626
0.00726437
0.00718597
0.0113786
0.0113249
0.0111997
0.0110009
0.0107442
0.0104511
0.0101407
0.00982717
0.00952002
0.00922488
0.00894479
0.00868112
0.00843415
0.00820345
0.00798818
0.00778734
0.00759987
0.00742475
0.00726099
0.00710765
0.00696389
0.00682893
0.00670204
0.0065826
0.00647
0.00636371
0.00626326
0.00616821
0.00607815
0.00599273
0.00591162
0.00583452
0.00576115
0.0113536
0.011126
0.0107259
0.0102229
0.00968832
0.00916705
0.00868064
0.00823688
0.00783646
0.00747677
0.00715407
0.00686444
0.00660376
0.00636828
0.00615476
0.00596041
0.00578287
0.00562012
0.00547044
0.00533237
0.00520464
0.00508615
0.00497596
0.00487325
0.0047773
0.00468748
0.00460324
0.00452408
0.00444956
0.00437931
0.00431297
0.00425024
0.00419084
0.0111683
0.0102731
0.00924316
0.00829367
0.00748992
0.00682636
0.00627847
0.00582284
0.00544041
0.00511624
0.00483928
0.00459995
0.00439098
0.00420686
0.00404337
0.00389717
0.00376565
0.00364667
0.00353852
0.00343977
0.00334924
0.00326595
0.00318905
0.00311784
0.00305171
0.00299014
0.00293267
0.0028789
0.0028285
0.00278116
0.0027366
0.0026946
0.00265494
0.00982659
0.0072389
0.00577405
0.00486951
0.00424873
0.00378755
0.00342701
0.00314024
0.00290887
0.00271813
0.00255776
0.00242093
0.0023028
0.00219976
0.00210909
0.00202868
0.00195686
0.0018923
0.00183394
0.00178091
0.0017325
0.00168811
0.00164725
0.0016095
0.00157452
0.001542
0.00151169
0.00148337
0.00145683
0.00143192
0.00140849
0.0013864
0.00136554
0.00414167
0.00254161
0.00204418
0.00174836
0.00154034
0.00137827
0.00124767
0.00114134
0.00105377
0.00098091
0.000919644
0.000867562
0.000822823
0.000784021
0.000750081
0.000720164
0.000693613
0.000669905
0.00064862
0.000629415
0.000612009
0.000596171
0.000581705
0.000568448
0.000556262
0.000545028
0.000534645
0.000525023
0.000516088
0.000507773
0.000500018
0.000492775
0.000485988
0.000119434
0.000124352
0.000129424
0.000134072
0.000138235
0.000142037
0.000145562
0.000148849
0.000151924
0.000154806
0.000157512
0.000160054
0.000162444
0.000164691
0.000166805
0.000168794
0.000170666
0.000172429
0.000174087
0.000175649
0.000177119
0.000178503
0.000179807
0.000181034
0.00018219
0.000183279
0.000184304
0.00018527
0.000186181
0.000187038
0.000187846
0.000188607
0.000189325
6.59677e-05
7.80961e-05
9.79068e-05
0.000124182
0.000156147
0.000192544
0.000232119
0.000273542
0.000315461
0.000356662
0.000396251
0.000433764
0.000469149
0.000502659
0.000534712
0.000565753
0.000596162
0.000626205
0.000656028
0.000685689
0.000715189
0.000744513
0.000773654
0.000802626
0.000831463
0.000860211
0.000888925
0.000917654
0.00094644
0.000975317
0.00100431
0.00103344
0.00106272
0.00109215
0.00112175
0.00115151
0.00118146
0.0012116
0.00124193
0.00127249
0.0013033
0.00133439
0.00136581
0.0013976
0.00142985
0.00146262
0.00149602
0.00153015
0.00156515
0.00160116
0.00163835
0.00167689
0.00171698
0.00175885
0.00180271
0.0018488
0.00189737
0.00194866
0.0020029
0.00206033
0.00212113
0.0021855
0.00225355
0.00232538
0.00240102
0.00248046
0.00256361
0.00265035
0.00274049
0.00283381
0.00293002
0.00302881
0.00312986
0.00323281
0.00333727
0.00344287
0.0035492
0.00365587
0.00376247
0.0038686
0.00397388
0.00407792
0.00418038
0.0042809
0.00437917
0.00447491
0.00456784
0.00465774
0.0047444
0.00482764
0.00490731
0.00498329
0.00505548
0.00512378
0.00518822
0.00524865
0.00530541
0.005358
0.0054061
0.00547028
0.000121855
0.000121643
0.000123435
0.000128365
0.000136195
0.000146955
0.000160747
0.000177675
0.000197787
0.000221067
0.000247407
0.000276579
0.000308223
0.000341866
0.000376947
0.000412874
0.00044908
0.00048508
0.000520517
0.000555179
0.000588987
0.00062197
0.000654223
0.000685872
0.000717042
0.000747846
0.000778378
0.000808716
0.000838926
0.000869064
0.000899179
0.000929319
0.000959523
0.000989829
0.00102027
0.00105088
0.00108168
0.00111271
0.00114399
0.00117557
0.00120749
0.00123978
0.00127252
0.00130576
0.00133958
0.00137409
0.00140938
0.00144557
0.00148282
0.00152127
0.00156111
0.00160251
0.0016457
0.00169089
0.00173831
0.00178819
0.00184077
0.00189628
0.00195493
0.00201691
0.00208239
0.00215148
0.00222428
0.00230079
0.002381
0.00246483
0.00255213
0.00264272
0.00273637
0.00283282
0.00293177
0.0030329
0.00313588
0.00324038
0.00334603
0.00345249
0.00355941
0.00366641
0.00377316
0.0038793
0.00398448
0.00408838
0.00419068
0.00429106
0.00438924
0.00448496
0.00457798
0.00466807
0.00475503
0.00483869
0.0049189
0.00499553
0.00506849
0.00513766
0.00520306
0.00526454
0.00532242
0.00537623
0.00542546
0.00549146
0.000240023
0.000235387
0.000230545
0.000226088
0.000222629
0.000220669
0.000220411
0.000221987
0.000225643
0.000231663
0.000240328
0.000251876
0.000266463
0.000284141
0.000304846
0.000328398
0.000354517
0.000382844
0.000412974
0.000444477
0.000476937
0.000509972
0.000543256
0.000576539
0.000609644
0.000642472
0.000674983
0.000707188
0.00073913
0.000770868
0.000802468
0.000833998
0.00086552
0.000897095
0.000928776
0.000960618
0.000992671
0.00102499
0.00105762
0.00109062
0.00112406
0.00115799
0.00119251
0.00122768
0.00126362
0.00130042
0.00133823
0.00137716
0.00141739
0.00145907
0.00150241
0.00154759
0.00159484
0.00164436
0.00169637
0.00175111
0.00180876
0.00186954
0.0019336
0.00200108
0.00207208
0.00214665
0.00222479
0.00230645
0.00239152
0.00247985
0.00257124
0.00266546
0.00276222
0.00286125
0.00296224
0.00306488
0.00316885
0.00327385
0.00337956
0.00348569
0.00359193
0.00369799
0.00380358
0.00390841
0.00401219
0.00411466
0.00421554
0.00431456
0.00441148
0.00450607
0.0045981
0.00468736
0.00477367
0.00485686
0.00493678
0.00501329
0.00508629
0.00515566
0.00522142
0.00528338
0.00534185
0.0053964
0.00544632
0.00551358
0.000435134
0.000426874
0.000418754
0.000410869
0.000403346
0.000396281
0.000389743
0.000383831
0.000378625
0.000374177
0.000370606
0.000368118
0.000367001
0.000367606
0.000370318
0.000375502
0.00038346
0.000394388
0.000408353
0.000425288
0.000445011
0.000467254
0.000491692
0.000517979
0.000545777
0.00057477
0.000604682
0.000635284
0.000666398
0.000697893
0.00072968
0.000761712
0.000793972
0.000826465
0.000859216
0.000892265
0.00092566
0.000959455
0.000993715
0.00102851
0.00106391
0.00110001
0.0011369
0.00117468
0.00121347
0.0012534
0.00129461
0.00133725
0.00138149
0.00142751
0.00147549
0.00152565
0.00157816
0.00163324
0.00169106
0.00175182
0.00181565
0.0018827
0.00195306
0.00202678
0.00210388
0.00218431
0.00226798
0.00235477
0.00244449
0.00253691
0.00263178
0.00272883
0.00282776
0.00292827
0.00303007
0.00313287
0.00323639
0.00334037
0.00344456
0.00354873
0.00365264
0.00375608
0.00385884
0.00396069
0.00406144
0.00416086
0.00425876
0.00435491
0.00444911
0.00454117
0.00463089
0.00471808
0.00480257
0.00488418
0.00496278
0.00503821
0.00511037
0.00517913
0.00524448
0.00530623
0.00536466
0.00541937
0.00546946
0.00553728
0.000691617
0.000679364
0.000667483
0.000656119
0.000645362
0.0006352
0.000625581
0.000616446
0.000607784
0.000599549
0.000591688
0.000584175
0.00057703
0.000570328
0.000564205
0.000558864
0.000554567
0.000551625
0.000550377
0.000551158
0.000554269
0.000559947
0.000568344
0.000579514
0.000593421
0.000609948
0.000628921
0.000650127
0.000673341
0.000698339
0.000724913
0.000752878
0.000782081
0.000812399
0.000843744
0.000876054
0.000909297
0.000943468
0.000978581
0.00101467
0.0010518
0.00109003
0.00112944
0.00117015
0.00121226
0.0012559
0.00130122
0.00134835
0.00139746
0.00144872
0.00150229
0.00155833
0.001617
0.00167846
0.00174283
0.00181023
0.00188072
0.00195435
0.00203114
0.00211103
0.00219394
0.00227974
0.00236827
0.00245931
0.0025526
0.00264788
0.00274486
0.00284324
0.00294271
0.00304298
0.0031438
0.00324489
0.00334605
0.00344706
0.00354774
0.00364793
0.0037475
0.00384631
0.00394422
0.00404112
0.00413687
0.00423133
0.00432438
0.00441586
0.00450562
0.00459349
0.00467932
0.00476295
0.0048442
0.00492292
0.00499896
0.00507216
0.00514242
0.00520958
0.0052736
0.00533431
0.00539193
0.00544607
0.0054957
0.00556324
0.00102157
0.00100376
0.000986604
0.000970237
0.000954765
0.000940185
0.000926438
0.000913436
0.000901098
0.000889353
0.000878117
0.000867324
0.000856928
0.000846913
0.000837289
0.000828101
0.000819424
0.000811367
0.000804075
0.000797722
0.000792513
0.000788673
0.000786437
0.00078604
0.000787699
0.000791598
0.000797884
0.000806652
0.000817949
0.000831772
0.000848081
0.000866805
0.000887854
0.000911128
0.000936528
0.000963963
0.000993354
0.00102464
0.00105778
0.00109275
0.00112955
0.0011682
0.00120874
0.00125123
0.00129574
0.00134236
0.00139119
0.00144233
0.0014959
0.00155201
0.00161078
0.0016723
0.00173666
0.00180394
0.00187419
0.00194742
0.00202362
0.00210275
0.00218471
0.00226937
0.00235656
0.00244607
0.00253766
0.00263106
0.00272596
0.00282207
0.00291906
0.00301663
0.00311448
0.00321235
0.00330998
0.00340718
0.00350376
0.00359958
0.00369454
0.00378856
0.00388158
0.00397354
0.00406443
0.00415419
0.00424281
0.00433021
0.00441635
0.00450115
0.0045845
0.00466632
0.00474646
0.0048248
0.00490119
0.00497548
0.00504752
0.00511715
0.00518424
0.00524863
0.00531026
0.00536893
0.00542482
0.00547756
0.00552598
0.00559223
0.0014436
0.00141783
0.00139312
0.00136956
0.00134724
0.00132615
0.00130624
0.00128742
0.00126959
0.00125266
0.00123655
0.00122117
0.00120649
0.00119246
0.00117908
0.00116637
0.00115437
0.00114311
0.00113266
0.0011231
0.00111451
0.001107
0.00110069
0.00109569
0.00109215
0.00109021
0.00109003
0.00109175
0.00109553
0.00110149
0.00110976
0.00112042
0.00113357
0.00114926
0.00116752
0.00118839
0.00121186
0.00123796
0.00126666
0.00129799
0.00133194
0.00136853
0.00140776
0.00144968
0.00149431
0.0015417
0.00159189
0.00164493
0.00170087
0.00175976
0.00182163
0.0018865
0.0019544
0.00202528
0.00209913
0.00217587
0.0022554
0.00233757
0.00242223
0.00250914
0.00259808
0.00268877
0.0027809
0.00287415
0.00296819
0.00306268
0.00315729
0.00325171
0.00334565
0.00343886
0.00353111
0.00362224
0.00371211
0.00380063
0.00388777
0.0039735
0.00405786
0.00414089
0.00422263
0.00430315
0.00438251
0.00446074
0.00453787
0.00461392
0.00468884
0.00476261
0.00483513
0.00490633
0.00497607
0.00504423
0.00511066
0.0051752
0.00523769
0.00529799
0.00535599
0.00541147
0.00546456
0.00551492
0.00556126
0.00562505
0.00196954
0.00193324
0.00189849
0.00186534
0.00183385
0.00180399
0.0017757
0.00174888
0.00172344
0.00169929
0.00167632
0.00165447
0.00163366
0.00161388
0.00159512
0.0015774
0.00156073
0.00154518
0.00153078
0.00151759
0.00150567
0.00149509
0.0014859
0.00147816
0.00147195
0.00146734
0.00146439
0.00146321
0.00146388
0.0014665
0.00147118
0.00147802
0.00148714
0.00149865
0.00151264
0.00152923
0.00154849
0.00157052
0.0015954
0.00162318
0.00165393
0.0016877
0.00172455
0.00176452
0.00180764
0.00185394
0.00190346
0.00195622
0.00201221
0.00207144
0.00213388
0.0021995
0.00226824
0.00234
0.00241469
0.00249215
0.00257221
0.00265465
0.00273925
0.00282571
0.00291375
0.00300302
0.00309317
0.00318385
0.00327469
0.00336534
0.00345543
0.00354466
0.00363273
0.0037194
0.00380447
0.00388777
0.00396922
0.00404877
0.00412641
0.00420221
0.00427624
0.00434862
0.00441949
0.00448899
0.00455728
0.00462449
0.00469074
0.00475612
0.0048207
0.00488449
0.00494751
0.00500969
0.00507096
0.00513121
0.00519032
0.00524814
0.0053045
0.00535924
0.00541223
0.00546324
0.00551234
0.00555921
0.00560248
0.00566246
0.00259986
0.00255097
0.00250415
0.00245941
0.00241677
0.00237619
0.00233758
0.00230087
0.00226594
0.00223269
0.00220104
0.00217089
0.0021422
0.00211492
0.00208906
0.00206463
0.00204165
0.00202018
0.00200027
0.00198197
0.00196535
0.00195044
0.00193732
0.00192602
0.00191658
0.00190905
0.00190346
0.00189987
0.00189831
0.00189883
0.00190149
0.00190637
0.00191352
0.00192304
0.00193501
0.00194951
0.00196666
0.00198653
0.00200922
0.00203484
0.00206346
0.00209517
0.00213003
0.00216813
0.00220949
0.00225418
0.00230221
0.0023536
0.00240833
0.00246639
0.00252772
0.00259224
0.00265987
0.00273046
0.00280387
0.00287988
0.00295828
0.00303881
0.00312118
0.00320506
0.0032901
0.00337593
0.00346218
0.00354845
0.00363434
0.00371948
0.0038035
0.00388608
0.00396693
0.00404579
0.00412248
0.00419684
0.00426881
0.00433834
0.00440549
0.00447033
0.004533
0.00459368
0.00465255
0.00470986
0.00476582
0.00482067
0.00487462
0.00492784
0.0049805
0.00503271
0.00508454
0.00513601
0.0051871
0.00523776
0.00528789
0.00533735
0.005386
0.00543366
0.0054802
0.00552537
0.00556919
0.00561134
0.00565046
0.00570516
0.00332324
0.00326076
0.00320081
0.00314337
0.00308842
0.00303592
0.00298577
0.00293789
0.00289218
0.00284854
0.00280688
0.00276711
0.00272918
0.00269306
0.00265873
0.00262621
0.00259554
0.00256674
0.00253989
0.00251504
0.00249226
0.00247159
0.00245309
0.0024368
0.00242278
0.00241104
0.00240163
0.00239455
0.00238985
0.00238754
0.00238766
0.00239022
0.00239527
0.00240286
0.00241303
0.00242583
0.00244135
0.00245964
0.00248078
0.00250484
0.00253189
0.00256202
0.00259528
0.00263174
0.00267145
0.00271444
0.00276073
0.00281034
0.00286323
0.00291937
0.00297869
0.0030411
0.00310648
0.00317466
0.00324547
0.00331866
0.00339399
0.00347116
0.00354985
0.00362972
0.00371037
0.00379142
0.00387246
0.00395308
0.00403287
0.00411144
0.00418843
0.00426349
0.00433633
0.00440669
0.00447439
0.00453929
0.00460131
0.00466043
0.00471671
0.00477025
0.00482121
0.0048698
0.00491627
0.0049609
0.00500397
0.00504579
0.00508665
0.00512683
0.00516656
0.00520605
0.00524547
0.00528491
0.00532444
0.00536406
0.00540373
0.00544335
0.0054828
0.00552193
0.00556059
0.00559855
0.00563577
0.00567194
0.00570579
0.00575361
0.00411868
0.00404293
0.00397003
0.00389995
0.00383265
0.00376806
0.00370612
0.00364674
0.00358983
0.0035353
0.00348307
0.00343306
0.00338522
0.00333951
0.00329594
0.00325451
0.00321525
0.00317821
0.00314345
0.00311102
0.00308099
0.00305341
0.00302835
0.00300586
0.00298598
0.00296874
0.00295417
0.00294231
0.00293315
0.00292673
0.00292306
0.00292214
0.002924
0.00292865
0.00293612
0.00294643
0.00295962
0.00297572
0.00299479
0.00301685
0.00304196
0.00307016
0.0031015
0.003136
0.00317371
0.00321463
0.00325877
0.00330611
0.00335662
0.00341024
0.00346688
0.00352644
0.00358876
0.00365366
0.00372095
0.00379037
0.00386165
0.00393447
0.0040085
0.00408336
0.00415866
0.00423399
0.00430894
0.00438309
0.00445603
0.00452736
0.00459671
0.00466374
0.00472816
0.00478971
0.00484821
0.00490351
0.00495554
0.00500428
0.0050498
0.00509219
0.00513163
0.00516834
0.00520259
0.00523469
0.00526496
0.00529377
0.00532145
0.00534836
0.00537482
0.00540111
0.00542748
0.00545412
0.00548119
0.00550876
0.00553685
0.00556545
0.00559447
0.0056238
0.00565331
0.00568277
0.00571214
0.0057411
0.00576855
0.00580788
0.00495875
0.00487143
0.00478706
0.00470562
0.00462708
0.00455139
0.00447847
0.00440827
0.00434071
0.00427573
0.00421325
0.00415321
0.00409557
0.00404031
0.00398742
0.00393693
0.00388886
0.00384326
0.00380019
0.00375971
0.00372188
0.00368677
0.00365444
0.00362495
0.00359834
0.00357466
0.00355394
0.00353621
0.00352148
0.00350978
0.00350112
0.0034955
0.00349293
0.00349341
0.00349697
0.00350359
0.0035133
0.00352611
0.00354203
0.00356108
0.00358328
0.00360863
0.00363716
0.00366887
0.00370375
0.00374181
0.00378301
0.00382731
0.00387466
0.00392497
0.00397813
0.004034
0.00409244
0.00415323
0.00421615
0.00428094
0.0043473
0.00441491
0.00448342
0.00455245
0.0046216
0.00469046
0.00475861
0.00482563
0.00489112
0.00495468
0.00501596
0.00507461
0.00513035
0.00518293
0.00523217
0.00527792
0.00532011
0.00535874
0.00539383
0.00542551
0.00545393
0.00547932
0.00550195
0.00552212
0.0055402
0.00555655
0.00557155
0.00558559
0.00559906
0.0056123
0.00562563
0.00563933
0.00565362
0.00566868
0.0056846
0.00570145
0.0057192
0.00573779
0.00575714
0.00577707
0.00579751
0.00581816
0.00583819
0.00586751
0.00581326
0.00571717
0.00562393
0.00553352
0.00544592
0.0053611
0.00527902
0.00519965
0.00512294
0.00504884
0.00497729
0.00490828
0.00484176
0.00477774
0.00471622
0.00465722
0.00460079
0.00454698
0.00449584
0.00444744
0.00440185
0.00435914
0.00431938
0.00428262
0.00424893
0.00421836
0.00419094
0.0041667
0.00414569
0.00412791
0.00411338
0.00410211
0.00409411
0.00408939
0.00408793
0.00408975
0.00409483
0.00410318
0.0041148
0.00412968
0.00414781
0.00416918
0.00419379
0.0042216
0.0042526
0.00428673
0.00432396
0.00436421
0.00440739
0.0044534
0.00450211
0.00455335
0.00460694
0.00466268
0.0047203
0.00477954
0.00484009
0.00490161
0.00496375
0.00502612
0.00508833
0.00514996
0.00521061
0.00526987
0.00532733
0.00538263
0.0054354
0.00548533
0.00553215
0.00557561
0.00561554
0.00565182
0.00568435
0.00571313
0.00573821
0.00575967
0.00577769
0.00579245
0.00580424
0.00581334
0.00582009
0.00582488
0.00582809
0.00583012
0.00583138
0.00583226
0.00583313
0.00583433
0.00583614
0.00583882
0.00584254
0.00584743
0.00585357
0.00586095
0.00586954
0.00587923
0.00588996
0.00590146
0.00591325
0.00593126
0.00665244
0.00655119
0.00645246
0.00635625
0.00626257
0.00617142
0.00608279
0.00599668
0.00591307
0.00583194
0.00575327
0.00567705
0.00560329
0.005532
0.00546319
0.00539691
0.00533321
0.00527214
0.00521377
0.00515818
0.00510544
0.00505563
0.00500882
0.00496507
0.00492447
0.00488705
0.00485287
0.00482199
0.00479442
0.0047702
0.00474936
0.0047319
0.00471784
0.00470719
0.00469994
0.0046961
0.00469565
0.00469859
0.0047049
0.00471457
0.00472757
0.00474387
0.00476345
0.00478627
0.00481226
0.00484136
0.00487351
0.0049086
0.00494653
0.00498717
0.00503035
0.00507591
0.00512362
0.00517328
0.0052246
0.00527731
0.00533108
0.00538558
0.00544044
0.00549529
0.00554973
0.00560336
0.00565578
0.0057066
0.00575543
0.00580192
0.00584573
0.00588656
0.00592415
0.0059583
0.00598882
0.00601561
0.0060386
0.00605777