/*--------------------------------*- C++ -*----------------------------------*\
| =========                 |                                                 |
| \\      /  F ield         | OpenFOAM: The Open Source CFD Toolbox           |
|  \\    /   O peration     | Version:  4.1                                   |
|   \\  /    A nd           | Web:      www.OpenFOAM.org                      |
|    \\/     M anipulation  |                                                 |
\*---------------------------------------------------------------------------*/
FoamFile
{
    version     2.0;
    format      ascii;
    class       volScalarField;
    location    "1900";
    object      p;
}
// * * * * * * * * * * * * * * * * * * * * * * * * * * * * * * * * * * * * * //

dimensions      [0 2 -2 0 0 0 0];

internalField   nonuniform List<scalar> 
6820
(
6.15776
-4.54115
-8.06778
-8.81301
-9.20561
-9.53686
-9.72522
-9.81855
-9.88145
-9.93412
-9.97718
-10.0122
-10.0424
-10.0696
-10.0944
-10.1173
-10.1387
-10.1589
-10.1781
-10.1964
-10.214
-10.231
-10.2474
-10.2634
-10.2789
-10.2939
-10.3084
-10.3223
-10.3354
-10.3476
-10.3578
-10.3677
-10.3639
-15.5615
-12.0142
-11.2124
-10.4081
-10.0249
-9.94272
-9.92879
-9.92392
-9.93593
-9.96101
-9.98911
-10.0161
-10.042
-10.0669
-10.0906
-10.113
-10.1343
-10.1545
-10.1738
-10.1923
-10.2101
-10.2274
-10.244
-10.2602
-10.2759
-10.2912
-10.306
-10.3203
-10.334
-10.3471
-10.3589
-10.3713
-10.3767
-13.371
-9.86307
-9.60099
-9.59073
-9.57805
-9.66858
-9.76177
-9.824
-9.87463
-9.92179
-9.96327
-9.99871
-10.0299
-10.0581
-10.0839
-10.1076
-10.1297
-10.1505
-10.1702
-10.189
-10.2069
-10.2243
-10.241
-10.2573
-10.2731
-10.2885
-10.3035
-10.318
-10.3321
-10.3459
-10.3589
-10.3726
-10.3835
-10.9442
-9.47322
-9.62369
-9.73401
-9.71412
-9.76323
-9.82735
-9.87094
-9.90716
-9.9432
-9.97687
-10.0071
-10.0346
-10.0603
-10.0844
-10.1069
-10.1282
-10.1484
-10.1677
-10.1862
-10.2041
-10.2214
-10.2381
-10.2544
-10.2703
-10.2859
-10.3011
-10.316
-10.3306
-10.345
-10.3592
-10.3741
-10.3884
-10.4918
-9.77728
-9.81593
-9.82683
-9.77732
-9.79923
-9.84572
-9.88195
-9.91432
-9.94749
-9.97927
-10.0084
-10.0353
-10.0605
-10.0841
-10.1064
-10.1274
-10.1474
-10.1666
-10.185
-10.2028
-10.2199
-10.2366
-10.2529
-10.2688
-10.2844
-10.2998
-10.3149
-10.3299
-10.3449
-10.3599
-10.3757
-10.392
-10.4112
-9.93144
-9.8834
-9.85741
-9.81354
-9.82683
-9.86332
-9.89536
-9.9253
-9.95595
-9.9856
-10.0132
-10.0389
-10.0631
-10.0859
-10.1075
-10.1281
-10.1477
-10.1665
-10.1847
-10.2022
-10.2192
-10.2358
-10.252
-10.2679
-10.2835
-10.2989
-10.3142
-10.3295
-10.3449
-10.3606
-10.3771
-10.3946
-10.2882
-9.9618
-9.90751
-9.88205
-9.84883
-9.85684
-9.88469
-9.91195
-9.93871
-9.96637
-9.99353
-10.0193
-10.0436
-10.0667
-10.0886
-10.1095
-10.1295
-10.1487
-10.1671
-10.1849
-10.2022
-10.219
-10.2354
-10.2515
-10.2674
-10.283
-10.2985
-10.3139
-10.3293
-10.345
-10.3611
-10.378
-10.3961
-10.1792
-9.97376
-9.92906
-9.90682
-9.88093
-9.88518
-9.90612
-9.92895
-9.95257
-9.97739
-10.0022
-10.0261
-10.049
-10.071
-10.092
-10.1122
-10.1316
-10.1502
-10.1682
-10.1857
-10.2027
-10.2193
-10.2355
-10.2515
-10.2672
-10.2828
-10.2982
-10.3137
-10.3293
-10.3451
-10.3614
-10.3785
-10.3966
-10.1082
-9.98454
-9.94701
-9.9271
-9.90725
-9.9097
-9.92585
-9.94516
-9.9661
-9.98846
-10.0111
-10.0334
-10.0549
-10.0758
-10.0959
-10.1153
-10.134
-10.1522
-10.1698
-10.1869
-10.2036
-10.2199
-10.2359
-10.2517
-10.2673
-10.2828
-10.2982
-10.3136
-10.3292
-10.3451
-10.3614
-10.3784
-10.3963
-10.0639
-9.99116
-9.96001
-9.94298
-9.92846
-9.93043
-9.94344
-9.9601
-9.97884
-9.9991
-10.0199
-10.0406
-10.0609
-10.0807
-10.0999
-10.1186
-10.1367
-10.1543
-10.1715
-10.1882
-10.2046
-10.2206
-10.2364
-10.252
-10.2674
-10.2828
-10.2981
-10.3135
-10.329
-10.3448
-10.361
-10.3777
-10.3952
-10.0362
-9.99451
-9.96981
-9.95595
-9.94579
-9.94788
-9.95883
-9.97353
-9.99047
-10.009
-10.0282
-10.0475
-10.0667
-10.0855
-10.1039
-10.1219
-10.1394
-10.1565
-10.1732
-10.1896
-10.2056
-10.2214
-10.2369
-10.2523
-10.2675
-10.2827
-10.2979
-10.3131
-10.3285
-10.3441
-10.36
-10.3764
-10.3934
-10.0196
-9.99659
-9.97788
-9.96701
-9.9602
-9.96262
-9.97221
-9.98542
-10.0009
-10.0179
-10.0358
-10.0539
-10.072
-10.09
-10.1076
-10.1249
-10.1419
-10.1585
-10.1748
-10.1908
-10.2065
-10.222
-10.2373
-10.2524
-10.2674
-10.2824
-10.2974
-10.3124
-10.3275
-10.3429
-10.3585
-10.3744
-10.3908
-10.0108
-9.99856
-9.98492
-9.97671
-9.97244
-9.97524
-9.98388
-9.99591
-10.0102
-10.026
-10.0426
-10.0597
-10.0769
-10.094
-10.1109
-10.1276
-10.144
-10.1602
-10.1761
-10.1917
-10.2071
-10.2223
-10.2373
-10.2522
-10.267
-10.2817
-10.2964
-10.3112
-10.3261
-10.3411
-10.3563
-10.3717
-10.3874
-10.007
-10.0009
-9.99134
-9.98542
-9.98307
-9.98621
-9.99416
-10.0052
-10.0184
-10.0331
-10.0487
-10.0648
-10.0812
-10.0975
-10.1138
-10.1299
-10.1458
-10.1615
-10.177
-10.1922
-10.2073
-10.2222
-10.2369
-10.2516
-10.2661
-10.2806
-10.295
-10.3095
-10.324
-10.3387
-10.3534
-10.3683
-10.3833
-10.0066
-10.0038
-9.99737
-9.99337
-9.99248
-9.9959
-10.0033
-10.0135
-10.0258
-10.0395
-10.0542
-10.0694
-10.0849
-10.1005
-10.1162
-10.1317
-10.1471
-10.1624
-10.1775
-10.1924
-10.2071
-10.2217
-10.2361
-10.2505
-10.2647
-10.2789
-10.2931
-10.3072
-10.3214
-10.3356
-10.3498
-10.3642
-10.3785
-10.0084
-10.0073
-10.0032
-10.0007
-10.0009
-10.0046
-10.0115
-10.021
-10.0324
-10.0452
-10.059
-10.0734
-10.0881
-10.1031
-10.1181
-10.1331
-10.148
-10.1628
-10.1775
-10.192
-10.2064
-10.2207
-10.2348
-10.2489
-10.2628
-10.2767
-10.2905
-10.3043
-10.3181
-10.3318
-10.3456
-10.3593
-10.373
-10.0116
-10.0112
-10.0088
-10.0076
-10.0086
-10.0124
-10.019
-10.0278
-10.0384
-10.0504
-10.0633
-10.0769
-10.0909
-10.1052
-10.1196
-10.1341
-10.1485
-10.1629
-10.1771
-10.1913
-10.2053
-10.2193
-10.2331
-10.2468
-10.2604
-10.2739
-10.2874
-10.3008
-10.3141
-10.3274
-10.3406
-10.3538
-10.3668
-10.0156
-10.0156
-10.0144
-10.0141
-10.0156
-10.0195
-10.0257
-10.034
-10.0438
-10.055
-10.0671
-10.08
-10.0933
-10.1069
-10.1207
-10.1346
-10.1486
-10.1625
-10.1763
-10.1901
-10.2038
-10.2174
-10.2308
-10.2442
-10.2575
-10.2706
-10.2837
-10.2967
-10.3096
-10.3223
-10.335
-10.3476
-10.36
-10.0201
-10.0203
-10.0198
-10.0202
-10.0221
-10.026
-10.0319
-10.0396
-10.0488
-10.0592
-10.0705
-10.0826
-10.0953
-10.1083
-10.1215
-10.1349
-10.1483
-10.1618
-10.1752
-10.1886
-10.2019
-10.2151
-10.2282
-10.2412
-10.254
-10.2668
-10.2795
-10.292
-10.3045
-10.3168
-10.3289
-10.3409
-10.3527
-10.0249
-10.0251
-10.0251
-10.026
-10.0281
-10.0319
-10.0375
-10.0446
-10.0532
-10.0629
-10.0735
-10.0849
-10.0969
-10.1093
-10.1219
-10.1348
-10.1477
-10.1607
-10.1737
-10.1866
-10.1995
-10.2124
-10.2251
-10.2377
-10.2502
-10.2626
-10.2748
-10.2869
-10.2989
-10.3107
-10.3223
-10.3337
-10.3449
-10.0298
-10.03
-10.0304
-10.0314
-10.0337
-10.0373
-10.0425
-10.0491
-10.0571
-10.0661
-10.0761
-10.0868
-10.0982
-10.1099
-10.122
-10.1343
-10.1468
-10.1593
-10.1719
-10.1844
-10.1969
-10.2093
-10.2216
-10.2339
-10.246
-10.2579
-10.2697
-10.2814
-10.2929
-10.3042
-10.3152
-10.3261
-10.3368
-10.0348
-10.035
-10.0355
-10.0366
-10.0388
-10.0422
-10.047
-10.0531
-10.0605
-10.0689
-10.0782
-10.0883
-10.099
-10.1102
-10.1218
-10.1336
-10.1455
-10.1576
-10.1697
-10.1818
-10.1939
-10.2059
-10.2179
-10.2297
-10.2414
-10.2529
-10.2643
-10.2755
-10.2865
-10.2973
-10.3079
-10.3182
-10.3283
-10.0398
-10.04
-10.0405
-10.0416
-10.0435
-10.0467
-10.051
-10.0566
-10.0634
-10.0712
-10.0799
-10.0894
-10.0995
-10.1101
-10.1211
-10.1324
-10.1439
-10.1556
-10.1673
-10.179
-10.1906
-10.2023
-10.2138
-10.2252
-10.2365
-10.2476
-10.2585
-10.2693
-10.2798
-10.2901
-10.3002
-10.31
-10.3195
-10.0448
-10.045
-10.0454
-10.0462
-10.0479
-10.0506
-10.0545
-10.0595
-10.0657
-10.0729
-10.081
-10.09
-10.0995
-10.1096
-10.1201
-10.131
-10.142
-10.1532
-10.1645
-10.1758
-10.1871
-10.1983
-10.2094
-10.2204
-10.2313
-10.242
-10.2525
-10.2628
-10.2728
-10.2827
-10.2922
-10.3015
-10.3106
-10.0498
-10.0499
-10.0501
-10.0507
-10.0519
-10.0541
-10.0574
-10.0619
-10.0674
-10.0741
-10.0816
-10.09
-10.0991
-10.1087
-10.1187
-10.1291
-10.1397
-10.1505
-10.1614
-10.1723
-10.1832
-10.194
-10.2048
-10.2154
-10.2259
-10.2361
-10.2462
-10.2561
-10.2657
-10.275
-10.2841
-10.2929
-10.3014
-10.0549
-10.055
-10.0549
-10.0549
-10.0556
-10.0571
-10.0598
-10.0636
-10.0686
-10.0746
-10.0816
-10.0895
-10.098
-10.1072
-10.1168
-10.1268
-10.137
-10.1474
-10.1579
-10.1685
-10.179
-10.1895
-10.1999
-10.2101
-10.2202
-10.23
-10.2397
-10.2491
-10.2583
-10.2672
-10.2758
-10.2842
-10.2922
-10.0602
-10.0602
-10.0597
-10.059
-10.0588
-10.0596
-10.0615
-10.0646
-10.069
-10.0744
-10.0809
-10.0883
-10.0964
-10.1052
-10.1144
-10.124
-10.1339
-10.1439
-10.1541
-10.1643
-10.1745
-10.1847
-10.1947
-10.2045
-10.2142
-10.2237
-10.233
-10.242
-10.2508
-10.2592
-10.2674
-10.2753
-10.2829
-10.0658
-10.0658
-10.0646
-10.0629
-10.0617
-10.0615
-10.0626
-10.0649
-10.0686
-10.0735
-10.0794
-10.0864
-10.0941
-10.1025
-10.1114
-10.1207
-10.1303
-10.14
-10.1499
-10.1598
-10.1697
-10.1795
-10.1892
-10.1987
-10.208
-10.2172
-10.2261
-10.2347
-10.2431
-10.2511
-10.2589
-10.2663
-10.2735
-10.072
-10.072
-10.0698
-10.0667
-10.0642
-10.0628
-10.0628
-10.0643
-10.0673
-10.0716
-10.0771
-10.0836
-10.091
-10.0991
-10.1077
-10.1167
-10.1261
-10.1356
-10.1452
-10.1548
-10.1644
-10.1739
-10.1833
-10.1926
-10.2016
-10.2104
-10.2189
-10.2272
-10.2352
-10.2429
-10.2502
-10.2573
-10.264
-10.0793
-10.0792
-10.0755
-10.0704
-10.0662
-10.0633
-10.0621
-10.0626
-10.0649
-10.0686
-10.0737
-10.0799
-10.0871
-10.0949
-10.1033
-10.1121
-10.1212
-10.1305
-10.1399
-10.1493
-10.1587
-10.168
-10.1771
-10.186
-10.1948
-10.2033
-10.2115
-10.2194
-10.2271
-10.2344
-10.2414
-10.2481
-10.2544
-10.0885
-10.0881
-10.082
-10.074
-10.0674
-10.0627
-10.0601
-10.0596
-10.0612
-10.0644
-10.0692
-10.0751
-10.082
-10.0897
-10.098
-10.1067
-10.1156
-10.1248
-10.134
-10.1432
-10.1524
-10.1615
-10.1704
-10.1791
-10.1876
-10.1958
-10.2037
-10.2113
-10.2187
-10.2257
-10.2324
-10.2387
-10.2447
-10.101
-10.0997
-10.0895
-10.0775
-10.0678
-10.0607
-10.0565
-10.0549
-10.0558
-10.0586
-10.0631
-10.0689
-10.0757
-10.0833
-10.0915
-10.1001
-10.109
-10.1181
-10.1272
-10.1363
-10.1454
-10.1543
-10.163
-10.1715
-10.1798
-10.1878
-10.1955
-10.2028
-10.2099
-10.2166
-10.223
-10.2291
-10.2348
-10.1192
-10.1155
-10.0983
-10.0803
-10.0667
-10.0568
-10.0507
-10.0481
-10.0484
-10.0509
-10.0552
-10.0609
-10.0677
-10.0754
-10.0836
-10.0923
-10.1012
-10.1102
-10.1193
-10.1284
-10.1374
-10.1462
-10.1548
-10.1632
-10.1713
-10.1791
-10.1866
-10.1938
-10.2007
-10.2072
-10.2134
-10.2192
-10.2246
-10.1496
-10.1384
-10.1078
-10.081
-10.0625
-10.0495
-10.0416
-10.0381
-10.038
-10.0403
-10.0446
-10.0505
-10.0575
-10.0653
-10.0736
-10.0824
-10.0914
-10.1006
-10.1098
-10.1189
-10.1279
-10.1367
-10.1453
-10.1536
-10.1617
-10.1695
-10.1769
-10.184
-10.1908
-10.1972
-10.2032
-10.2089
-10.2142
-10.2046
-10.1762
-10.1211
-10.0803
-10.0541
-10.0364
-10.0265
-10.0226
-10.0225
-10.0252
-10.0302
-10.0368
-10.0444
-10.0529
-10.0618
-10.0711
-10.0806
-10.0901
-10.0995
-10.1088
-10.118
-10.1269
-10.1356
-10.1439
-10.152
-10.1597
-10.1671
-10.1741
-10.1808
-10.1871
-10.193
-10.1985
-10.2036
-10.2876
-10.2245
-10.1399
-10.0864
-10.0477
-10.0196
-10.0045
-9.99797
-9.99621
-9.99812
-10.003
-10.0101
-10.0186
-10.028
-10.0381
-10.0485
-10.0591
-10.0697
-10.0803
-10.0906
-10.1007
-10.1105
-10.12
-10.1291
-10.1378
-10.1462
-10.1541
-10.1616
-10.1687
-10.1754
-10.1817
-10.1875
-10.1929
-10.4378
-10.2043
-10.0749
-10.0616
-10.0468
-10.0293
-10.0234
-10.023
-10.0232
-10.0247
-10.028
-10.0326
-10.0382
-10.0446
-10.0517
-10.0594
-10.0674
-10.0756
-10.084
-10.0923
-10.1007
-10.1089
-10.117
-10.1249
-10.1325
-10.1399
-10.1469
-10.1537
-10.1601
-10.1662
-10.1719
-10.1773
-10.1824
-11.3941
-10.1709
-9.58057
-9.50129
-9.51443
-9.55204
-9.60755
-9.66348
-9.71415
-9.76084
-9.80383
-9.84265
-9.87738
-9.90854
-9.93659
-9.96192
-9.98486
-10.0057
-10.0247
-10.0421
-10.0581
-10.0728
-10.0864
-10.099
-10.1106
-10.1213
-10.1313
-10.1405
-10.149
-10.1568
-10.164
-10.1706
-10.1764
-15.1632
-12.9603
-11.9292
-11.2928
-10.8657
-10.6149
-10.453
-10.3299
-10.2376
-10.1733
-10.1297
-10.1002
-10.0808
-10.0691
-10.0631
-10.0612
-10.0623
-10.0657
-10.0705
-10.0765
-10.0832
-10.0904
-10.0978
-10.1054
-10.1129
-10.1203
-10.1276
-10.1346
-10.1413
-10.1477
-10.1538
-10.1597
-10.1652
-1.24949
-5.34215
-7.46596
-8.23848
-8.67731
-9.04102
-9.30719
-9.48344
-9.60752
-9.70341
-9.77892
-9.8379
-9.88463
-9.92281
-9.95474
-9.98188
-10.0053
-10.0257
-10.0439
-10.0601
-10.0748
-10.0881
-10.1004
-10.1116
-10.1219
-10.1315
-10.1403
-10.1485
-10.156
-10.1629
-10.1693
-10.1751
-10.1804
-10.3477
-10.1318
-10.4213
-10.6909
-10.7949
-10.8271
-10.8381
-10.8352
-10.825
-10.817
-10.818
-10.8312
-10.8576
-10.8968
-10.9471
-11.0057
-11.0698
-11.1365
-11.203
-11.2669
-11.326
-11.3788
-11.4238
-11.4602
-11.4872
-11.5045
-11.512
-11.5095
-11.497
-11.4747
-11.4425
-11.4005
-11.3486
-11.2869
-11.2151
-11.1332
-11.0411
-10.9384
-10.8251
-10.7008
-10.5654
-10.4187
-10.2604
-10.0904
-9.90848
-9.71469
-9.50901
-9.29155
-9.06251
-8.82223
-8.57116
-8.30988
-8.03909
-7.75965
-7.47252
-7.1788
-6.87969
-6.57651
-6.27061
-5.96345
-5.65648
-5.35117
-5.04897
-4.75127
-4.4594
-4.17459
-3.89793
-3.6304
-3.37284
-3.12591
-2.89014
-2.6659
-2.45343
-2.25283
-2.06409
-1.88707
-1.72154
-1.56718
-1.42359
-1.2903
-1.16683
-1.05263
-0.947167
-0.849891
-0.760256
-0.677733
-0.601807
-0.531996
-0.467822
-0.408878
-0.354684
-0.305003
-0.259105
-0.217399
-0.177749
-0.143548
-0.106012
-0.0824268
-0.034092
-0.042079
-10.3945
-10.3938
-10.5881
-10.733
-10.7648
-10.7588
-10.7508
-10.7411
-10.732
-10.73
-10.7396
-10.7616
-10.7959
-10.8412
-10.8956
-10.9568
-11.0223
-11.0895
-11.156
-11.2195
-11.2783
-11.3306
-11.3752
-11.4112
-11.438
-11.4552
-11.4626
-11.4601
-11.4477
-11.4254
-11.3934
-11.3515
-11.2998
-11.2382
-11.1666
-11.0849
-10.9929
-10.8905
-10.7775
-10.6537
-10.5188
-10.3726
-10.215
-10.0458
-9.86484
-9.67217
-9.46777
-9.25178
-9.0244
-8.78597
-8.53694
-8.27788
-8.00948
-7.73258
-7.44814
-7.15721
-6.86098
-6.56071
-6.25775
-5.9535
-5.64939
-5.34684
-5.04728
-4.75206
-4.4625
-4.17979
-3.90502
-3.63916
-3.38303
-3.1373
-2.90252
-2.67905
-2.46714
-2.26691
-2.07836
-1.90137
-1.73573
-1.58113
-1.43719
-1.30347
-1.17949
-1.06473
-0.958657
-0.860737
-0.770437
-0.687234
-0.61062
-0.540116
-0.47525
-0.415616
-0.36073
-0.310365
-0.263764
-0.221398
-0.180979
-0.146281
-0.107626
-0.0845517
-0.0330279
-0.047238
-10.4073
-10.4221
-10.5093
-10.6106
-10.6673
-10.696
-10.7149
-10.725
-10.7282
-10.7313
-10.7396
-10.756
-10.7822
-10.8184
-10.8641
-10.9178
-10.9774
-11.0402
-11.1037
-11.1654
-11.223
-11.2747
-11.319
-11.3549
-11.3818
-11.3992
-11.4068
-11.4046
-11.3925
-11.3706
-11.3389
-11.2973
-11.2459
-11.1847
-11.1134
-11.0321
-10.9406
-10.8387
-10.7262
-10.6029
-10.4686
-10.3232
-10.1665
-9.99828
-9.81853
-9.62718
-9.42429
-9.20997
-8.98446
-8.74808
-8.50129
-8.24463
-7.97881
-7.70464
-7.42303
-7.13505
-6.84183
-6.54461
-6.24471
-5.94347
-5.64231
-5.34262
-5.04578
-4.75313
-4.46595
-4.18541
-3.9126
-3.64847
-3.39383
-3.14936
-2.9156
-2.69294
-2.48162
-2.28179
-2.09345
-1.9165
-1.75075
-1.59591
-1.45161
-1.31744
-1.19292
-1.07756
-0.970845
-0.872244
-0.781236
-0.697309
-0.619962
-0.548721
-0.483117
-0.422747
-0.367125
-0.316031
-0.268687
-0.225616
-0.184401
-0.149145
-0.109393
-0.086692
-0.032182
-0.0521564
-10.4113
-10.4359
-10.5039
-10.5976
-10.6611
-10.6908
-10.7053
-10.712
-10.7143
-10.7177
-10.7268
-10.7441
-10.7705
-10.8059
-10.8494
-10.8995
-10.9542
-11.0113
-11.0688
-11.1246
-11.1769
-11.2242
-11.2651
-11.2986
-11.3238
-11.3402
-11.3473
-11.345
-11.333
-11.3113
-11.28
-11.2388
-11.1879
-11.1271
-11.0563
-10.9756
-10.8846
-10.7832
-10.6714
-10.5488
-10.4154
-10.2709
-10.1153
-9.94824
-9.76981
-9.57996
-9.37873
-9.16626
-8.94277
-8.7086
-8.46419
-8.21009
-7.94698
-7.67565
-7.39702
-7.11209
-6.82199
-6.52792
-6.23117
-5.93305
-5.63494
-5.33819
-5.04417
-4.75417
-4.46946
-4.19119
-3.92042
-3.6581
-3.40504
-3.16191
-2.92924
-2.70745
-2.49678
-2.29738
-2.10928
-1.9324
-1.76656
-1.61148
-1.46682
-1.33218
-1.20711
-1.09113
-0.98374
-0.884424
-0.792672
-0.707981
-0.629857
-0.557836
-0.491448
-0.430297
-0.373893
-0.322026
-0.273897
-0.230075
-0.188032
-0.152166
-0.111317
-0.0888868
-0.0315191
-0.0568811
-10.4155
-10.4466
-10.5029
-10.5753
-10.6282
-10.6564
-10.6735
-10.6857
-10.6947
-10.7038
-10.7167
-10.7357
-10.7616
-10.7949
-10.8349
-10.8807
-10.9306
-10.983
-11.0359
-11.0873
-11.1357
-11.1793
-11.2169
-11.2475
-11.2702
-11.2845
-11.29
-11.2864
-11.2736
-11.2514
-11.2197
-11.1785
-11.1277
-11.0671
-10.9967
-10.9163
-10.8259
-10.7251
-10.614
-10.4922
-10.3597
-10.2162
-10.0616
-9.89588
-9.71887
-9.53061
-9.33115
-9.12062
-8.89926
-8.66739
-8.42546
-8.17401
-7.9137
-7.64532
-7.36973
-7.08795
-6.80106
-6.51024
-6.21673
-5.92183
-5.62687
-5.33318
-5.04207
-4.75485
-4.47272
-4.19682
-3.92821
-3.66781
-3.41642
-3.17472
-2.94325
-2.7224
-2.51245
-2.31355
-2.12575
-1.94898
-1.78307
-1.62777
-1.48276
-1.34766
-1.22204
-1.10542
-0.997335
-0.897276
-0.804747
-0.719256
-0.640317
-0.567473
-0.500258
-0.438282
-0.381053
-0.328367
-0.27941
-0.234791
-0.191888
-0.155357
-0.113413
-0.0911385
-0.0310633
-0.0613628
-10.4184
-10.4508
-10.4979
-10.5554
-10.6027
-10.6333
-10.6541
-10.6697
-10.6819
-10.6935
-10.7076
-10.7266
-10.7515
-10.7827
-10.8197
-10.8618
-10.9075
-10.9554
-11.0037
-11.0507
-11.0949
-11.1347
-11.169
-11.1967
-11.217
-11.2294
-11.2333
-11.2284
-11.2146
-11.1916
-11.1594
-11.1178
-11.0667
-11.0061
-10.9358
-10.8556
-10.7654
-10.6651
-10.5545
-10.4335
-10.3017
-10.1592
-10.0058
-9.8413
-9.66573
-9.47908
-9.28141
-9.07286
-8.85367
-8.62417
-8.38477
-8.13603
-7.87859
-7.61322
-7.34077
-7.06222
-6.77863
-6.49116
-6.201
-5.90943
-5.61773
-5.32722
-5.03917
-4.75483
-4.47542
-4.20203
-3.93571
-3.67735
-3.42777
-3.18761
-2.95743
-2.73762
-2.52848
-2.33016
-2.14273
-1.96612
-1.80019
-1.64471
-1.49938
-1.36383
-1.23765
-1.1204
-1.0116
-0.910783
-0.817452
-0.73113
-0.651343
-0.577638
-0.509557
-0.446713
-0.388616
-0.335066
-0.285241
-0.239779
-0.195984
-0.158729
-0.115698
-0.0934442
-0.0308466
-0.0655395
-10.4197
-10.4514
-10.4923
-10.5401
-10.5824
-10.613
-10.6351
-10.6524
-10.6669
-10.6807
-10.6965
-10.7161
-10.7405
-10.77
-10.8044
-10.8431
-10.885
-10.9286
-10.9724
-11.0151
-11.0551
-11.091
-11.1218
-11.1465
-11.1641
-11.1743
-11.1763
-11.17
-11.155
-11.131
-11.0981
-11.056
-11.0046
-10.9438
-10.8734
-10.7933
-10.7033
-10.6034
-10.4932
-10.3727
-10.2417
-10.1001
-9.94773
-9.78447
-9.61032
-9.42526
-9.22938
-9.02282
-8.80582
-8.5787
-8.34188
-8.09591
-7.8414
-7.5791
-7.30987
-7.03464
-6.75446
-6.47043
-6.18374
-5.89562
-5.60732
-5.32011
-5.03525
-4.75395
-4.47739
-4.20665
-3.94275
-3.68657
-3.43891
-3.20042
-2.97165
-2.75299
-2.54476
-2.3471
-2.16011
-1.98373
-1.81784
-1.66223
-1.5166
-1.38063
-1.25391
-1.13602
-1.02651
-0.92492
-0.830769
-0.743593
-0.662928
-0.588329
-0.519346
-0.455595
-0.396589
-0.342134
-0.291401
-0.245049
-0.200331
-0.162291
-0.118184
-0.0958028
-0.0308946
-0.0693585
-10.4198
-10.45
-10.4864
-10.5272
-10.5647
-10.5943
-10.6171
-10.6359
-10.6523
-10.6679
-10.6848
-10.7047
-10.7284
-10.7564
-10.7884
-10.824
-10.8622
-10.9018
-10.9416
-10.9801
-11.0161
-11.0483
-11.0756
-11.0972
-11.1121
-11.1198
-11.1199
-11.1118
-11.0953
-11.0702
-11.0363
-10.9935
-10.9415
-10.8803
-10.8097
-10.7295
-10.6396
-10.5399
-10.4301
-10.3101
-10.1798
-10.039
-9.88762
-9.72555
-9.55277
-9.36929
-9.17519
-8.97062
-8.75582
-8.53111
-8.29691
-8.05373
-7.80221
-7.54307
-7.27712
-7.0053
-6.72861
-6.44814
-6.16502
-5.88046
-5.59568
-5.3119
-5.03035
-4.75221
-4.47863
-4.21066
-3.9493
-3.69542
-3.4498
-3.2131
-2.98583
-2.76843
-2.56119
-2.36429
-2.17781
-2.00173
-1.83594
-1.68023
-1.53436
-1.39799
-1.27075
-1.15224
-1.04203
-0.939656
-0.844674
-0.756626
-0.675059
-0.599538
-0.529621
-0.464929
-0.404978
-0.349577
-0.297897
-0.250611
-0.20494
-0.166053
-0.120883
-0.0982144
-0.031227
-0.0727755
-10.4187
-10.4472
-10.48
-10.5156
-10.5492
-10.5774
-10.6005
-10.6202
-10.6377
-10.6546
-10.6723
-10.6923
-10.7153
-10.7417
-10.7715
-10.8042
-10.839
-10.8749
-10.9108
-10.9454
-10.9776
-11.0061
-11.0301
-11.0486
-11.0608
-11.066
-11.0639
-11.054
-11.036
-11.0096
-10.9746
-10.9309
-10.8782
-10.8165
-10.7455
-10.6651
-10.5751
-10.4755
-10.3659
-10.2463
-10.1166
-9.97653
-9.82607
-9.66512
-9.49367
-9.31173
-9.11939
-8.9168
-8.7042
-8.4819
-8.25033
-8.00999
-7.76149
-7.50554
-7.24294
-6.97458
-6.70145
-6.4246
-6.14514
-5.86423
-5.58304
-5.30279
-5.02464
-4.74976
-4.47926
-4.21416
-3.95544
-3.70397
-3.46048
-3.22565
-2.99999
-2.78393
-2.57777
-2.38169
-2.1958
-2.02007
-1.85443
-1.69869
-1.5526
-1.41587
-1.28814
-1.16902
-1.0581
-0.954955
-0.859136
-0.770204
-0.687718
-0.611253
-0.540375
-0.474709
-0.41378
-0.357397
-0.304734
-0.256471
-0.209818
-0.170022
-0.123804
-0.100679
-0.0318586
-0.0757539
-10.4167
-10.4436
-10.4734
-10.505
-10.5353
-10.562
-10.5849
-10.6049
-10.6232
-10.6408
-10.659
-10.6789
-10.7011
-10.7261
-10.7538
-10.7837
-10.8153
-10.8477
-10.8799
-10.9108
-10.9393
-10.9643
-10.985
-11.0004
-11.0099
-11.0127
-11.0084
-10.9967
-10.977
-10.9492
-10.9131
-10.8684
-10.8149
-10.7525
-10.6811
-10.6004
-10.5103
-10.4106
-10.3012
-10.182
-10.0527
-9.91335
-9.76376
-9.60389
-9.43372
-9.25329
-9.06267
-8.86204
-8.65162
-8.43173
-8.20279
-7.96529
-7.71982
-7.46708
-7.20785
-6.94299
-6.67346
-6.40027
-6.12451
-5.84729
-5.56976
-5.29309
-5.01841
-4.74685
-4.47949
-4.21734
-3.96133
-3.71232
-3.47105
-3.23816
-3.01418
-2.79952
-2.5945
-2.39931
-2.21406
-2.03874
-1.8733
-1.71755
-1.57129
-1.43422
-1.30602
-1.18631
-1.07471
-0.970787
-0.874128
-0.784303
-0.700885
-0.623457
-0.551593
-0.484928
-0.42299
-0.36559
-0.311913
-0.262632
-0.214969
-0.174202
-0.126952
-0.103196
-0.0327981
-0.0782658
-10.414
-10.4392
-10.4664
-10.4949
-10.5225
-10.5477
-10.57
-10.59
-10.6086
-10.6266
-10.645
-10.6646
-10.686
-10.7095
-10.7351
-10.7625
-10.7911
-10.8202
-10.8488
-10.8761
-10.9011
-10.9227
-10.9401
-10.9526
-10.9593
-10.9597
-10.9533
-10.9396
-10.9183
-10.8891
-10.8517
-10.806
-10.7517
-10.6886
-10.6167
-10.5356
-10.4453
-10.3456
-10.2363
-10.1174
-9.98861
-9.84989
-9.70114
-9.54233
-9.37342
-9.19447
-9.00556
-8.80687
-8.59862
-8.38113
-8.15481
-7.92014
-7.67771
-7.42818
-7.17232
-6.91097
-6.64504
-6.37554
-6.10349
-5.82999
-5.55615
-5.28309
-5.01191
-4.74371
-4.47954
-4.22037
-3.96713
-3.72064
-3.48163
-3.25073
-3.02848
-2.81528
-2.61144
-2.41718
-2.23261
-2.05775
-1.89254
-1.73683
-1.59042
-1.45304
-1.32439
-1.2041
-1.09181
-0.987124
-0.889624
-0.798901
-0.714538
-0.636131
-0.563263
-0.495574
-0.432601
-0.374154
-0.31943
-0.269093
-0.220396
-0.178596
-0.130332
-0.105767
-0.0340481
-0.0802935
-10.4104
-10.434
-10.4592
-10.4851
-10.5105
-10.5341
-10.5556
-10.5754
-10.594
-10.6121
-10.6303
-10.6494
-10.6699
-10.6919
-10.7156
-10.7405
-10.7662
-10.7922
-10.8175
-10.8414
-10.8629
-10.8813
-10.8955
-10.905
-10.9091
-10.907
-10.8984
-10.8828
-10.8598
-10.8291
-10.7905
-10.7437
-10.6885
-10.6248
-10.5523
-10.4708
-10.3803
-10.2806
-10.1714
-10.0528
-9.92445
-9.78638
-9.63848
-9.4807
-9.31306
-9.13558
-8.94838
-8.75163
-8.54554
-8.33045
-8.10675
-7.87491
-7.6355
-7.38919
-7.1367
-6.87885
-6.61654
-6.35072
-6.08239
-5.81262
-5.54247
-5.27303
-5.00538
-4.74056
-4.4796
-4.22344
-3.97299
-3.72905
-3.49233
-3.26347
-3.04297
-2.83126
-2.62865
-2.43536
-2.2515
-2.07713
-1.91217
-1.75652
-1.60999
-1.47232
-1.34322
-1.22237
-1.10941
-1.00395
-0.905606
-0.813977
-0.72866
-0.64926
-0.57537
-0.506635
-0.442602
-0.38308
-0.327283
-0.275853
-0.226097
-0.183204
-0.133942
-0.108389
-0.035605
-0.0818299
-10.4061
-10.4283
-10.4516
-10.4754
-10.4988
-10.521
-10.5417
-10.561
-10.5793
-10.5971
-10.615
-10.6335
-10.6529
-10.6735
-10.6952
-10.7177
-10.7408
-10.7637
-10.7859
-10.8065
-10.8248
-10.8399
-10.8511
-10.8578
-10.8591
-10.8547
-10.8438
-10.8263
-10.8016
-10.7694
-10.7295
-10.6816
-10.6255
-10.5611
-10.488
-10.4062
-10.3155
-10.2157
-10.1066
-9.98824
-9.86039
-9.72297
-9.57592
-9.41921
-9.25283
-9.07684
-8.89135
-8.69654
-8.49263
-8.27993
-8.05885
-7.82984
-7.59346
-7.35035
-7.10122
-6.84688
-6.58817
-6.32603
-6.06143
-5.79538
-5.52893
-5.26311
-4.99898
-4.73755
-4.47981
-4.22668
-3.97903
-3.73766
-3.50326
-3.27645
-3.05773
-2.84754
-2.64618
-2.45387
-2.27076
-2.09689
-1.93222
-1.77664
-1.62999
-1.49205
-1.36252
-1.24111
-1.12748
-1.02125
-0.92206
-0.829519
-0.743236
-0.662829
-0.5879
-0.5181
-0.452985
-0.392361
-0.335464
-0.282908
-0.232071
-0.188026
-0.137781
-0.111064
-0.0374588
-0.0828784
-10.4011
-10.4219
-10.4436
-10.4656
-10.4873
-10.5082
-10.5279
-10.5465
-10.5644
-10.5818
-10.5991
-10.6168
-10.6352
-10.6542
-10.674
-10.6943
-10.7148
-10.7349
-10.754
-10.7715
-10.7866
-10.7987
-10.807
-10.8108
-10.8095
-10.8026
-10.7897
-10.7701
-10.7437
-10.71
-10.6688
-10.6198
-10.5628
-10.4976
-10.424
-10.3418
-10.2508
-10.151
-10.0421
-9.92396
-9.79658
-9.65983
-9.51364
-9.35799
-9.1929
-9.01841
-8.83465
-8.64178
-8.44005
-8.22976
-8.0113
-7.78512
-7.55177
-7.31186
-7.06609
-6.81524
-6.56013
-6.30166
-6.04077
-5.77844
-5.51567
-5.25348
-4.99286
-4.73482
-4.4803
-4.2302
-3.98537
-3.74657
-3.5145
-3.28975
-3.07283
-2.86417
-2.66407
-2.47278
-2.29042
-2.11707
-1.95269
-1.79721
-1.65046
-1.51224
-1.38229
-1.26032
-1.14602
-1.03902
-0.938977
-0.845515
-0.758256
-0.676828
-0.600843
-0.529958
-0.463739
-0.40199
-0.343967
-0.290253
-0.238312
-0.19306
-0.141845
-0.113792
-0.0395938
-0.0834534
-10.3953
-10.415
-10.4352
-10.4556
-10.4758
-10.4954
-10.5142
-10.5321
-10.5493
-10.5661
-10.5827
-10.5995
-10.6166
-10.6342
-10.6521
-10.6702
-10.6882
-10.7056
-10.7219
-10.7364
-10.7485
-10.7576
-10.763
-10.7641
-10.7603
-10.7511
-10.7359
-10.7145
-10.6863
-10.6511
-10.6086
-10.5585
-10.5006
-10.4346
-10.3604
-10.2778
-10.1866
-10.0867
-9.97788
-9.86009
-9.7332
-9.59712
-9.45181
-9.29725
-9.13344
-8.96047
-8.77845
-8.58754
-8.388
-8.18012
-7.96428
-7.74093
-7.5106
-7.27389
-7.03148
-6.7841
-6.53258
-6.27776
-6.02057
-5.76194
-5.50284
-5.24425
-4.98715
-4.73248
-4.48117
-4.2341
-3.99208
-3.75586
-3.52611
-3.30344
-3.08833
-2.8812
-2.68238
-2.49211
-2.31052
-2.13769
-1.97362
-1.81823
-1.67139
-1.5329
-1.40253
-1.28001
-1.16502
-1.05725
-0.95635
-0.861958
-0.773711
-0.691247
-0.614189
-0.542201
-0.474858
-0.411959
-0.352788
-0.297883
-0.244817
-0.198303
-0.146127
-0.116573
-0.0419896
-0.0835787
-10.3889
-10.4075
-10.4264
-10.4454
-10.4643
-10.4827
-10.5004
-10.5174
-10.5339
-10.5499
-10.5657
-10.5815
-10.5974
-10.6134
-10.6296
-10.6456
-10.6612
-10.676
-10.6895
-10.7012
-10.7105
-10.7167
-10.7194
-10.7178
-10.7115
-10.7
-10.6828
-10.6594
-10.6295
-10.5928
-10.549
-10.4977
-10.4389
-10.3721
-10.2974
-10.2144
-10.1229
-10.023
-9.9143
-9.79682
-9.67042
-9.53504
-9.39062
-9.23715
-9.07466
-8.90322
-8.72294
-8.53401
-8.33666
-8.13119
-7.91797
-7.69745
-7.47014
-7.23662
-6.99754
-6.75363
-6.50567
-6.25449
-6.00097
-5.74602
-5.49057
-5.23557
-4.98196
-4.73065
-4.48253
-4.23847
-3.99925
-3.7656
-3.53818
-3.31757
-3.10427
-2.89869
-2.70115
-2.51189
-2.33107
-2.15877
-1.99501
-1.83972
-1.69278
-1.55403
-1.42324
-1.30016
-1.1845
-1.07594
-0.974173
-0.87884
-0.789592
-0.706078
-0.627931
-0.55482
-0.486333
-0.422261
-0.361918
-0.305794
-0.251581
-0.203752
-0.15062
-0.119408
-0.0446212
-0.0832871
-10.3819
-10.3994
-10.4171
-10.4349
-10.4525
-10.4698
-10.4865
-10.5026
-10.5182
-10.5334
-10.5483
-10.563
-10.5776
-10.5921
-10.6064
-10.6204
-10.6338
-10.6461
-10.657
-10.666
-10.6726
-10.6762
-10.6762
-10.6721
-10.6634
-10.6496
-10.6303
-10.605
-10.5734
-10.5352
-10.4901
-10.4377
-10.3779
-10.3105
-10.2351
-10.1517
-10.0601
-9.96006
-9.85152
-9.73436
-9.60848
-9.4738
-9.33028
-9.17793
-9.01676
-8.84685
-8.66834
-8.48138
-8.28623
-8.08317
-7.87258
-7.65488
-7.43057
-7.20022
-6.96446
-6.724
-6.47958
-6.23201
-5.98213
-5.73083
-5.479
-5.22756
-4.9774
-4.72942
-4.48448
-4.24341
-4.00697
-3.77587
-3.55076
-3.33221
-3.12071
-2.91666
-2.72039
-2.53215
-2.3521
-2.18034
-2.01688
-1.86169
-1.71466
-1.57563
-1.44442
-1.32077
-1.20443
-1.09509
-0.992437
-0.896152
-0.805889
-0.72131
-0.642058
-0.567806
-0.498154
-0.432888
-0.371351
-0.313979
-0.258596
-0.209403
-0.155315
-0.122299
-0.0474604
-0.0826184
-10.3744
-10.3908
-10.4075
-10.4241
-10.4406
-10.4567
-10.4724
-10.4876
-10.5023
-10.5166
-10.5304
-10.544
-10.5573
-10.5703
-10.5829
-10.5949
-10.606
-10.6161
-10.6245
-10.631
-10.6349
-10.6359
-10.6334
-10.6269
-10.6159
-10.5999
-10.5786
-10.5515
-10.5183
-10.4786
-10.4321
-10.3787
-10.318
-10.2498
-10.1738
-10.09
-9.9982
-9.89815
-9.78977
-9.67295
-9.54758
-9.41362
-9.27103
-9.1198
-8.95996
-8.79161
-8.61486
-8.42988
-8.23693
-8.03628
-7.8283
-7.6134
-7.39208
-7.16488
-6.93242
-6.69537
-6.45446
-6.21047
-5.9642
-5.71651
-5.46826
-5.22034
-4.9736
-4.72892
-4.48712
-4.249
-4.01532
-3.78675
-3.56393
-3.34742
-3.1377
-2.93517
-2.74016
-2.55292
-2.37364
-2.2024
-2.03924
-1.88414
-1.73701
-1.59771
-1.46606
-1.34185
-1.22481
-1.11467
-1.01113
-0.913881
-0.822591
-0.736932
-0.656558
-0.581148
-0.510312
-0.44383
-0.381076
-0.32243
-0.265854
-0.215252
-0.1602
-0.12525
-0.0504761
-0.0816177
-10.3663
-10.3818
-10.3974
-10.413
-10.4284
-10.4435
-10.4582
-10.4724
-10.4862
-10.4994
-10.5122
-10.5246
-10.5366
-10.5481
-10.5589
-10.5691
-10.5782
-10.586
-10.5921
-10.5961
-10.5976
-10.5962
-10.5912
-10.5824
-10.5691
-10.5511
-10.5278
-10.4989
-10.4641
-10.423
-10.3753
-10.3208
-10.2592
-10.1902
-10.1138
-10.0296
-9.93755
-9.83749
-9.72928
-9.6128
-9.48798
-9.35475
-9.21309
-9.063
-8.90451
-8.73771
-8.56273
-8.37974
-8.18898
-7.99074
-7.78536
-7.57325
-7.3549
-7.13082
-6.90162
-6.66795
-6.43051
-6.19005
-5.94735
-5.70322
-5.45851
-5.21405
-4.9707
-4.72926
-4.49056
-4.25536
-4.02439
-3.79831
-3.57775
-3.36325
-3.15528
-2.95425
-2.76049
-2.57424
-2.3957
-2.22497
-2.0621
-1.90708
-1.75984
-1.62026
-1.48817
-1.36337
-1.24563
-1.13468
-1.03024
-0.932014
-0.839683
-0.752929
-0.671416
-0.59483
-0.522791
-0.455074
-0.391083
-0.331136
-0.273345
-0.22129
-0.165261
-0.128261
-0.053635
-0.080333
-10.3578
-10.3724
-10.3871
-10.4017
-10.4161
-10.4302
-10.4439
-10.4571
-10.4698
-10.4821
-10.4938
-10.505
-10.5156
-10.5256
-10.5348
-10.5431
-10.5502
-10.5559
-10.5598