/*--------------------------------*- C++ -*----------------------------------*\
| =========                 |                                                 |
| \\      /  F ield         | OpenFOAM: The Open Source CFD Toolbox           |
|  \\    /   O peration     | Version:  4.1                                   |
|   \\  /    A nd           | Web:      www.OpenFOAM.org                      |
|    \\/     M anipulation  |                                                 |
\*---------------------------------------------------------------------------*/
FoamFile
{
    version     2.0;
    format      ascii;
    class       surfaceScalarField;
    location    "1900";
    object      phi;
}
// * * * * * * * * * * * * * * * * * * * * * * * * * * * * * * * * * * * * * //

dimensions      [0 3 -1 0 0 0 0];

internalField   nonuniform List<scalar> 
13452
(
6.28704e-05
-2.60189e-06
6.37403e-05
-8.69978e-07
6.46286e-05
-8.88282e-07
6.4105e-05
5.23571e-07
6.28898e-05
1.21529e-06
6.15445e-05
1.34523e-06
6.02725e-05
1.27202e-06
5.91139e-05
1.1586e-06
5.80686e-05
1.04528e-06
5.71283e-05
9.40334e-07
5.62815e-05
8.46826e-07
5.55161e-05
7.65387e-07
5.48213e-05
6.9479e-07
5.41881e-05
6.33246e-07
5.36088e-05
5.79208e-07
5.30774e-05
5.31478e-07
5.25883e-05
4.89095e-07
5.2137e-05
4.51268e-07
5.17197e-05
4.17351e-07
5.13328e-05
3.86824e-07
5.09736e-05
3.5926e-07
5.06393e-05
3.34308e-07
5.03276e-05
3.11682e-07
5.00364e-05
2.91153e-07
4.97639e-05
2.72546e-07
4.95081e-05
2.55742e-07
4.92674e-05
2.40697e-07
4.904e-05
2.27434e-07
4.88238e-05
2.16237e-07
4.86167e-05
2.07028e-07
4.84153e-05
2.01396e-07
4.8224e-05
1.9139e-07
1.8043e-07
4.80435e-05
6.30682e-05
-3.67972e-06
6.27994e-05
-6.01195e-07
6.21233e-05
-2.12203e-07
6.23359e-05
3.1096e-07
6.27935e-05
7.57661e-07
6.31929e-05
9.45858e-07
6.34611e-05
1.00381e-06
6.36058e-05
1.01394e-06
6.36526e-05
9.98475e-07
6.36273e-05
9.65593e-07
6.35508e-05
9.23368e-07
6.34383e-05
8.77893e-07
6.33008e-05
8.32238e-07
6.31464e-05
7.87696e-07
6.29807e-05
7.44914e-07
6.28079e-05
7.04265e-07
6.26311e-05
6.65902e-07
6.24525e-05
6.29833e-07
6.22739e-05
5.95994e-07
6.20964e-05
5.6429e-07
6.1921e-05
5.34615e-07
6.17485e-05
5.06863e-07
6.15792e-05
4.80931e-07
6.14137e-05
4.56733e-07
6.1252e-05
4.34206e-07
6.10944e-05
4.13314e-07
6.0941e-05
3.9408e-07
6.0792e-05
3.76527e-07
6.06472e-05
3.60954e-07
6.05073e-05
3.46933e-07
6.03724e-05
3.36305e-07
6.02408e-05
3.2302e-07
3.34069e-07
6.00872e-05
6.23306e-05
-2.24888e-06
6.26619e-05
-9.32551e-07
6.281e-05
-3.60284e-07
6.30954e-05
2.5556e-08
6.34245e-05
4.28519e-07
6.37126e-05
6.57852e-07
6.39516e-05
7.64754e-07
6.41451e-05
8.20459e-07
6.42963e-05
8.47228e-07
6.44106e-05
8.51344e-07
6.44939e-05
8.40026e-07
6.45519e-05
8.19885e-07
6.45893e-05
7.94877e-07
6.46099e-05
7.67122e-07
6.46168e-05
7.37977e-07
6.46127e-05
7.0841e-07
6.45995e-05
6.79057e-07
6.4579e-05
6.5031e-07
6.45526e-05
6.22412e-07
6.45214e-05
5.95515e-07
6.44863e-05
5.69711e-07
6.44481e-05
5.45056e-07
6.44075e-05
5.21581e-07
6.43649e-05
4.9931e-07
6.43208e-05
4.78274e-07
6.42756e-05
4.58515e-07
6.42296e-05
4.40121e-07
6.41829e-05
4.23179e-07
6.41359e-05
4.07975e-07
6.40884e-05
3.94395e-07
6.40409e-05
3.8382e-07
6.39895e-05
3.74468e-07
3.79339e-07
6.39442e-05
6.47767e-05
-1.44247e-06
6.47349e-05
-8.90752e-07
6.47849e-05
-4.10329e-07
6.48931e-05
-8.26349e-08
6.5057e-05
2.64674e-07
6.52214e-05
4.93368e-07
6.53726e-05
6.1357e-07
6.55094e-05
6.83642e-07
6.56306e-05
7.26039e-07
6.57357e-05
7.46226e-07
6.58256e-05
7.50138e-07
6.59018e-05
7.43753e-07
6.59657e-05
7.30897e-07
6.60191e-05
7.13754e-07
6.60633e-05
6.93816e-07
6.60995e-05
6.72199e-07
6.61288e-05
6.49693e-07
6.61523e-05
6.26837e-07
6.61707e-05
6.04005e-07
6.61848e-05
5.81462e-07
6.61951e-05
5.59402e-07
6.62022e-05
5.37964e-07
6.62065e-05
5.17255e-07
6.62085e-05
4.97363e-07
6.62084e-05
4.78373e-07
6.62065e-05
4.60376e-07
6.62031e-05
4.4349e-07
6.61985e-05
4.27845e-07
6.61927e-05
4.13695e-07
6.6186e-05
4.01144e-07
6.61787e-05
3.9114e-07
6.61697e-05
3.83472e-07
3.83732e-07
6.61653e-05
6.70079e-05
-9.93575e-07
6.68589e-05
-7.41782e-07
6.68314e-05
-3.8286e-07
6.68578e-05
-1.08998e-07
6.69422e-05
1.80308e-07
6.70457e-05
3.89827e-07
6.71479e-05
5.11349e-07
6.7245e-05
5.86555e-07
6.73357e-05
6.35342e-07
6.74188e-05
6.63101e-07
6.7494e-05
6.74993e-07
6.75615e-05
6.76294e-07
6.76218e-05
6.70547e-07
6.76757e-05
6.59878e-07
6.77237e-05
6.4578e-07
6.77665e-05
6.29388e-07
6.78047e-05
6.11533e-07
6.78387e-05
5.92804e-07
6.78691e-05
5.73626e-07
6.78962e-05
5.54317e-07
6.79205e-05
5.35116e-07
6.79423e-05
5.16205e-07
6.79618e-05
4.97728e-07
6.79794e-05
4.79806e-07
6.79952e-05
4.62551e-07
6.80095e-05
4.46075e-07
6.80225e-05
4.30508e-07
6.80343e-05
4.15986e-07
6.80453e-05
4.02723e-07
6.80556e-05
3.90891e-07
6.80656e-05
3.81078e-07
6.80757e-05
3.73389e-07
3.69839e-07
6.80896e-05
6.90833e-05
-6.92872e-07
6.89333e-05
-5.91801e-07
6.88863e-05
-3.35801e-07
6.88865e-05
-1.09222e-07
6.8934e-05
1.32803e-07
6.90039e-05
3.19986e-07
6.90771e-05
4.38111e-07
6.91489e-05
5.148e-07
6.9218e-05
5.66214e-07
6.92833e-05
5.97753e-07
6.93442e-05
6.14117e-07
6.94005e-05
6.19964e-07
6.94525e-05
6.18549e-07
6.95005e-05
6.11934e-07
6.95447e-05
6.01589e-07
6.95854e-05
5.88636e-07
6.9623e-05
5.73905e-07
6.96578e-05
5.58001e-07
6.96901e-05
5.41373e-07
6.97201e-05
5.24361e-07
6.9748e-05
5.07222e-07
6.9774e-05
4.90161e-07
6.97984e-05
4.73339e-07
6.98213e-05
4.56892e-07
6.98429e-05
4.40941e-07
6.98634e-05
4.25604e-07
6.98829e-05
4.11002e-07
6.99016e-05
3.9726e-07
6.99198e-05
3.8454e-07
6.99377e-05
3.72983e-07
6.99559e-05
3.62891e-07
6.9975e-05
3.54276e-07
3.47574e-07
6.99973e-05
7.11508e-05
-4.77353e-07
7.10202e-05
-4.61194e-07
7.09675e-05
-2.83101e-07
7.09558e-05
-9.75282e-08
7.09831e-05
1.05545e-07
7.10322e-05
2.70856e-07
7.10875e-05
3.82849e-07
7.11435e-05
4.58771e-07
7.11988e-05
5.10902e-07
7.12522e-05
5.44344e-07
7.13029e-05
5.63399e-07
7.13507e-05
5.72164e-07
7.13957e-05
5.73613e-07
7.14379e-05
5.6973e-07
7.14775e-05
5.61957e-07
7.15147e-05
5.5139e-07
7.15498e-05
5.38852e-07
7.15829e-05
5.24952e-07
7.16141e-05
5.10148e-07
7.16436e-05
4.94791e-07
7.16717e-05
4.79149e-07
7.16984e-05
4.63436e-07
7.1724e-05
4.47822e-07
7.17484e-05
4.32447e-07
7.17719e-05
4.17435e-07
7.17946e-05
4.02895e-07
7.18167e-05
3.88934e-07
7.18383e-05
3.75651e-07
7.18597e-05
3.63152e-07
7.18812e-05
3.51512e-07
7.19032e-05
3.40826e-07
7.19265e-05
3.3097e-07
3.21766e-07
7.19523e-05
7.32508e-05
-3.22852e-07
7.31391e-05
-3.49557e-07
7.30844e-05
-2.28376e-07
7.30656e-05
-7.8713e-08
7.30803e-05
9.08845e-08
7.31156e-05
2.35483e-07
7.31589e-05
3.39605e-07
7.32046e-05
4.13081e-07
7.32508e-05
4.64688e-07
7.32962e-05
4.98916e-07
7.334e-05
5.1961e-07
7.33818e-05
5.30345e-07
7.34216e-05
5.33814e-07
7.34594e-05
5.31905e-07
7.34954e-05
5.26017e-07
7.35296e-05
5.17216e-07
7.35621e-05
5.0631e-07
7.35931e-05
4.93909e-07
7.36228e-05
4.80473e-07
7.36512e-05
4.66358e-07
7.36786e-05
4.5184e-07
7.37049e-05
4.37135e-07
7.37303e-05
4.22416e-07
7.37549e-05
4.07825e-07
7.37788e-05
3.9348e-07
7.38023e-05
3.7948e-07
7.38253e-05
3.65912e-07
7.38481e-05
3.52845e-07
7.38709e-05
3.40334e-07
7.3894e-05
3.28389e-07
7.39179e-05
3.16975e-07
7.3943e-05
3.05885e-07
2.94746e-07
7.397e-05
7.5393e-05
-2.13414e-07
7.5299e-05
-2.55563e-07
7.5245e-05
-1.74385e-07
7.52219e-05
-5.55699e-08
7.5228e-05
8.48296e-08
7.52534e-05
2.10034e-07
7.52878e-05
3.05185e-07
7.5326e-05
3.74898e-07
7.53657e-05
4.25008e-07
7.54054e-05
4.5919e-07
7.54443e-05
4.80764e-07
7.54818e-05
4.92807e-07
7.55179e-05
4.97728e-07
7.55525e-05
4.97296e-07
7.55857e-05
4.92847e-07
7.56175e-05
4.85413e-07
7.5648e-05
4.75782e-07
7.56773e-05
4.64554e-07
7.57056e-05
4.52191e-07
7.57329e-05
4.39048e-07
7.57594e-05
4.25405e-07
7.5785e-05
4.1148e-07
7.581e-05
3.97445e-07
7.58344e-05
3.83437e-07
7.58583e-05
3.69569e-07
7.58819e-05
3.55929e-07
7.59052e-05
3.42582e-07
7.59285e-05
3.29571e-07
7.59519e-05
3.1691e-07
7.59757e-05
3.0456e-07
7.60003e-05
2.92417e-07
7.60259e-05
2.80247e-07
2.67657e-07
7.6053e-05
7.75831e-05
-1.36895e-07
7.75059e-05
-1.78403e-07
7.74552e-05
-1.23674e-07
7.74299e-05
-3.02553e-08
7.74298e-05
8.48994e-08
7.74477e-05
1.92157e-07
7.74751e-05
2.7772e-07
7.75074e-05
3.42656e-07
7.75419e-05
3.90447e-07
7.75773e-05
4.2388e-07
7.76123e-05
4.45702e-07
7.76466e-05
4.58516e-07
7.76799e-05
4.64442e-07
7.77121e-05
4.65108e-07
7.77432e-05
4.61772e-07
7.77732e-05
4.55416e-07
7.78021e-05
4.46804e-07
7.78302e-05
4.36522e-07
7.78573e-05
4.25025e-07
7.78837e-05
4.12669e-07
7.79094e-05
3.9973e-07
7.79344e-05
3.86426e-07
7.7959e-05
3.72926e-07
7.7983e-05
3.59364e-07
7.80068e-05
3.45844e-07
7.80302e-05
3.32441e-07
7.80536e-05
3.19206e-07
7.8077e-05
3.06159e-07
7.81007e-05
2.93285e-07
7.81247e-05
2.80518e-07
7.81494e-05
2.67727e-07
7.8175e-05
2.54688e-07
2.41052e-07
7.82016e-05
7.98256e-05
-8.41777e-08
7.9764e-05
-1.16853e-07
7.97186e-05
-7.82271e-08
7.9693e-05
-4.68387e-09
7.96888e-05
8.91507e-08
7.97008e-05
1.80116e-07
7.97226e-05
2.55909e-07
7.97499e-05
3.15356e-07
7.97802e-05
3.60148e-07
7.98119e-05
3.92219e-07
7.98439e-05
4.13738e-07
7.98755e-05
4.26852e-07
7.99066e-05
4.33397e-07
7.99368e-05
4.34838e-07
7.99663e-05
4.32342e-07
7.99948e-05
4.26833e-07
8.00226e-05
4.19037e-07
8.00496e-05
4.09525e-07
8.00759e-05
3.9874e-07
8.01015e-05
3.8703e-07
8.01266e-05
3.74669e-07
8.01512e-05
3.6187e-07
8.01753e-05
3.48801e-07
8.01991e-05
3.35587e-07
8.02226e-05
3.22327e-07
8.02459e-05
3.09084e-07
8.02692e-05
2.95898e-07
8.02926e-05
2.82773e-07
8.03162e-05
2.69678e-07
8.03402e-05
2.56537e-07
8.03647e-05
2.43219e-07
8.03899e-05
2.29528e-07
2.15182e-07
8.04157e-05
8.21247e-05
-4.84503e-08
8.2077e-05
-6.91433e-08
8.20381e-05
-3.92837e-08
8.20139e-05
1.94736e-08
8.20072e-05
9.58579e-08
8.20149e-05
1.72419e-07
8.20321e-05
2.38675e-07
8.20553e-05
2.9223e-07
8.20819e-05
3.3351e-07
8.21104e-05
3.63702e-07
8.21397e-05
3.84433e-07
8.21691e-05
3.97429e-07
8.21983e-05
4.04242e-07
8.2227e-05
4.06169e-07
8.2255e-05
4.0427e-07
8.22825e-05
3.99403e-07
8.23093e-05
3.92252e-07
8.23354e-05
3.83361e-07
8.2361e-05
3.73159e-07
8.2386e-05
3.61984e-07
8.24106e-05
3.50102e-07
8.24348e-05
3.37721e-07
8.24586e-05
3.25003e-07
8.24821e-05
3.12071e-07
8.25054e-05
2.99011e-07
8.25286e-05
2.85884e-07
8.25518e-05
2.72717e-07
8.2575e-05
2.59508e-07
8.25985e-05
2.46221e-07
8.26222e-05
2.3278e-07
8.26464e-05
2.19069e-07
8.2671e-05
2.04929e-07
1.90142e-07
8.2696e-05
8.4484e-05
-2.46534e-08
8.4448e-05
-3.32042e-08
8.44161e-05
-7.33154e-09
8.43946e-05
4.09259e-08
8.4387e-05
1.03495e-07
8.43917e-05
1.67702e-07
8.44054e-05
2.2502e-07
8.4425e-05
2.72588e-07
8.44485e-05
3.10026e-07
8.44743e-05
3.37937e-07
8.45012e-05
3.57472e-07
8.45287e-05
3.69978e-07
8.45562e-05
3.76743e-07
8.45834e-05
3.7889e-07
8.46104e-05
3.77367e-07
8.46368e-05
3.72957e-07
8.46628e-05
3.66295e-07
8.46882e-05
3.57895e-07
8.47132e-05
3.48164e-07
8.47378e-05
3.37429e-07
8.47619e-05
3.25944e-07
8.47857e-05
3.13912e-07
8.48093e-05
3.01487e-07
8.48325e-05
2.88786e-07
8.48557e-05
2.75891e-07
8.48787e-05
2.62856e-07
8.49017e-05
2.49704e-07
8.49248e-05
2.3643e-07
8.4948e-05
2.22999e-07
8.49714e-05
2.09346e-07
8.49951e-05
1.95375e-07
8.50191e-05
1.80964e-07
1.65952e-07
8.50433e-05
8.69066e-05
-9.09158e-09
8.68803e-05
-6.91232e-09
8.68552e-05
1.77778e-08
8.68373e-05
5.88553e-08
8.683e-05
1.10812e-07
8.68329e-05
1.64737e-07
8.6844e-05
2.1399e-07
8.68608e-05
2.55749e-07
8.68816e-05
2.89213e-07
8.6905e-05
3.14568e-07
8.69299e-05
3.32586e-07
8.69555e-05
3.44291e-07
8.69816e-05
3.50729e-07
8.70076e-05
3.52855e-07
8.70335e-05
3.51503e-07
8.7059e-05
3.47378e-07
8.70843e-05
3.41063e-07
8.71091e-05
3.33034e-07
8.71336e-05
3.23675e-07
8.71578e-05
3.13295e-07
8.71816e-05
3.02139e-07
8.72051e-05
2.90398e-07
8.72283e-05
2.78221e-07
8.72514e-05
2.65718e-07
8.72743e-05
2.52967e-07
8.72972e-05
2.40019e-07
8.732e-05
2.26893e-07
8.73428e-05
2.13588e-07
8.73657e-05
2.00074e-07
8.73888e-05
1.86299e-07
8.7412e-05
1.7219e-07
8.74353e-05
1.57659e-07
1.42593e-07
8.74586e-05
8.93956e-05
8.74782e-10
8.93769e-05
1.17269e-08
8.93581e-05
3.66425e-08
8.9344e-05
7.29159e-08
8.93379e-05
1.16899e-07
8.93402e-05
1.62487e-07
8.93495e-05
2.04701e-07
8.93642e-05
2.41047e-07
8.93828e-05
2.70582e-07
8.94041e-05
2.93243e-07
8.94272e-05
3.09519e-07
8.94513e-05
3.20175e-07
8.9476e-05
3.26049e-07
8.95009e-05
3.27943e-07
8.95258e-05
3.26579e-07
8.95506e-05
3.22583e-07
8.95752e-05
3.16483e-07
8.95995e-05
3.08716e-07
8.96235e-05
2.99639e-07
8.96473e-05
2.89541e-07
8.96708e-05
2.78653e-07
8.9694e-05
2.67157e-07
8.97171e-05
2.55193e-07
8.97399e-05
2.42866e-07
8.97626e-05
2.3025e-07
8.97853e-05
2.17393e-07
8.98078e-05
2.04317e-07
8.98304e-05
1.91023e-07
8.9853e-05
1.77489e-07
8.98756e-05
1.6368e-07
8.98982e-05
1.49544e-07
8.99209e-05
1.35021e-07
1.20035e-07
8.99434e-05
9.19536e-05
7.09177e-09
9.19409e-05
2.44685e-08
9.19274e-05
5.01164e-08
9.19172e-05
8.31583e-08
9.19129e-05
1.2121e-07
9.19152e-05
1.6016e-07
9.19235e-05
1.9639e-07
9.19367e-05
2.27855e-07
9.19536e-05
2.53652e-07
9.19733e-05
2.73601e-07
9.19948e-05
2.88007e-07
9.20175e-05
2.97438e-07
9.2041e-05
3.02561e-07
9.20649e-05
3.04045e-07
9.2089e-05
3.02509e-07
9.21131e-05
2.98503e-07
9.2137e-05
2.925e-07
9.21609e-05
2.84896e-07
9.21845e-05
2.7602e-07
9.22079e-05
2.66138e-07
9.22311e-05
2.55467e-07
9.2254e-05
2.44177e-07
9.22768e-05
2.324e-07
9.22995e-05
2.20236e-07
9.2322e-05
2.07755e-07
9.23444e-05
1.95004e-07
9.23667e-05
1.82007e-07
9.23889e-05
1.6877e-07
9.24111e-05
1.55282e-07
9.24333e-05
1.4152e-07
9.24554e-05
1.27452e-07
9.24774e-05
1.13042e-07
9.82416e-08
9.24991e-05
9.45834e-05
1.08275e-08
9.45751e-05
3.27828e-08
9.45661e-05
5.91479e-08
9.45593e-05
8.99168e-08
9.4557e-05
1.23526e-07
9.45599e-05
1.57229e-07
9.45679e-05
1.88459e-07
9.45801e-05
2.15631e-07
9.45958e-05
2.37977e-07
9.46141e-05
2.55297e-07
9.46343e-05
2.67789e-07
9.46558e-05
2.75886e-07
9.46783e-05
2.80122e-07
9.47013e-05
2.81054e-07
9.47246e-05
2.79214e-07
9.4748e-05
2.75079e-07
9.47714e-05
2.6907e-07
9.47948e-05
2.61542e-07
9.4818e-05
2.52795e-07
9.48411e-05
2.43073e-07
9.4864e-05
2.32575e-07
9.48867e-05
2.2146e-07
9.49092e-05
2.09852e-07
9.49316e-05
1.97844e-07
9.49539e-05
1.85504e-07
9.4976e-05
1.72879e-07
9.4998e-05
1.59994e-07
9.50199e-05
1.46862e-07
9.50417e-05
1.3348e-07
9.50634e-05
1.1984e-07
9.50849e-05
1.05923e-07
9.51063e-05
9.17127e-08
7.71817e-08
9.51273e-05
9.72874e-05
1.2941e-08
9.72823e-05
3.78566e-08
9.72768e-05
6.46685e-08
9.7273e-05
9.36963e-08
9.72727e-05
1.23895e-07
9.72765e-05
1.53427e-07
9.72844e-05
1.80504e-07
9.72961e-05
2.03952e-07
9.73109e-05
2.23178e-07
9.73282e-05
2.38016e-07
9.73473e-05
2.48619e-07
9.73679e-05
2.5533e-07
9.73894e-05
2.5859e-07
9.74116e-05
2.58868e-07
9.74342e-05
2.56618e-07
9.7457e-05
2.52256e-07
9.748e-05
2.46153e-07
9.75029e-05
2.38627e-07
9.75257e-05
2.29947e-07
9.75485e-05
2.20336e-07
9.75711e-05
2.09975e-07
9.75935e-05
1.99012e-07
9.76158e-05
1.8756e-07
9.76379e-05
1.75708e-07
9.76599e-05
1.63521e-07
9.76818e-05
1.51044e-07
9.77034e-05
1.38307e-07
9.7725e-05
1.25327e-07
9.77463e-05
1.1211e-07
9.77675e-05
9.86557e-08
9.77885e-05
8.49615e-08
9.78092e-05
7.10225e-08
5.6827e-08
9.78295e-05
0.000100068
1.40092e-08
0.000100065
4.06238e-08
0.000100062
6.7529e-08
0.000100061
9.50795e-08
0.000100062
1.22551e-07
0.000100067
1.48704e-07
0.000100075
1.72311e-07
0.000100087
1.9254e-07
0.000100101
2.08971e-07
0.000100117
2.21506e-07
0.000100136
2.30286e-07
0.000100155
2.35606e-07
0.000100176
2.37841e-07
0.000100198
2.37393e-07
0.00010022
2.34653e-07
0.000100242
2.29986e-07
0.000100264
2.23719e-07
0.000100287
2.16132e-07
0.000100309
2.07468e-07
0.000100332
1.97928e-07
0.000100354
1.87676e-07
0.000100376
1.76845e-07
0.000100398
1.65543e-07
0.00010042
1.53851e-07
0.000100442
1.41831e-07
0.000100463
1.29528e-07
0.000100485
1.16975e-07
0.000100506
1.0419e-07
0.000100527
9.11898e-08
0.000100547
7.79806e-08
0.000100568
6.45693e-08
0.000100588
5.09606e-08
3.71543e-08
0.000100607
0.000102928
1.44193e-08
0.000102926
4.18086e-08
0.000102926
6.84744e-08
0.000102926
9.46638e-08
0.000102929
1.19848e-07
0.000102934
1.43182e-07
0.000102943
1.63839e-07
0.000102954
1.81263e-07
0.000102968
1.95189e-07
0.000102984
2.05596e-07
0.000103001
2.12638e-07
0.00010302
2.16587e-07
0.00010304
2.17775e-07
0.000103061
2.16553e-07
0.000103083
2.13267e-07
0.000103104
2.08235e-07
0.000103126
2.01745e-07
0.000103148
1.94048e-07
0.00010317
1.85358e-07
0.000103193
1.75855e-07
0.000103215
1.65688e-07
0.000103236
1.54978e-07
0.000103258
1.43822e-07
0.00010328
1.32297e-07
0.000103301
1.2046e-07
0.000103322
1.08357e-07
0.000103343
9.60204e-08
0.000103364
8.34742e-08
0.000103384
7.0737e-08
0.000103405
5.78232e-08
0.000103424
4.47458e-08
0.000103444
3.15168e-08
1.81427e-08
0.000103463
0.000105869
1.44346e-08
0.000105869
4.19729e-08
0.000105869
6.81445e-08
0.000105871
9.30264e-08
0.000105874
1.16206e-07
0.00010588
1.37107e-07
0.000105889
1.55194e-07
0.0001059
1.70126e-07
0.000105913
1.81781e-07
0.000105929
1.9021e-07
0.000105946
1.95596e-07
0.000105964
1.98202e-07
0.000105984
1.98334e-07
0.000106004
1.96308e-07
0.000106025
1.92431e-07
0.000106046
1.86986e-07
0.000106068
1.80227e-07
0.000106089
1.72376e-07
0.000106111
1.63624e-07
0.000106133
1.54131e-07
0.000106154
1.44031e-07
0.000106176
1.33431e-07
0.000106197
1.22421e-07
0.000106218
1.1107e-07
0.00010624
9.94337e-08
0.00010626
8.75546e-08
0.000106281
7.5466e-08
0.000106301
6.31949e-08
0.000106321
5.07622e-08
0.000106341
3.81874e-08
0.00010636
2.54871e-08
0.000106379
1.26785e-08
-2.28438e-10
0.000106397
0.000108894
1.42402e-08
0.000108894
4.1562e-08
0.000108895
6.7093e-08
0.000108897
9.07149e-08
0.000108901
1.12084e-07
0.000108908
1.30816e-07
0.000108916
1.46594e-07
0.000108927
1.5926e-07
0.00010894
1.68812e-07
0.000108955
1.75376e-07
0.000108971
1.79165e-07
0.000108989
1.80448e-07
0.000109008
1.79515e-07
0.000109028
1.76656e-07
0.000109048
1.7215e-07
0.000109069
1.66249e-07
0.00010909
1.59178e-07
0.000109111
1.51135e-07
0.000109132
1.42288e-07
0.000109154
1.3278e-07
0.000109175
1.22728e-07
0.000109196
1.12229e-07
0.000109217
1.01364e-07
0.000109238
9.01942e-08
0.000109259
7.87723e-08
0.000109279
6.71384e-08
0.000109299
5.53258e-08
0.000109319
4.33614e-08
0.000109339
3.1269e-08
0.000109358
1.90694e-08
0.000109377
6.78285e-09
0.000109395
-5.57234e-09
-1.79833e-08
0.000109413
0.000112005
1.39758e-08
0.000112005
4.09472e-08
0.000112007
6.58164e-08
0.000112009
8.8258e-08
0.000112013
1.07969e-07
0.000112019
1.24714e-07
0.000112028
1.3836e-07
0.000112038
1.48903e-07
0.00011205
1.56456e-07
0.000112064
1.61216e-07
0.00011208
1.63436e-07
0.000112097
1.63394e-07
0.000112115
1.61373e-07
0.000112134
1.57645e-07
0.000112154
1.52465e-07
0.000112174
1.46061e-07
0.000112195
1.38634e-07
0.000112216
1.30358e-07
0.000112236
1.21381e-07
0.000112257
1.11829e-07
0.000112278
1.01805e-07
0.000112299
9.13956e-08
0.00011232
8.06701e-08
0.00011234
6.96858e-08
0.000112361
5.8489e-08
0.000112381
4.71176e-08
0.0001124
3.5603e-08
0.00011242
2.39721e-08
0.000112439
1.22488e-08
0.000112457
4.54887e-10
0.000112476
-1.13889e-08
0.000112493
-2.32632e-08
-3.51548e-08
0.00011251
0.000115205
1.37597e-08
0.000115205
4.04673e-08
0.000115206
6.4794e-08
0.000115208
8.61926e-08
0.000115212
1.04388e-07
0.000115217
1.1928e-07
0.000115225
1.30899e-07
0.000115234
1.39392e-07
0.000115246
1.44985e-07
0.000115259
1.47952e-07
0.000115274
1.48586e-07
0.00011529
1.47183e-07
0.000115307
1.44023e-07
0.000115326
1.39369e-07
0.000115345
1.33455e-07
0.000115364
1.26488e-07
0.000115384
1.18648e-07
0.000115404
1.10088e-07
0.000115425
1.00938e-07
0.000115445
9.13072e-08
0.000115466
8.12849e-08
0.000115486
7.09458e-08
0.000115507
6.03505e-08
0.000115527
4.9549e-08
0.000115547
3.85821e-08
0.000115566
2.74841e-08
0.000115586
1.62838e-08
0.000115605
5.0066e-09
0.000115623
-6.32491e-09
0.000115641
-1.76892e-08
0.000115659
-2.90666e-08
0.000115676
-4.0438e-08
-5.17914e-08
0.000115693
0.000118496
1.37089e-08
0.000118496
4.04729e-08
0.000118496
6.45378e-08
0.000118497
8.51092e-08
0.0001185
1.01943e-07
0.000118504
1.1508e-07
0.00011851
1.2472e-07
0.000118518
1.31169e-07
0.000118529
1.34775e-07
0.000118541
1.35894e-07
0.000118554
1.3487e-07
0.000118569
1.32022e-07
0.000118586
1.27634e-07
0.000118603
1.21962e-07
0.000118621
1.15225e-07
0.00011864
1.07612e-07
0.00011866
9.92819e-08
0.000118679
9.03705e-08
0.000118699
8.09896e-08
0.000118719
7.12316e-08
0.00011874
6.1173e-08
0.00011876
5.08761e-08
0.00011878
4.03923e-08
0.000118799
2.97631e-08
0.000118819
1.90239e-08
0.000118838
8.20329e-09
0.000118857
-2.67285e-09
0.000118876
-1.35828e-08
0.000118894
-2.45055e-08
0.000118912
-3.54222e-08
0.000118929
-4.63141e-08
0.000118946
-5.71651e-08
-6.79638e-08
0.000118962
0.000121881
1.39611e-08
0.00012188
4.13807e-08
0.000121879
6.5661e-08
0.000121878
8.57185e-08
0.000121879
1.01364e-07
0.000121881
1.12811e-07
0.000121886
1.20458e-07
0.000121892
1.24791e-07
0.0001219
1.263e-07
0.000121911
1.25439e-07
0.000121923
1.22612e-07
0.000121937
1.1817e-07
0.000121952
1.12408e-07
0.000121969
1.05577e-07
0.000121986
9.7886e-08
0.000122004
8.95071e-08
0.000122023
8.0582e-08
0.000122042
7.1227e-08
0.000122061
6.15362e-08
0.000122081
5.15863e-08
0.000122101
4.14389e-08
0.00012212
3.11442e-08
0.00012214
2.07424e-08
0.00012216
1.02669e-08
0.000122179
-2.55312e-10
0.000122198
-1.08007e-08
0.000122217
-2.13496e-08
0.000122235
-3.18834e-08
0.000122253
-4.23856e-08
0.00012227
-5.28399e-08
0.000122287
-6.32315e-08
0.000122303
-7.35461e-08
-8.37757e-08
0.000122319
0.000125363
1.47036e-08
0.00012536
4.37523e-08
0.000125357
6.89771e-08
0.000125354
8.89491e-08
0.000125352
1.03593e-07
0.000125351
1.13364e-07
0.000125353
1.18912e-07
0.000125356
1.20948e-07
0.000125363
1.20137e-07
0.000125371
1.17055e-07
0.000125381
1.1218e-07
0.000125394
1.05904e-07
0.000125408
9.85432e-08
0.000125423
9.03475e-08
0.000125439
8.15166e-08
0.000125456
7.22075e-08
0.000125474
6.25438e-08
0.000125493
5.26223e-08
0.000125512
4.25187e-08
0.000125531
3.22919e-08
0.000125551
2.19879e-08
0.00012557
1.16426e-08
0.00012559
1.28424e-09
0.000125609
-9.06476e-09
0.000125628
-1.9386e-08
0.000125647
-2.96642e-08
0.000125666
-3.98857e-08
0.000125684
-5.00383e-08
0.000125702
-6.01099e-08
0.000125719
-7.00893e-08
0.000125736
-7.99654e-08
0.000125752
-8.97282e-08
-9.93726e-08
0.000125767
0.000128944
1.62232e-08
0.000128939
4.84206e-08
0.000128932
7.56539e-08
0.000128925
9.60928e-08
0.000128919
1.09906e-07
0.000128914
1.17906e-07
0.000128912
1.21092e-07
0.000128913
1.20477e-07
0.000128916
1.16952e-07
0.000128922
1.11246e-07
0.00012893
1.03935e-07
0.00012894
9.54666e-08
0.000128953
8.61791e-08
0.000128967
7.6328e-08
0.000128982
6.61035e-08
0.000128999
5.56458e-08
0.000129016
4.50582e-08
0.000129034
3.44154e-08
0.000129053
2.37717e-08
0.000129072
1.31653e-08
0.000129091
2.62396e-09
0.000129111
-7.83352e-09
0.00012913
-1.81934e-08
0.00012915
-2.84463e-08
0.000129169
-3.8585e-08
0.000129188
-4.8604e-08
0.000129207
-5.84981e-08
0.000129225
-6.82624e-08
0.000129243
-7.78917e-08
0.00012926
-8.73805e-08
0.000129277
-9.67229e-08
0.000129293
-1.05914e-07
-1.14953e-07
0.000129308
0.000132626
1.89979e-08
0.000132618
5.67096e-08
0.000132606
8.74592e-08
0.000132593
1.09019e-07
0.000132581
1.22064e-07
0.000132571
1.27972e-07
0.000132564
1.28251e-07
0.00013256
1.24342e-07
0.00013256
1.17441e-07
0.000132562
1.08475e-07
0.000132568
9.81442e-08
0.000132577
8.69614e-08
0.000132587
7.52941e-08
0.0001326
6.33997e-08
0.000132615
5.14542e-08
0.000132631
3.95759e-08
0.000132648
2.78406e-08
0.000132666
1.62958e-08
0.000132685
4.96762e-09
0.000132705
-6.13014e-09
0.000132724
-1.69941e-08
0.000132744
-2.76252e-08
0.000132764
-3.80291e-08
0.000132784
-4.82115e-08
0.000132803
-5.81801e-08
0.000132823
-6.79408e-08
0.000132842
-7.74998e-08
0.00013286
-8.6861e-08
0.000132878
-9.60278e-08
0.000132896
-1.05002e-07
0.000132913
-1.13784e-07
0.000132929
-1.22374e-07
-1.30778e-07
0.000132945
0.000136413
2.38823e-08
0.000136399
7.08314e-08
0.00013638
1.07161e-07
0.000136358
1.30483e-07
0.000136338
1.42507e-07
0.00013632
1.45531e-07
0.000136307
1.41852e-07
0.000136297
1.33535e-07
0.000136293
1.22192e-07
0.000136292
1.09002e-07
0.000136295
9.48106e-08
0.000136302
8.02018e-08
0.000136312
6.55631e-08
0.000136324
5.1141e-08
0.000136338
3.70838e-08
0.000136355
2.3473e-08
0.000136372
1.03455e-08
0.000136391
-2.29069e-09
0.00013641
-1.44455e-08
0.00013643
-2.61395e-08
0.000136451
-3.73984e-08
0.000136471
-4.82505e-08
0.000136492
-5.87235e-08
0.000136512
-6.88443e-08
0.000136533
-7.86368e-08
0.000136553
-8.81229e-08
0.000136573
-9.73212e-08
0.000136592
-1.06247e-07
0.000136611
-1.14915e-07
0.00013663
-1.23333e-07
0.000136647
-1.31512e-07
0.000136664
-1.39458e-07
-1.47182e-07
0.000136681
0.000140307
3.24958e-08
0.000140283
9.46211e-08
0.000140251
1.39165e-07
0.000140217
1.64531e-07
0.000140185
1.74514e-07
0.000140158
1.72945e-07
0.000140136
1.63381e-07
0.000140121
1.48814e-07
0.000140112
1.31399e-07
0.000140108
1.12605e-07
0.00014011
9.34237e-08
0.000140115
7.44856e-08
0.000140125
5.61662e-08
0.000140137
3.86673e-08
0.000140152
2.20796e-08
0.000140169
6.42222e-09
0.000140188
-8.32787e-09
0.000140208
-2.22194e-08
0.000140229
-3.53122e-08
0.00014025
-4.76717e-08
0.000140272
-5.93621e-08
0.000140294
-7.04451e-08
0.000140317
-8.0977e-08
0.000140339
-9.10095e-08
0.000140361
-1.00587e-07
0.000140382
-1.0975e-07
0.000140404
-1.18533e-07
0.000140424
-1.26964e-07
0.000140445
-1.35068e-07
0.000140464
-1.42866e-07
0.000140483
-1.50375e-07
0.000140501
-1.5761e-07
-1.64588e-07
0.000140518
0.000144309
4.8088e-08
0.000144269
1.34887e-07
0.000144217
1.90469e-07
0.000144165
2.16929e-07
0.000144117
2.22179e-07
0.000144078
2.12623e-07
0.000144047
1.93854e-07
0.000144026
1.7018e-07
0.000144013
1.44376e-07
0.000144007
1.18165e-07
0.000144008
9.26111e-08
0.000144014
6.83159e-08
0.000144025
4.55647e-08
0.000144039
2.44512e-08
0.000144056
4.95657e-09
0.000144076
-1.30003e-08
0.000144097
-2.9534e-08
0.000144119
-4.47711e-08
0.000144143
-5.88402e-08
0.000144167
-7.18632e-08
0.000144192
-8.39536e-08
0.000144216
-9.52135e-08
0.000144241
-1.05734e-07
0.000144266
-1.15596e-07
0.00014429
-1.24868e-07
0.000144314
-1.33612e-07
0.000144337
-1.41879e-07
0.00014436
-1.49712e-07
0.000144382
-1.57151e-07
0.000144404
-1.64227e-07
0.000144424
-1.70966e-07
0.000144444
-1.77393e-07
-1.83531e-07
0.000144463
0.000148418
7.75953e-08
0.000148349
2.03839e-07
0.000148268
2.71872e-07
0.00014819
2.95305e-07
0.000148122
2.89848e-07
0.000148069
2.66103e-07
0.00014803
2.32842e-07
0.000148004
1.96025e-07
0.000147989
1.58875e-07
0.000147984
1.2313e-07
0.000147987
8.97338e-08
0.000147996
5.90887e-08
0.000148011
3.12572e-08
0.000148029
6.12435e-09
0.00014805
-1.65074e-08
0.000148074
-3.68711e-08
0.0001481
-5.52073e-08
0.000148127
-7.17477e-08
0.000148155
-8.67066e-08
0.000148183
-1.00277e-07
0.000148212
-1.12631e-07
0.000148241
-1.23917e-07
0.000148269
-1.34268e-07
0.000148297
-1.43796e-07
0.000148325
-1.52597e-07
0.000148352
-1.60756e-07
0.000148379
-1.68344e-07
0.000148404
-1.75421e-07
0.000148429
-1.82038e-07
0.000148453
-1.8824e-07
0.000148476
-1.94063e-07
0.000148499
-1.9954e-07
-2.04701e-07
0.00014852
0.000152631
1.36093e-07
0.000152511
3.23599e-07
0.000152383
3.99258e-07
0.00015227
4.08291e-07
0.00015218
3.80324e-07
0.000152114
3.32122e-07
0.00015207
2.76873e-07
0.000152044
2.21948e-07
0.000152033
1.70234e-07
0.000152033
1.22903e-07
0.000152042
8.04178e-08
0.000152059
4.27189e-08
0.00015208
9.45886e-09
0.000152106
-1.98089e-08
0.000152135
-4.55401e-08
0.000152167
-6.81718e-08
0.0001522
-8.81065e-08
0.000152234
-1.05705e-07
0.000152268
-1.21285e-07
0.000152303
-1.3512e-07
0.000152338
-1.47448e-07
0.000152372
-1.58473e-07
0.000152406
-1.68368e-07
0.00015244
-1.77283e-07
0.000152473
-1.85342e-07
0.000152505
-1.92654e-07
0.000152536
-1.9931e-07
0.000152565
-2.05386e-07
0.000152594
-2.10948e-07
0.000152622
-2.16052e-07
0.000152649
-2.20745e-07
0.000152674
-2.25068e-07
-2.29058e-07
0.000152699
0.000156933
2.54127e-07
0.000156722
5.34906e-07
0.000156526
5.95147e-07
0.000156371
5.63224e-07
0.00015626
4.91384e-07
0.000156189
4.03431e-07
0.000156149
3.17075e-07
0.000156132
2.39095e-07
0.000156132
1.70121e-07
0.000156145
1.09798e-07
0.000156168
5.76396e-08
0.000156197
1.28038e-08
0.000156233
-2.5681e-08
0.000156272
-5.87129e-08
0.000156313
-8.70758e-08
0.000156356
-1.11453e-07
0.000156401
-1.32438e-07
0.000156446
-1.50538e-07
0.00015649
-1.66187e-07
0.000156535
-1.79747e-07
0.000156579
-1.91528e-07
0.000156622
-2.01788e-07
0.000156665
-2.10746e-07
0.000156706
-2.18588e-07
0.000156746
-2.25467e-07
0.000156785
-2.31516e-07
0.000156823
-2.36844e-07
0.000156859
-2.41545e-07
0.000156894
-2.45699e-07
0.000156927
-2.4937e-07
0.000156959
-2.52618e-07
0.000156989
-2.5549e-07
-2.58034e-07
0.000157018
0.00016129
5.0225e-07
0.000160918
9.06969e-07
0.00016063
8.8362e-07
0.000160432
7.60806e-07
0.000160312
6.1113e-07
0.000160253
4.6299e-07
0.000160234
3.3638e-07
0.000160241
2.31819e-07
0.000160267
1.44196e-07
0.000160306
7.05844e-08
0.000160354
9.18185e-09
0.000160409
-4.19477e-08
0.000160468
-8.46088e-08
0.00016053
-1.20261e-07
0.000160593
-1.50069e-07
0.000160656
-1.74999e-07
0.00016072
-1.95862e-07
0.000160782
-2.13331e-07
0.000160844
-2.27962e-07
0.000160905
-2.40214e-07
0.000160964
-2.50467e-07
0.000161021
-2.5904e-07
0.000161076
-2.66192e-07
0.00016113
-2.72145e-07
0.000161181
-2.77079e-07
0.000161231
-2.81146e-07
0.000161279
-2.84472e-07
0.000161324
-2.87165e-07
0.000161368
-2.89312e-07
0.00016141
-2.90987e-07
0.000161449
-2.92251e-07
0.000161487
-2.93155e-07
-2.93748e-07
0.000161523
0.000165509
1.14674e-06
0.000164895
1.52075e-06
0.000164546
1.23314e-06
0.000164348
9.58446e-07
0.000164265
6.94175e-07
0.000164259
4.69508e-07
0.000164294
3.00637e-07
0.000164355
1.71009e-07
0.000164433
6.63987e-08
0.000164522
-1.86244e-08
0.000164618
-8.71493e-08
0.000164719
-1.42305e-07
0.000164821
-1.86798e-07
0.000164923
-2.22677e-07
0.000165025
-2.5152e-07
0.000165125
-2.74618e-07
0.000165222
-2.93036e-07
0.000165316
-3.0764e-07
0.000165407
-3.19125e-07
0.000165495
-3.28054e-07
0.000165579
-3.34885e-07
0.00016566
-3.39991e-07
0.000165738
-3.43677e-07
0.000165812
-3.4619e-07
0.000165883
-3.47735e-07
0.00016595
-3.48478e-07
0.000166014
-3.48557e-07
0.000166075