/*--------------------------------*- C++ -*----------------------------------*\
| =========                 |                                                 |
| \\      /  F ield         | OpenFOAM: The Open Source CFD Toolbox           |
|  \\    /   O peration     | Version:  4.1                                   |
|   \\  /    A nd           | Web:      www.OpenFOAM.org                      |
|    \\/     M anipulation  |                                                 |
\*---------------------------------------------------------------------------*/
FoamFile
{
    version     2.0;
    format      ascii;
    class       volScalarField;
    location    "200";
    object      p;
}
// * * * * * * * * * * * * * * * * * * * * * * * * * * * * * * * * * * * * * //

dimensions      [0 2 -2 0 0 0 0];

internalField   nonuniform List<scalar> 
26785
(
-1.38091
-1.14574
-1.05172
-1.02817
-0.998505
-0.95216
-0.898655
-0.843614
-0.787292
-0.729864
-0.672722
-0.617702
-0.567107
-0.523699
-0.490176
-0.468399
-0.458064
-0.456616
-0.460672
-0.467042
-0.473311
-0.478357
-0.482076
-0.484226
-0.484346
-0.48252
-0.479257
-0.475155
-0.470718
-0.466296
-0.462078
-0.45811
-0.454312
-0.450499
-0.446391
-0.441671
-0.436091
-0.429399
-0.421281
-0.411826
-0.401788
-0.39182
-0.382174
-0.372999
-0.364452
-0.356688
-0.349839
-0.344002
-0.339226
-0.335514
-0.332829
-0.331101
-0.330233
-0.33011
-0.330607
-0.331589
-0.332924
-0.334477
-0.33612
-0.337731
-0.339193
-0.340399
-0.341251
-0.341659
-0.341543
-0.340833
-0.33947
-0.337402
-0.334589
-0.331
-0.326616
-0.321426
-0.315428
-0.30863
-0.30105
-0.292712
-0.28365
-0.273904
-0.26352
-0.252551
-0.241053
-0.229087
-0.216716
-0.204005
-0.191022
-0.177834
-0.164506
-0.151104
-0.137691
-0.124328
-0.111073
-0.0979811
-0.0851011
-0.0724861
-0.0601621
-0.0482148
-0.0365491
-0.0255566
-0.014286
-0.00570933
-1.37424
-1.14653
-1.05202
-1.02794
-0.998348
-0.952111
-0.898671
-0.843653
-0.787326
-0.729879
-0.672711
-0.617661
-0.567041
-0.523618
-0.490099
-0.468365
-0.458115
-0.45676
-0.460879
-0.467263
-0.473489
-0.478451
-0.482096
-0.484212
-0.484325
-0.482505
-0.479253
-0.475162
-0.470733
-0.466315
-0.4621
-0.458133
-0.454339
-0.450535
-0.446441
-0.441741
-0.436184
-0.429519
-0.421414
-0.411946
-0.401893
-0.391926
-0.382287
-0.373119
-0.364578
-0.356819
-0.349976
-0.344145
-0.339376
-0.335671
-0.332994
-0.331274
-0.330413
-0.330297
-0.330799
-0.331787
-0.333126
-0.334684
-0.336331
-0.337944
-0.339409
-0.340618
-0.341472
-0.341883
-0.341769
-0.341062
-0.3397
-0.337634
-0.334822
-0.331235
-0.326852
-0.321662
-0.315664
-0.308865
-0.301283
-0.292943
-0.283877
-0.274127
-0.263737
-0.252762
-0.241256
-0.229282
-0.216902
-0.204182
-0.191189
-0.177989
-0.16465
-0.151236
-0.137811
-0.124437
-0.11117
-0.0980661
-0.0851744
-0.072548
-0.060213
-0.0482551
-0.0365789
-0.0255768
-0.0142912
-0.00572236
-1.3663
-1.14811
-1.05234
-1.02757
-0.998146
-0.952071
-0.898731
-0.843752
-0.787415
-0.729934
-0.672722
-0.617622
-0.566953
-0.523501
-0.490026
-0.468433
-0.458369
-0.457162
-0.461339
-0.467676
-0.473765
-0.478578
-0.482147
-0.484225
-0.484308
-0.482474
-0.479226
-0.475152
-0.470744
-0.466346
-0.462148
-0.458199
-0.454424
-0.450643
-0.446579
-0.441914
-0.436397
-0.429775
-0.421695
-0.412214
-0.40215
-0.392197
-0.382578
-0.373428
-0.364902
-0.357154
-0.350322
-0.344501
-0.339743
-0.33605
-0.333383
-0.331674
-0.330822
-0.330716
-0.331226
-0.33222
-0.333565
-0.335127
-0.336778
-0.338396
-0.339864
-0.341076
-0.341934
-0.342348
-0.342237
-0.341533
-0.340175
-0.338111
-0.335302
-0.331717
-0.327335
-0.322145
-0.316146
-0.309345
-0.301759
-0.293413
-0.28434
-0.27458
-0.26418
-0.253191
-0.241671
-0.229679
-0.217281
-0.204541
-0.191527
-0.178305
-0.164943
-0.151506
-0.138057
-0.124658
-0.111367
-0.0982394
-0.0853243
-0.0726749
-0.0603175
-0.0483381
-0.0366405
-0.0256195
-0.0143073
-0.00574067
-1.35667
-1.14953
-1.05262
-1.02718
-0.997972
-0.952103
-0.89889
-0.843959
-0.7876
-0.730065
-0.672788
-0.617619
-0.566874
-0.52337
-0.489976
-0.468607
-0.458819
-0.457812
-0.462057
-0.468296
-0.474133
-0.478718
-0.482202
-0.484223
-0.484263
-0.482418
-0.479188
-0.475144
-0.470766
-0.466392
-0.462215
-0.458287
-0.454539
-0.450795
-0.446779
-0.44217
-0.436715
-0.430159
-0.422116
-0.412622
-0.402547
-0.392614
-0.383024
-0.373901
-0.365397
-0.35767
-0.350856
-0.345055
-0.340316
-0.336642
-0.333994
-0.332301
-0.331464
-0.33137
-0.331891
-0.332895
-0.334247
-0.335816
-0.337472
-0.339094
-0.340566
-0.341782
-0.342644
-0.343062
-0.342956
-0.342256
-0.340902
-0.338843
-0.336037
-0.332454
-0.328074
-0.322884
-0.316883
-0.310078
-0.302485
-0.294131
-0.285046
-0.275272
-0.264854
-0.253845
-0.242302
-0.230285
-0.217859
-0.205089
-0.192042
-0.178787
-0.16539
-0.151917
-0.138432
-0.124996
-0.111668
-0.0985046
-0.0855537
-0.0728695
-0.0604782
-0.0484662
-0.0367367
-0.0256864
-0.014341
-0.00575867
-1.34464
-1.15046
-1.05308
-1.02691
-0.997906
-0.952252
-0.899177
-0.844288
-0.787893
-0.730289
-0.672937
-0.617687
-0.566842
-0.523292
-0.490075
-0.469048
-0.459592
-0.458769
-0.463013
-0.469021
-0.474476
-0.478837
-0.482275
-0.484243
-0.484236
-0.482379
-0.479165
-0.475149
-0.470798
-0.466445
-0.462287
-0.458383
-0.454669
-0.450974
-0.447022
-0.442489
-0.43712
-0.430654
-0.422669
-0.413175
-0.403103
-0.393207
-0.383661
-0.374577
-0.366105
-0.358406
-0.351619
-0.345844
-0.34113
-0.33748
-0.334854
-0.333181
-0.332362
-0.332282
-0.332814
-0.333826
-0.335185
-0.336758
-0.338418
-0.340044
-0.34152
-0.342739
-0.343605
-0.344027
-0.343926
-0.343232
-0.341882
-0.339828
-0.337026
-0.333447
-0.329068
-0.323877
-0.317873
-0.311063
-0.303462
-0.295096
-0.285995
-0.276202
-0.265761
-0.254724
-0.24315
-0.231099
-0.218635
-0.205824
-0.192735
-0.179434
-0.16599
-0.152469
-0.138935
-0.125451
-0.112074
-0.0988615
-0.0858629
-0.073132
-0.0606954
-0.0486396
-0.0368679
-0.0257777
-0.0143933
-0.00577484
-1.32789
-1.15023
-1.0538
-1.02688
-0.998025
-0.952564
-0.899596
-0.844724
-0.788275
-0.730591
-0.673158
-0.61781
-0.566829
-0.523278
-0.490355
-0.469786
-0.460685
-0.460007
-0.464149
-0.469763
-0.474761
-0.478981
-0.482403
-0.484309
-0.484247
-0.482372
-0.47917
-0.475173
-0.470838
-0.466498
-0.462353
-0.458469
-0.454792
-0.451152
-0.447276
-0.442835
-0.437574
-0.431224
-0.423318
-0.413841
-0.40379
-0.393948
-0.384462
-0.375431
-0.367004
-0.359345
-0.352594
-0.346855
-0.342175
-0.338557
-0.335961
-0.334312
-0.333513
-0.333449
-0.333993
-0.335013
-0.336378
-0.337955
-0.339618
-0.341246
-0.342725
-0.343948
-0.344817
-0.345244
-0.345148
-0.344459
-0.343116
-0.341067
-0.33827
-0.334694
-0.330317
-0.325126
-0.319119
-0.312301
-0.30469
-0.296308
-0.287188
-0.27737
-0.266899
-0.255829
-0.244216
-0.232121
-0.21961
-0.206748
-0.193605
-0.180248
-0.166745
-0.153164
-0.139569
-0.126023
-0.112584
-0.0993111
-0.0862526
-0.0734632
-0.0609697
-0.0488591
-0.037035
-0.025894
-0.0144648
-0.00579013
-1.30658
-1.14876
-1.05492
-1.02722
-0.998402
-0.953032
-0.900107
-0.84522
-0.7887
-0.730931
-0.67342
-0.617945
-0.566811
-0.523376
-0.490876
-0.470849
-0.462088
-0.461479
-0.465367
-0.470415
-0.474992
-0.479197
-0.482611
-0.484442
-0.484314
-0.482412
-0.479209
-0.475218
-0.470886
-0.466547
-0.462405
-0.458538
-0.454895
-0.451315
-0.447523
-0.443188
-0.438054
-0.431842
-0.424039
-0.414603
-0.404597
-0.394833
-0.385428
-0.376466
-0.368099
-0.36049
-0.353788
-0.348094
-0.343457
-0.339879
-0.337316
-0.335696
-0.334919
-0.334872
-0.335427
-0.336455
-0.337824
-0.339404
-0.341069
-0.342698
-0.344178
-0.345404
-0.346277
-0.346708
-0.346618
-0.345936
-0.344599
-0.342557
-0.339766
-0.336195
-0.33182
-0.326628
-0.320617
-0.313791
-0.306166
-0.297766
-0.288623
-0.278775
-0.268269
-0.257157
-0.245497
-0.233351
-0.220783
-0.20786
-0.194652
-0.181227
-0.167654
-0.154
-0.140332
-0.126711
-0.113199
-0.0998531
-0.0867226
-0.073863
-0.0613013
-0.0491248
-0.037238
-0.0260354
-0.0145549
-0.00580565
-1.28432
-1.14701
-1.05655
-1.02795
-0.99902
-0.953634
-0.900685
-0.845748
-0.789144
-0.731293
-0.6737
-0.618053
-0.56679
-0.523604
-0.49166
-0.472209
-0.463747
-0.463101
-0.466539
-0.470907
-0.475252
-0.47952
-0.482909
-0.484646
-0.484442
-0.482505
-0.479288
-0.47529
-0.470946
-0.466593
-0.462445
-0.458585
-0.454973
-0.451452
-0.447748
-0.443529
-0.438537
-0.432483
-0.424804
-0.415434
-0.405499
-0.395837
-0.386535
-0.377662
-0.36937
-0.361828
-0.355187
-0.34955
-0.344966
-0.341434
-0.338912
-0.337324
-0.336573
-0.336543
-0.33711
-0.338145
-0.339518
-0.341099
-0.342764
-0.344393
-0.345874
-0.347102
-0.347979
-0.348415
-0.348332
-0.347657
-0.346328
-0.344294
-0.34151
-0.337945
-0.333573
-0.328381
-0.322365
-0.31553
-0.30789
-0.299469
-0.290298
-0.280415
-0.269868
-0.258709
-0.246995
-0.234788
-0.222153
-0.20916
-0.195875
-0.182371
-0.168716
-0.154978
-0.141224
-0.127517
-0.113919
-0.100487
-0.087273
-0.0743313
-0.0616901
-0.0494366
-0.037477
-0.0262019
-0.0146629
-0.0058226
-1.26057
-1.14504
-1.05869
-1.02907
-0.99988
-0.954345
-0.901295
-0.846273
-0.789576
-0.731653
-0.673961
-0.618092
-0.566804
-0.523999
-0.49273
-0.473842
-0.465603
-0.464765
-0.46752
-0.471266
-0.475622
-0.479965
-0.483295
-0.484924
-0.484639
-0.482658
-0.479416
-0.475395
-0.471025
-0.466644
-0.462476
-0.458613
-0.455024
-0.451559
-0.447944
-0.443847
-0.43901
-0.43313
-0.425591
-0.416315
-0.406481
-0.396949
-0.387772
-0.379009
-0.37081
-0.36335
-0.356783
-0.351215
-0.346693
-0.343216
-0.34074
-0.339189
-0.338464
-0.338453
-0.339032
-0.340074
-0.341449
-0.34303
-0.344694
-0.346323
-0.347805
-0.349035
-0.349916
-0.350358
-0.350283
-0.349617
-0.348298
-0.346273
-0.343499
-0.33994
-0.335572
-0.33038
-0.32436
-0.317514
-0.309858
-0.301413
-0.292211
-0.282289
-0.271696
-0.260482
-0.248706
-0.23643
-0.22372
-0.210645
-0.197274
-0.18368
-0.16993
-0.156096
-0.142244
-0.128439
-0.114743
-0.101214
-0.0879034
-0.074868
-0.0621359
-0.0497943
-0.0377515
-0.0263933
-0.0147878
-0.00584197
-1.23504
-1.14277
-1.0612
-1.03051
-1.00092
-0.955106
-0.901884
-0.846749
-0.789962
-0.73198
-0.674151
-0.618035
-0.566886
-0.524593
-0.494071
-0.475698
-0.467577
-0.466311
-0.468219
-0.471638
-0.47614
-0.480519
-0.48376
-0.485275
-0.48491
-0.48288
-0.479603
-0.475544
-0.471132
-0.466708
-0.462505
-0.458627
-0.455052
-0.451636
-0.448108
-0.444135
-0.439462
-0.433767
-0.426383
-0.417226
-0.407525
-0.39815
-0.389123
-0.38049
-0.372403
-0.365042
-0.358564
-0.353076
-0.348627
-0.345213
-0.342788
-0.341277
-0.340582
-0.340591
-0.341182
-0.34223
-0.343607
-0.345188
-0.346851
-0.348479
-0.349961
-0.351194
-0.35208
-0.35253
-0.352463
-0.351809
-0.350502
-0.348489
-0.345725
-0.342175
-0.337813
-0.332622
-0.326597
-0.319741
-0.312067
-0.303596
-0.294359
-0.284394
-0.273749
-0.262474
-0.250629
-0.238276
-0.225481
-0.212315
-0.198848
-0.185151
-0.171297
-0.157355
-0.143393
-0.129477
-0.11567
-0.102031
-0.0886134
-0.0754726
-0.0626383
-0.0501976
-0.0380613
-0.0266093
-0.0149287
-0.00586453
-1.20901
-1.14027
-1.06391
-1.03222
-1.00209
-0.955867
-0.902405
-0.847137
-0.790273
-0.732232
-0.674206
-0.617897
-0.56705
-0.525416
-0.495652
-0.477722
-0.469551
-0.467561
-0.468698
-0.472156
-0.476808
-0.481167
-0.484301
-0.485707
-0.485265
-0.483183
-0.47986
-0.475751
-0.471281
-0.466798
-0.462544
-0.458636
-0.455062
-0.451686
-0.448239
-0.444389
-0.439887
-0.434384
-0.427164
-0.418154
-0.408618
-0.399428
-0.390575
-0.382094
-0.374137
-0.366892
-0.360517
-0.355123
-0.350755
-0.347411
-0.345043
-0.343576
-0.342913
-0.342943
-0.343547
-0.3446
-0.345979
-0.347559
-0.349221
-0.350849
-0.352333
-0.353569
-0.354461
-0.354921
-0.354866
-0.354225
-0.352932
-0.350934
-0.348184
-0.344644
-0.340289
-0.335101
-0.329073
-0.322206
-0.314513
-0.306014
-0.296739
-0.286728
-0.276025
-0.264683
-0.252762
-0.240324
-0.227436
-0.214169
-0.200595
-0.186786
-0.172815
-0.158753
-0.144669
-0.130631
-0.116701
-0.10294
-0.0894026
-0.0761447
-0.0631969
-0.0506461
-0.0384057
-0.0268495
-0.0150848
-0.00589083
-1.18401
-1.13801
-1.06684
-1.03413
-1.00332
-0.956561
-0.902808
-0.847407
-0.79049
-0.732375
-0.674087
-0.617728
-0.5673
-0.526461
-0.497429
-0.479842
-0.471351
-0.468416
-0.469173
-0.472862
-0.477598
-0.481893
-0.484918
-0.486227
-0.485713
-0.483577
-0.480201
-0.476029
-0.471486
-0.466927
-0.462606
-0.458652
-0.455064
-0.451716
-0.448341
-0.444612
-0.440282
-0.434975
-0.427922
-0.419084
-0.409748
-0.400772
-0.392116
-0.383807
-0.376001
-0.368888
-0.362631
-0.357342
-0.353066
-0.349798
-0.347491
-0.346072
-0.345442
-0.345495
-0.346111
-0.347172
-0.348552
-0.350132
-0.351793
-0.353422
-0.354908
-0.35615
-0.357051
-0.357522
-0.357481
-0.356857
-0.355582
-0.353601
-0.350867
-0.347342
-0.342997
-0.337813
-0.331782
-0.324905
-0.317192
-0.308663
-0.299349
-0.289287
-0.278522
-0.267108
-0.255103
-0.242572
-0.229582
-0.216205
-0.202514
-0.188582
-0.174483
-0.160289
-0.146072
-0.131899
-0.117834
-0.10394
-0.0902706
-0.076884
-0.0638112
-0.0511393
-0.0387845
-0.0271137
-0.0152555
-0.00592127
-1.16121
-1.13651
-1.07002
-1.03622
-1.00458
-0.957154
-0.903065
-0.84754
-0.7906
-0.732362
-0.673783
-0.617592
-0.567679
-0.527714
-0.499363
-0.481952
-0.472773
-0.468971
-0.469835
-0.473741
-0.478481
-0.482692
-0.485617
-0.486841
-0.486263
-0.484072
-0.480637
-0.476392
-0.471763
-0.467112
-0.462705
-0.458687
-0.455069
-0.451735
-0.44842
-0.444806
-0.440648
-0.435536
-0.428648
-0.420007
-0.410905
-0.402171
-0.393736
-0.385621
-0.377983
-0.371018
-0.364894
-0.359721
-0.355545
-0.35236
-0.35012
-0.34875
-0.348156
-0.348232
-0.348863
-0.34993
-0.351313
-0.352894
-0.354555
-0.356185
-0.357676
-0.358925
-0.359837
-0.360323
-0.360301
-0.359696
-0.358443
-0.356484
-0.35377
-0.350262
-0.345929
-0.340752
-0.33472
-0.327833
-0.3201
-0.311541
-0.302184
-0.292068
-0.281237
-0.269745
-0.257651
-0.245019
-0.231919
-0.218423
-0.204604
-0.190538
-0.1763
-0.161964
-0.147601
-0.133281
-0.11907
-0.10503
-0.0912169
-0.0776899
-0.064481
-0.0516769
-0.0391971
-0.0274014
-0.0154401
-0.00595609
-1.1415
-1.13651
-1.07355
-1.03845
-1.00579
-0.95759
-0.903131
-0.847506
-0.790562
-0.732131
-0.67332
-0.617512
-0.568237
-0.52916
-0.50141
-0.483868
-0.473696
-0.46952
-0.470733
-0.474755
-0.479443
-0.483564
-0.486402
-0.487555
-0.486921
-0.484677
-0.481179
-0.476852
-0.472124
-0.467366
-0.462856
-0.458755
-0.45509
-0.451752
-0.448485
-0.444977
-0.440988
-0.436064
-0.429338
-0.420914
-0.412082
-0.403617
-0.395426
-0.387523
-0.380072
-0.373272
-0.367294
-0.362248
-0.358179
-0.355083
-0.352913
-0.351596
-0.35104
-0.351141
-0.351786
-0.352861
-0.354248
-0.35583
-0.357494
-0.359128
-0.360625
-0.361885
-0.362811
-0.363316
-0.363315
-0.362735
-0.361507
-0.359574
-0.356884
-0.353396
-0.34908
-0.343912
-0.337881
-0.330985
-0.323232
-0.314642
-0.305242
-0.295068
-0.284167
-0.272592
-0.260402
-0.247663
-0.234445
-0.220821
-0.206865
-0.192655
-0.178267
-0.163776
-0.149256
-0.134777
-0.120407
-0.10621
-0.0922413
-0.0785622
-0.0652057
-0.0522585
-0.0396431
-0.0277123
-0.0156382
-0.00599544
-1.12506
-1.13793
-1.07733
-1.04075
-1.00692
-0.95783
-0.902981
-0.84729
-0.790327
-0.731625
-0.672757
-0.617449
-0.568988
-0.530789
-0.503482
-0.485351
-0.474249
-0.470326
-0.471843
-0.475873
-0.480477
-0.48451
-0.487274
-0.488368
-0.487688
-0.485397
-0.481834
-0.477421
-0.472584
-0.467704
-0.463074
-0.45887
-0.455139
-0.45178
-0.448545
-0.445133
-0.441306
-0.436561
-0.429987
-0.421802
-0.413273
-0.405104
-0.397177
-0.389507
-0.38226
-0.37564
-0.36982
-0.36491
-0.360957
-0.357954
-0.355858
-0.354596
-0.354079
-0.354205
-0.354867
-0.355951
-0.357343
-0.358929
-0.360596
-0.362237
-0.363744
-0.365017
-0.365962
-0.366489
-0.366514
-0.365963
-0.364766
-0.362863
-0.360202
-0.356739
-0.352442
-0.347287
-0.34126
-0.334357
-0.326586
-0.317964
-0.308518
-0.298285
-0.287311
-0.275648
-0.263357
-0.250503
-0.237159
-0.223397
-0.209296
-0.194931
-0.180382
-0.165726
-0.151037
-0.136387
-0.121846
-0.107479
-0.0933434
-0.0795006
-0.0659851
-0.0528837
-0.0401222
-0.0280462
-0.0158495
-0.0060394
-1.11357
-1.14078
-1.08123
-1.04306
-1.00791
-0.957846
-0.90261
-0.846886
-0.789846
-0.730828
-0.672174
-0.617399
-0.5699
-0.532572
-0.505385
-0.486247
-0.474834
-0.471448
-0.473116
-0.477075
-0.481577
-0.485526
-0.488227
-0.489276
-0.488561
-0.486231
-0.482608
-0.478106
-0.473153
-0.468138
-0.46337
-0.459046
-0.455228
-0.451831
-0.448611
-0.445284
-0.44161
-0.437025
-0.430597
-0.422668
-0.414477
-0.406628
-0.398984
-0.391564
-0.384537
-0.378111
-0.37246
-0.367696
-0.363864
-0.36096
-0.35894
-0.357735
-0.357258
-0.357413
-0.358092
-0.359187
-0.360585
-0.362177
-0.363851
-0.3655
-0.36702
-0.368312
-0.369279
-0.369833
-0.36989
-0.369372
-0.368211
-0.366344
-0.363716
-0.360284
-0.356011
-0.350872
-0.344851
-0.337943
-0.330155
-0.321502
-0.31201
-0.301716
-0.290664
-0.27891
-0.266512
-0.253538
-0.24006
-0.226153
-0.211895
-0.197366
-0.182646
-0.167812
-0.152943
-0.138111
-0.123387
-0.108838
-0.0945231
-0.0805048
-0.0668191
-0.0535524
-0.0406341
-0.0284027
-0.0160736
-0.006088
-1.10767
-1.14525
-1.08523
-1.04533
-1.00873
-0.957627
-0.902042
-0.846316
-0.789095
-0.729796
-0.671623
-0.61744
-0.570997
-0.534446
-0.506843
-0.486714
-0.475781
-0.472838
-0.47451
-0.478347
-0.482733
-0.486599
-0.489245
-0.490265
-0.489531
-0.487173
-0.483498
-0.47891
-0.473837
-0.468678
-0.463759
-0.459295
-0.455372
-0.451915
-0.448693
-0.445439
-0.441905
-0.437459
-0.431175
-0.423519
-0.415693
-0.408186
-0.400843
-0.393688
-0.386896
-0.380676
-0.375206
-0.370594
-0.366889
-0.364086
-0.362145
-0.361
-0.360565
-0.360749
-0.361447
-0.362554
-0.363962
-0.365562
-0.367245
-0.368907
-0.370444
-0.371758
-0.372752
-0.373338
-0.373432
-0.372954
-0.371834
-0.370008
-0.36742
-0.364023
-0.359779
-0.35466
-0.34865
-0.34174
-0.333936
-0.325252
-0.315714
-0.305357
-0.294226
-0.282376
-0.269866
-0.256765
-0.243146
-0.229086
-0.214663
-0.19996
-0.185058
-0.170036
-0.154974
-0.139948
-0.125029
-0.110286
-0.0957804
-0.0815749
-0.0677073
-0.0542644
-0.0411786
-0.0287817
-0.0163104
-0.00614124
-1.10584
-1.15122
-1.08933
-1.04752
-1.00932
-0.957148
-0.90127
-0.845558
-0.788047
-0.728621
-0.671069
-0.617638
-0.572312
-0.536239
-0.507661
-0.487266
-0.477148
-0.474432
-0.475995
-0.479669
-0.483924
-0.487706
-0.490311
-0.491318
-0.490584
-0.488215
-0.484501
-0.479833
-0.474641
-0.469332
-0.464248
-0.459629
-0.455581
-0.452045
-0.448803
-0.445607
-0.442198
-0.437862
-0.431724
-0.424362
-0.416927
-0.409778
-0.402751
-0.395875
-0.38933
-0.383328
-0.378046
-0.373594
-0.37002
-0.367322
-0.365462
-0.364377
-0.363986
-0.3642
-0.364919
-0.366041
-0.36746
-0.369071
-0.370767
-0.372446
-0.374004
-0.375344
-0.376371
-0.376995
-0.377131
-0.3767
-0.375627
-0.373849
-0.371306
-0.36795
-0.36374
-0.358647
-0.35265
-0.345742
-0.337925
-0.329211
-0.319627
-0.309207
-0.297995
-0.286045
-0.273419
-0.260185
-0.246419
-0.232196
-0.2176
-0.202713
-0.187618
-0.172397
-0.157131
-0.141899
-0.126773
-0.111824
-0.0971153
-0.0827108
-0.0686499
-0.0550195
-0.0417557
-0.0291831
-0.0165597
-0.0061991
-1.10799
-1.1589
-1.0935
-1.04957
-1.00967
-0.956388
-0.900286
-0.844562
-0.786675
-0.727425
-0.670473
-0.618012
-0.573815
-0.537658
-0.507995
-0.488318
-0.478867
-0.47617
-0.477543
-0.481017
-0.485124
-0.488822
-0.491398
-0.492412
-0.4917
-0.489342
-0.485606
-0.480871
-0.475564
-0.470102
-0.464845
-0.460056
-0.455865
-0.452231
-0.448951
-0.4458
-0.442494
-0.438233
-0.432245
-0.425204
-0.418182
-0.411407
-0.404707
-0.398121
-0.391834
-0.386059
-0.380971
-0.376684
-0.373244
-0.370654
-0.368877
-0.367854
-0.367509
-0.367755
-0.368497
-0.369635
-0.371069
-0.372693
-0.374406
-0.376105
-0.377689
-0.379061
-0.380127
-0.380795
-0.380979
-0.3806
-0.379582
-0.377858
-0.375367
-0.372058
-0.367888
-0.362825
-0.356848
-0.349945
-0.342117
-0.333376
-0.323747
-0.313262
-0.301967
-0.289915
-0.277169
-0.263797
-0.249876
-0.235484
-0.220706
-0.205625
-0.190326
-0.174896
-0.159415
-0.143964
-0.128619
-0.113452
-0.0985281
-0.0839126
-0.0696469
-0.0558179
-0.0423651
-0.0296069
-0.0168215
-0.00626155
-1.11383
-1.16787
-1.09762
-1.05148
-1.00976
-0.955358
-0.899083
-0.843276
-0.78501
-0.726275
-0.669887
-0.618616
-0.575382
-0.538438
-0.50842
-0.489916
-0.480838
-0.478004
-0.479121
-0.482359
-0.486302
-0.489919
-0.49248
-0.493524
-0.492859
-0.490536
-0.486798
-0.482013
-0.476603
-0.47099
-0.465553
-0.460582
-0.456233
-0.452482
-0.449147
-0.446027
-0.442798
-0.438581
-0.432753
-0.426056
-0.419466
-0.413074
-0.406711
-0.400423
-0.394402
-0.38886
-0.383974
-0.379854
-0.376552
-0.374071
-0.372378
-0.371419
-0.371121
-0.3714
-0.372167
-0.373325
-0.374776
-0.376418
-0.378151
-0.379875
-0.38149
-0.382899
-0.384008
-0.384726
-0.384966
-0.384646
-0.383689
-0.382026
-0.379594
-0.376339
-0.372216
-0.36719
-0.361236
-0.354343
-0.346508
-0.337743
-0.328069
-0.317521
-0.306141
-0.293985
-0.281115
-0.2676
-0.253518
-0.23895
-0.22398
-0.208696
-0.193184
-0.177532
-0.161825
-0.146144
-0.130568
-0.115171
-0.100019
-0.0851807
-0.0706984
-0.0566594
-0.0430071
-0.0300529
-0.0170958
-0.00632858
-1.12466
-1.1778
-1.10155
-1.05324
-1.00963
-0.95411
-0.897674
-0.841649
-0.78312
-0.725161
-0.669414
-0.619513
-0.576749
-0.53862
-0.509448
-0.491957
-0.482975
-0.479893
-0.480693
-0.483659
-0.487426
-0.490965
-0.493528
-0.494626
-0.494034
-0.491774
-0.488062
-0.483248
-0.477749
-0.471992
-0.466374
-0.461212
-0.456691
-0.452806
-0.449401
-0.446296
-0.44311
-0.438909
-0.433268
-0.42694
-0.420789
-0.414786
-0.408763
-0.40278
-0.39703
-0.391727
-0.387044
-0.383096
-0.379933
-0.377562
-0.375955
-0.375061
-0.374811
-0.375126
-0.37592
-0.3771
-0.378571
-0.380234
-0.381992
-0.383745
-0.385396
-0.386848
-0.388007
-0.388782
-0.389084
-0.38883
-0.387942
-0.386348
-0.383982
-0.380788
-0.376718
-0.371735
-0.365811
-0.358933
-0.351095
-0.342309
-0.332593
-0.321981
-0.310517
-0.298254
-0.285256
-0.271594
-0.257346
-0.242594
-0.227425
-0.211928
-0.196192
-0.180308
-0.164362
-0.148439
-0.13262
-0.11698
-0.101589
-0.0865154
-0.0718047
-0.0575445
-0.0436815
-0.0305212
-0.0173824
-0.00640017
-1.14061
-1.18857
-1.10526
-1.05485
-1.00934
-0.952724
-0.896105
-0.839728
-0.781163
-0.723976
-0.669155
-0.620661
-0.577531
-0.538739
-0.511152
-0.494304
-0.485214
-0.481792
-0.482221
-0.484886
-0.488468
-0.491935
-0.494517
-0.495692
-0.495202
-0.493034
-0.489377
-0.48456
-0.478991
-0.473102
-0.467305
-0.461947
-0.457243
-0.45321
-0.449722
-0.446615
-0.443429
-0.439217
-0.433792
-0.427869
-0.422162
-0.416546
-0.410866
-0.40519
-0.399714
-0.394652
-0.390176
-0.386399
-0.383376
-0.381117
-0.379597
-0.378768
-0.378568
-0.378921
-0.379744
-0.380949
-0.382443
-0.384131
-0.385918
-0.387706
-0.389398
-0.390899
-0.392114
-0.392952
-0.393324
-0.393144
-0.392332
-0.390814
-0.388522
-0.385397
-0.381388
-0.376455
-0.370568
-0.36371
-0.355875
-0.34707
-0.337315
-0.326641
-0.315092
-0.302722
-0.289594
-0.27578
-0.261359
-0.246416
-0.23104
-0.215321
-0.199352
-0.183224
-0.167029
-0.150852
-0.134776
-0.118881
-0.103238
-0.0879172
-0.0729662
-0.0584732
-0.0443887
-0.0310119
-0.0176816
-0.0064763
-1.1594
-1.19984
-1.10873
-1.05631
-1.0089
-0.951227
-0.894348
-0.837513
-0.779296
-0.722721
-0.669185
-0.621823
-0.577525
-0.539448
-0.513394
-0.49684
-0.487499
-0.483662
-0.483672
-0.486013
-0.489402
-0.492805
-0.49542
-0.496695
-0.496335
-0.494291
-0.49072
-0.485929
-0.480315
-0.47431
-0.468341
-0.462787
-0.457892
-0.453698
-0.450115
-0.446985
-0.443757
-0.43953
-0.434338
-0.428853
-0.423589
-0.418359
-0.41302
-0.407652
-0.402451
-0.397629
-0.39336
-0.389756
-0.386874
-0.384726
-0.383293
-0.382532
-0.382383
-0.382775
-0.38363
-0.384863
-0.386383
-0.388101
-0.38992
-0.391747
-0.393486
-0.395042
-0.39632
-0.397229
-0.397677
-0.397579
-0.396851
-0.395418
-0.393209
-0.390161
-0.38622
-0.381345
-0.375501
-0.36867
-0.360842
-0.352024
-0.342233
-0.3315
-0.319867
-0.307388
-0.294127
-0.280157
-0.265559
-0.250418
-0.234826
-0.218877
-0.202664
-0.186282
-0.169825
-0.153381
-0.137038
-0.120875
-0.104967
-0.0893868
-0.0741834
-0.0594459
-0.0451288
-0.0315252
-0.0179932
-0.00655697
-1.18099
-1.21156
-1.11191
-1.05759
-1.00832
-0.949625
-0.892387
-0.835095
-0.777537
-0.721527
-0.669584
-0.622667
-0.57719
-0.54098
-0.516022
-0.499486
-0.489786
-0.485468
-0.485019
-0.487017
-0.490211
-0.493554
-0.496217
-0.497613
-0.497409
-0.495519
-0.492067
-0.487335
-0.481704
-0.475603
-0.469474
-0.463726
-0.458636
-0.454275
-0.450589
-0.447409
-0.444089
-0.439866
-0.434933
-0.429906
-0.42508
-0.42023
-0.415228
-0.410163
-0.405235
-0.400654
-0.39659
-0.393158
-0.390416
-0.388381
-0.387036
-0.386342
-0.386246
-0.38668
-0.387569
-0.388832
-0.390382
-0.392132
-0.39399
-0.395861
-0.397652
-0.399269
-0.400617
-0.401603
-0.402135
-0.402127
-0.401492
-0.400152
-0.398034
-0.395071
-0.391209
-0.386399
-0.380607
-0.373809
-0.365995
-0.357169
-0.347346
-0.336555
-0.324839
-0.312251
-0.298856
-0.284727
-0.269946
-0.254601
-0.238786
-0.222597
-0.20613
-0.189483
-0.172753
-0.156031
-0.139406
-0.122963
-0.106777
-0.0909249
-0.0754568
-0.0604631
-0.0459021
-0.0320611
-0.0183175
-0.00664218
-1.20525
-1.2234
-1.11469
-1.05868
-1.00762
-0.947914
-0.890161
-0.832559
-0.77587
-0.72057
-0.670295
-0.622881
-0.577358
-0.543211
-0.518882
-0.50218
-0.492033
-0.487179
-0.486242
-0.487884
-0.490879
-0.494168
-0.496892
-0.498426
-0.498403
-0.496696
-0.493396
-0.488755
-0.483137
-0.476965
-0.470692
-0.464758
-0.459473
-0.45494
-0.451145
-0.447881
-0.44443
-0.440246
-0.435608
-0.431044
-0.426645
-0.422163
-0.41749
-0.412723
-0.408064
-0.403719
-0.399859
-0.396598
-0.393995
-0.392072
-0.390815
-0.390191
-0.390148
-0.390625
-0.391551
-0.392847
-0.394432
-0.396218
-0.398118
-0.400038
-0.401887
-0.403571
-0.404995
-0.406066
-0.406691
-0.40678
-0.406247
-0.405009
-0.402991
-0.400123
-0.396347
-0.391612
-0.385879
-0.379123
-0.371331
-0.362502
-0.352651
-0.341806
-0.330009
-0.317312
-0.303781
-0.28949
-0.274522
-0.258967
-0.242922
-0.226483
-0.209752
-0.19283
-0.175814
-0.158801
-0.141882
-0.125146
-0.10867
-0.0925324
-0.0767872
-0.0615253
-0.046709
-0.03262
-0.0186545
-0.00673194
-1.23292
-1.23495
-1.11702
-1.05958
-1.00685
-0.946115
-0.887703
-0.830009
-0.774143
-0.719972
-0.671021
-0.622399
-0.578429
-0.545956
-0.521873
-0.504875
-0.494211
-0.488775
-0.487327
-0.488603
-0.491397
-0.494635
-0.497429
-0.499119
-0.499297
-0.497802
-0.494685
-0.490169
-0.484597
-0.478381
-0.471983
-0.465874
-0.460397
-0.455696
-0.451782
-0.448392
-0.444794
-0.440692
-0.436394
-0.432283
-0.428291
-0.424162
-0.419807
-0.41533
-0.410933
-0.406821
-0.403161
-0.400068
-0.397604
-0.395792
-0.394624
-0.394069
-0.394082
-0.394604
-0.395568
-0.396901
-0.398523
-0.40035
-0.402296
-0.404271
-0.406184
-0.40794
-0.409447
-0.41061
-0.411335
-0.41153
-0.411107
-0.409981
-0.408073
-0.40531
-0.40163
-0.396979
-0.391315
-0.384609
-0.376845
-0.36802
-0.358147
-0.347253
-0.335377
-0.322572
-0.308904
-0.294448
-0.279288
-0.263518
-0.247234
-0.230538
-0.213533
-0.196323
-0.17901
-0.161694
-0.144469
-0.127426
-0.110646
-0.0942103
-0.0781754
-0.062633
-0.0475499
-0.033202
-0.0190045
-0.00682629
-1.26426
-1.24627
-1.11902
-1.0604
-1.0061
-0.944274
-0.885089
-0.827627
-0.77237
-0.719779
-0.671363
-0.621773
-0.580314
-0.548996
-0.524915
-0.507534
-0.496294
-0.490243
-0.488268
-0.48917
-0.49176
-0.494949
-0.497819
-0.499677
-0.500077
-0.498818
-0.495913
-0.491556
-0.486063
-0.479832
-0.473331
-0.467062
-0.461403
-0.456539
-0.452495
-0.448934
-0.445207
-0.441234
-0.437311
-0.433634
-0.430025
-0.426231
-0.422179
-0.417982
-0.413839
-0.409953
-0.40649
-0.403563
-0.401236
-0.399535
-0.398455
-0.397971
-0.39804
-0.398609
-0.399614
-0.400986
-0.402648
-0.404519
-0.406516
-0.408551
-0.410532
-0.412369
-0.413965
-0.415227
-0.41606
-0.416371
-0.416067
-0.415062
-0.413273
-0.410626
-0.407052
-0.402496
-0.39691
-0.390263
-0.382536
-0.373723
-0.363834
-0.352894
-0.340942
-0.328031
-0.314225
-0.299602
-0.284248
-0.268256
-0.251726
-0.234764
-0.217475
-0.199966
-0.182344
-0.164712
-0.147167
-0.129804
-0.112707
-0.0959599
-0.0796223
-0.063787
-0.0484252
-0.0338074
-0.0193674
-0.00692524
-1.29719
-1.25699
-1.12075
-1.06115
-1.00535
-0.94238
-0.882405
-0.825437
-0.770749
-0.719943
-0.671052
-0.621853
-0.582861
-0.552192
-0.527963
-0.510131
-0.498269
-0.49158
-0.489065
-0.489586
-0.491967
-0.495105
-0.498056
-0.500091
-0.500728
-0.499727
-0.497064
-0.492898
-0.487518
-0.481302
-0.474722
-0.468309
-0.462482
-0.457465
-0.453271
-0.449501
-0.445694
-0.441906
-0.438372
-0.435102
-0.43185
-0.428369
-0.424604
-0.420674
-0.416777
-0.413111
-0.40984
-0.407076
-0.404883
-0.403292
-0.402301
-0.401888
-0.402014
-0.402632
-0.403681
-0.405094
-0.4068
-0.408719
-0.410771
-0.41287
-0.414926
-0.416848
-0.418541
-0.41991
-0.420859
-0.421293
-0.421118
-0.420244
-0.418586
-0.416064
-0.412608
-0.408156
-0.40266
-0.396082
-0.388401
-0.379607
-0.369709
-0.358729
-0.346705
-0.333689
-0.319747
-0.304955
-0.289401
-0.273182
-0.2564
-0.239163
-0.22158
-0.203762
-0.185819
-0.167857
-0.149979
-0.132282
-0.114854
-0.0977825
-0.0811289
-0.0649881
-0.0493355
-0.0344367
-0.0197436
-0.00702883
-1.33201
-1.26704
-1.12233
-1.06189
-1.00458
-0.940383
-0.879757
-0.823446
-0.769508
-0.720188
-0.670116
-0.622958
-0.585878
-0.555466
-0.530988
-0.512648
-0.500132
-0.492788
-0.489724
-0.489856
-0.492022
-0.495105
-0.498135
-0.500352
-0.501238
-0.500515
-0.498119
-0.494175
-0.488941
-0.482773
-0.47614
-0.469604
-0.463627
-0.458467
-0.454095
-0.450114
-0.446291
-0.442741
-0.439585
-0.436691
-0.433766
-0.430576
-0.427081
-0.423405
-0.419743
-0.416291
-0.413206
-0.410601
-0.408542
-0.407059
-0.406156
-0.405814
-0.406
-0.406668
-0.407762
-0.409219
-0.410971
-0.412943
-0.415054
-0.417222
-0.419358
-0.421371
-0.423167
-0.42465
-0.425724
-0.42629
-0.426254
-0.425521
-0.424004
-0.421619
-0.418292
-0.413957
-0.408561
-0.402063
-0.394437
-0.385672
-0.375772
-0.364758
-0.352667
-0.339549
-0.32547
-0.310508
-0.294752
-0.278301
-0.26126
-0.243739
-0.225852
-0.207713
-0.189436
-0.171132
-0.152907
-0.134863
-0.11709
-0.0996795
-0.0826965
-0.0662371
-0.0502814
-0.0350901
-0.0201332
-0.00713712
-1.36898
-1.27629
-1.12381
-1.06262
-1.00374
-0.938259
-0.877186
-0.821537
-0.768764
-0.720124
-0.669144
-0.624898
-0.589122
-0.55875
-0.533966
-0.515076
-0.501882
-0.493872
-0.490253
-0.48999
-0.491932
-0.494954
-0.498061
-0.500461
-0.501603
-0.501171
-0.499064
-0.49537
-0.490316
-0.484228
-0.477568
-0.470932
-0.464829
-0.45953
-0.454952
-0.450806