/*--------------------------------*- C++ -*----------------------------------*\
| =========                 |                                                 |
| \\      /  F ield         | OpenFOAM: The Open Source CFD Toolbox           |
|  \\    /   O peration     | Version:  4.1                                   |
|   \\  /    A nd           | Web:      www.OpenFOAM.org                      |
|    \\/     M anipulation  |                                                 |
\*---------------------------------------------------------------------------*/
FoamFile
{
    version     2.0;
    format      ascii;
    class       surfaceScalarField;
    location    "200";
    object      phi;
}
// * * * * * * * * * * * * * * * * * * * * * * * * * * * * * * * * * * * * * //

dimensions      [0 3 -1 0 0 0 0];

internalField   nonuniform List<scalar> 
52920
(
527.645
53.6264
494.416
33.2288
480.106
14.3102
481.597
-1.4904
493.276
-11.6785
510.111
-16.8352
528.666
-18.5543
547.082
-18.4161
564.618
-17.5364
581.119
-16.5008
596.582
-15.4623
610.839
-14.2571
623.365
-12.5258
633.261
-9.89519
639.474
-6.21281
641.199
-1.72467
638.34
2.85844
631.747
6.59345
623.013
8.73447
614.059
8.95459
606.715
7.3433
602.416
4.30023
602.051
0.364797
606.006
-3.95441
614.213
-8.2075
626.191
-11.9779
641.171
-14.9796
658.273
-17.1012
676.638
-18.3652
695.497
-18.8592
714.18
-18.6827
732.102
-17.9219
748.748
-16.6458
763.664
-14.9158
776.466
-12.8017
786.867
-10.4004
794.717
-7.8503
800.056
-5.33853
803.121
-3.06515
804.241
-1.11947
803.643
0.598164
801.449
2.1937
797.771
3.67891
792.731
5.03999
786.461
6.27008
779.09
7.37073
770.742
8.3482
761.533
9.20964
751.572
9.96105
740.965
10.6068
729.815
11.1502
718.221
11.5943
706.279
11.9425
694.079
12.1996
681.708
12.3711
669.244
12.4638
656.759
12.4853
644.316
12.4436
631.969
12.3469
619.766
12.2033
607.745
12.0204
595.94
11.8056
584.375
11.5653
573.069
11.3056
562.037
11.0318
551.289
10.7486
540.828
10.4602
530.658
10.1702
520.777
9.88164
511.18
9.59677
501.862
9.31737
492.818
9.04452
484.039
8.77863
475.52
8.51952
467.253
8.26651
459.235
8.01848
451.461
7.77411
443.929
7.53194
436.638
7.29057
429.59
7.0488
422.784
6.80571
416.223
6.56074
409.909
6.31373
403.845
6.06489
398.03
5.81477
392.466
5.56422
387.151
5.31426
382.085
5.06602
377.265
4.82065
372.685
4.57921
368.343
4.34261
364.231
4.11156
360.345
3.88646
356.677
3.66756
353.223
3.45428
349.976
3.24728
346.934
3.04155
344.089
2.84559
341.458
2.63032
2.38384
532.465
96.757
509.396
56.298
502.877
20.8289
509.858
-8.4704
525.475
-27.2961
544.872
-36.2313
564.778
-38.4599
583.587
-37.2257
600.768
-34.7166
616.308
-32.0408
630.355
-29.5089
642.959
-26.8609
653.867
-23.4334
662.393
-18.4218
667.509
-11.3285
668.305
-2.52019
664.702
6.46132
657.677
13.6187
648.89
17.5221
640.232
17.6126
633.435
14.1409
629.841
7.89395
630.43
-0.223901
635.72
-9.24356
645.493
-17.9804
658.872
-25.3566
674.707
-30.8144
691.908
-34.3018
709.596
-36.0536
727.118
-36.3814
743.993
-35.5574
759.852
-33.7808
774.396
-31.1891
787.368
-27.8877
798.551
-23.9844
807.774
-19.623
814.936
-15.0122
820.041
-10.4439
823.211
-6.23517
824.608
-2.51554
824.318
0.887976
822.384
4.12793
818.867
7.1959
813.862
10.0453
807.487
12.6454
799.873
14.9848
791.157
17.0647
781.475
18.8914
770.964
20.4727
759.754
21.8161
747.975
22.9298
735.746
23.8231
723.182
24.5073
710.385
24.9958
697.452
25.3044
684.466
25.4503
671.5
25.4516
658.617
25.3266
645.87
25.0935
633.304
24.7695
620.954
24.3705
608.848
23.9113
597.009
23.4051
585.45
22.8638
574.184
22.2977
563.217
21.716
552.551
21.1268
542.184
20.5367
532.114
19.9513
522.336
19.375
512.843
18.8106
503.627
18.26
494.682
17.7237
486.001
17.2009
477.577
16.6902
469.407
16.1893
461.485
15.6954
453.812
15.2057
446.385
14.7174
439.205
14.2284
432.274
13.7369
425.593
13.2419
419.163
12.7432
412.987
12.2414
407.064
11.7375
401.395
11.2332
395.979
10.7306
390.813
10.2318
385.895
9.73912
381.219
9.25448
376.782
8.77964
372.578
8.31595
368.6
7.86408
364.843
7.42455
361.302
6.99603
357.969
6.57993
354.843
6.16731
351.919
5.76996
349.187
5.36252
4.81921
531.868
130.729
518.962
69.2041
522.888
16.9028
539.26
-24.8421
561.831
-49.8664
585.403
-59.8037
607.301
-60.3572
626.604
-56.5284
643.228
-51.3402
657.387
-46.1996
669.335
-41.4573
679.209
-36.7348
686.872
-31.0964
691.798
-23.3476
693.151
-12.6812
690.372
0.259825
683.877
12.9561
675.027
22.4687
665.661
26.8882
657.719
25.5556
652.907
18.9523
652.482
8.31955
657.148
-4.88994
666.757
-18.8524
680.212
-31.4351
696.019
-41.1634
712.845
-47.6404
729.748
-51.2048
746.15
-52.4553
761.716
-51.9473
776.243
-50.0839
789.583
-47.1203
801.606
-43.2119
812.188
-38.4696
821.213
-33.0094
828.586
-26.996
834.254
-20.6796
838.228
-14.4176
840.588
-8.59523
841.415
-3.34309
840.715
1.58842
838.465
6.37874
834.671
10.9891
829.383
15.3337
822.682
19.3471
814.675
22.9913
805.493
26.2476
795.275
29.1096
784.17
31.5772
772.33
33.6561
759.903
35.3571
747.029
36.697
733.839
37.6976
720.45
38.3853
706.965
38.7898
693.473
38.9424
680.049
38.8752
666.756
38.6193
653.646
38.2044
640.757
37.6581
628.122
37.0055
615.765
36.2689
603.701
35.4682
591.944
34.6211
580.499
33.7427
569.369
32.8463
558.553
31.9432
548.046
31.0428
537.845
30.1526
527.942
29.2784
518.328
28.424
508.997
27.5913
499.94
26.7805
491.151
25.99
482.624
25.2173
474.355
24.4587
466.34
23.7101
458.578
22.9674
451.069
22.2265
443.813
21.4845
436.811
20.7389
430.064
19.9886
423.574
19.2335
417.341
18.4745
411.365
17.7134
405.646
16.9528
400.181
16.1956
394.967
15.4451
390.002
14.7044
385.28
13.9765
380.796
13.2638
376.544
12.5681
372.518
11.8903
368.711
11.2309
365.119
10.5883
361.736
9.96313
358.556
9.34745
355.584
8.74187
352.775
8.17105
7.28994
530.917
154.81
528.093
72.0282
541.782
3.21354
565.977
-49.0366
593.333
-77.2224
619.173
-85.6431
641.775
-82.9586
660.867
-75.6207
676.672
-67.1445
689.515
-59.0427
699.678
-51.6202
707.281
-44.3372
712.133
-35.9489
713.642
-24.8558
711.037
-10.076
704.307
6.98928
694.7
22.5633
684.155
33.0146
674.773
36.2703
668.479
31.8501
666.729
20.7022
670.363
4.68633
679.343
-13.8707
692.514
-32.0223
708.071
-46.992
724.413
-57.5056
740.51
-63.7374
755.85
-66.544
770.236
-66.8419
783.619
-65.3292
795.98
-62.4451
807.291
-58.4312
817.494
-53.4144
826.504
-47.4801
834.227
-40.732
840.571
-33.3395
845.469
-25.5776
848.9
-17.8479
850.879
-10.575
851.41
-3.87312
850.433
2.56516
847.898
8.91432
843.795
15.0924
838.16
20.9681
831.07
26.4374
822.631
31.4305
812.974
35.9049
802.248
39.8359
790.613
43.2123
778.234
46.0352
765.273
48.3182
751.884
50.0861
738.208
51.3737
724.37
52.2232
710.479
52.6811
696.626
52.7959
682.885
52.6156
669.319
52.1859
655.974
51.5495
642.887
50.745
630.086
49.8069
617.589
48.7655
605.41
47.6473
593.556
46.4753
582.029
45.2694
570.829
44.0463
559.952
42.8202
549.392
41.6028
539.142
40.4032
529.192
39.228
519.535
38.0811
510.162
36.9642
501.066
35.8768
492.24
34.8163
483.678
33.7787
475.378
32.7589
467.337
31.7515
459.553
30.7509
452.028
29.7524
444.76
28.7521
437.752
27.7474
431.003
26.737
424.515
25.7212
418.288
24.7015
412.321
23.6805
406.613
22.6616
401.159
21.6489
395.958
20.6466
391.004
19.6586
386.292
18.6886
381.816
17.7397
377.57
16.8141
373.547
15.9126
369.743
15.0357
366.149
14.1814
362.764
13.3488
359.578
12.5334
356.602
11.7182
353.779
10.994
9.76461
530.734
168.995
537.337
65.4251
559.226
-18.6749
588.644
-78.4551
618.148
-106.726
644.295
-111.79
666.352
-105.016
684.518
-93.7865
699.181
-81.807
710.712
-70.5738
719.378
-60.2857
725.211
-50.1702
727.834
-38.5717
726.408
-23.4294
720.289
-3.95674
710.251
17.0273
698.412
34.4021
687.211
44.2161
678.897
44.5843
675.213
35.5343
677.183
18.7328
684.98
-3.11133
697.557
-26.4474
712.85
-47.315
728.853
-62.9943
744.307
-72.9595
758.689
-78.1191
771.916
-79.7715
784.088
-79.0135
795.33
-76.5708
805.728
-72.8431
815.311
-68.0139
824.052
-62.1558
831.885
-55.3128
838.717
-47.5631
844.445
-39.0675
848.978
-30.1107
852.249
-21.1186
854.203
-12.5286
854.752
-4.42246
853.767
3.55004
851.155
11.5263
846.89
19.358
841.008
26.8505
833.596
33.8489
824.78
40.2467
814.711
45.975
803.555
50.9919
791.49
55.2771
778.695
58.8301
765.344
61.6696
751.598
63.8321
737.604
65.3681
723.489
66.3379
709.363
66.8073
695.315
66.8435
681.419
66.5118
667.732
65.8734
654.297
64.9843
641.148
63.8946
628.307
62.648
615.789
61.2828
603.605
59.8319
591.757
58.3234
580.245
56.7812
569.066
55.2254
558.213
53.6728
547.679
52.1367
537.455
50.6272
527.532
49.1512
517.901
47.7125
508.553
46.3122
499.481
44.9484
490.68
43.6173
482.145
42.3134
473.874
41.0302
465.865
39.7609
458.117
38.4989
450.631
37.2386
443.407
35.9758
436.446
34.7078
429.75
33.4336
423.317
32.154
417.147
30.8712
411.239
29.5888
405.59
28.3112
400.195
27.0433
395.052
25.7903
390.153
24.557
385.494
23.3476
381.068
22.1656
376.869
21.0132
372.89
19.8914
369.126
18.8002
365.57
17.7374
362.219
16.7
359.064
15.6879
356.118
14.6645
353.324
13.7881
12.2126
531.769
172.13
547.023
50.1709
574.755
-46.4065
606.668
-110.368
636.349
-136.406
661.628
-137.069
682.451
-125.839
699.275
-110.611
712.578
-95.1092
722.755
-80.7507
730.042
-67.5722
734.336
-54.4647
734.978
-39.2127
730.864
-19.316
721.776
5.13205
709.434
29.3689
696.624
47.2124
686.084
54.7566
680.03
50.6388
679.883
35.6811
686.113
12.5031
697.944
-14.942
713.223
-41.7259
729.392
-63.484
744.728
-78.3305
758.55
-86.7805
770.836
-90.4053
781.836
-90.7709
791.832
-89.01
801.049
-85.7872
809.623
-81.417
817.612
-76.0028
825.009
-69.5524
831.758
-62.0619
837.772
-53.5772
842.946
-44.2414
847.172
-34.336
850.346
-24.2924
852.351
-14.5337
853.015
-5.08604
852.125
4.4399
849.535
14.1168
845.191
23.702
839.13
32.9122
831.455
41.524
822.318
49.384
811.898
56.3949
800.389
62.5003
787.991
67.6759
774.895
71.9256
761.286
75.2796
747.327
77.7903
733.168
79.5276
718.933
80.5727
704.728
81.0122
690.639
80.9326
676.734
80.4172
663.065
79.5427
649.671
78.3782
636.581
76.9849
623.813
75.4156
611.38
73.716
599.287
71.9249
587.535
70.0753
576.122
68.1948
565.041
66.3064
554.285
64.4289
543.845
62.5768
533.711
60.7608
523.874
58.9878
514.326
57.2609
505.058
55.58
496.065
53.9419
487.341
52.3413
478.883
50.7711
470.69
49.2234
462.761
47.6901
455.095
46.164
447.695
44.6389
440.561
43.1104
433.692
41.5761
427.09
40.0356
420.754
38.4903
414.682
36.9435
408.871
35.3996
403.318
33.8642
398.018
32.3429
392.967
30.8419
388.157
29.3665
383.583
27.9214
379.239
26.5103
375.116
25.1354
371.21
23.7976
367.514
22.496
364.023
21.2284
360.734
19.9894
357.639
18.783
354.749
17.5543
352.014
16.5234
14.6091
534.169
168.128
555.402
28.9382
587.161
-78.1652
620.375
-143.582
649.573
-165.605
673.582
-161.078
692.862
-145.118
708.093
-125.841
719.848
-106.864
728.553
-89.4558
734.383
-73.4022
737.037
-57.1188
735.537
-37.7122
728.737
-12.5158
717.178
16.6912
703.526
43.0207
690.994
59.7446
682.396
63.3549
679.747
53.2886
684.01
31.418
694.872
1.64171
710.316
-30.3859
727.263
-58.6728
743.24
-79.4607
757.162
-92.2524
768.97
-98.5891
779.052
-100.487
787.869
-99.5878
795.805
-96.9458
803.127
-93.1095
809.996
-88.2856
816.483
-82.4899
822.594
-75.6631
828.284
-67.7515
833.473
-58.766
838.058
-48.8266
841.925
-38.2029
844.949
-27.3155
846.961
-16.5457
847.71
-5.83494
846.899
5.2507
844.322
16.6939
839.897
28.1274
833.658
39.1515
825.729
49.4532
816.292
58.8211
805.56
67.1273
793.755
74.3047
781.099
80.3325
767.797
85.2276
754.038
89.0385
739.989
91.8397
725.793
93.7243
711.569
94.7966
697.416
95.165
683.413
94.9358
669.621
94.2096
656.085
93.078
642.841
91.6225
629.911
89.9147
617.311
88.0158
605.049
85.9782
593.128
83.8462
581.546
81.6572
570.299
79.442
559.379
77.2261
548.778
75.0297
538.487
72.8684
528.495
70.7527
518.794
68.689
509.375
66.6796
500.232
64.7227
491.36
62.8138
482.756
60.9459
474.417
59.1102
466.343
57.2976
458.534
55.4992
450.991
53.7071
443.714
51.9151
436.706
50.1188
429.966
48.3165
423.493
46.5085
417.286
44.6972
411.343
42.8868
405.66
41.0828
400.232
39.2918
395.054
37.5204
390.121
35.7751
385.426
34.062
380.961
32.386
376.721
30.7507
372.698
29.1583
368.887
27.609
365.281
26.1015
361.876
24.6331
358.67
23.1961
355.655
21.7979
352.842
20.3673
350.186
19.1789
16.9349
537.532
157.706
563.932
2.53792
598.68
-112.913
632.279
-177.18
660.339
-193.664
682.607
-183.346
699.987
-162.498
713.359
-139.213
723.394
-116.899
730.516
-96.5774
734.767
-77.653
735.561
-57.9124
731.577
-33.728
721.977
-2.91598
708.397
30.2721
694.321
57.0969
683.185
70.8803
677.693
68.8475
679.501
51.4806
688.916
22.0036
704.394
-13.8359
722.576
-48.5687
740.032
-76.1282
754.921
-94.3497
766.947
-104.278
776.583
-108.225
784.486
-108.39
791.231
-106.332
797.24
-102.955
802.796
-98.6652
808.066
-93.5561
813.132
-87.5557
818.007
-80.538
822.656
-72.4002
827.007
-63.1168
830.963
-52.7824
834.41
-41.6494
837.209
-30.1148
839.155
-18.491
839.92
-6.59996
839.124
6.04662
836.501
19.3168
831.943
32.6859
825.486
45.6086
817.278
57.661
807.537
68.5632
796.509
78.1555
784.447
86.3665
771.592
93.1881
758.16
98.6597
744.342
102.857
730.3
105.882
716.17
107.854
702.063
108.904
688.067
109.161
674.252
108.751
660.67
107.792
647.36
106.387
634.352
104.631
621.663
102.604
609.304
100.374
597.282
98.0009
585.595
95.5328
574.241
93.011
563.214
90.4692
552.505
87.9348
542.106
85.4291
532.006
82.9679
522.198
80.5617
512.671
78.2156
503.42
75.9307
494.439
73.7037
485.725
71.5282
477.275
69.3955
469.089
67.2957
461.168
65.2186
453.513
63.1545
446.125
61.0954
439.005
59.0352
432.153
56.9703
425.57
54.8994
419.255
52.8241
413.204
50.7477
407.415
48.6757
401.884
46.6145
396.604
44.5716
391.57
42.5543
386.775
40.5699
382.213
38.6244
377.876
36.7231
373.757
34.8693
369.851
33.0647
366.15
31.3093
362.651
29.6007
359.349
27.9356
356.24
26.3046
353.321
24.7173
350.6
23.0885
348.038
21.7401
19.176
541.755
141.45
572.733
-28.4406
609.473
-149.653
642.524
-210.232
668.799
-219.939
688.906
-203.452
704.107
-177.7
715.449
-150.554
723.677
-125.127
729.193
-102.093
731.84
-80.3005
730.641
-56.7126
723.974
-27.0609
711.733
9.32452
696.821
45.1847
683.302
70.6156
674.676
79.5069
673.401
70.1228
680.594
44.2875
695.535
7.06325
715.019
-33.3198
734.672
-68.2219
751.504
-92.9598
764.645
-107.491
774.528
-114.16
781.991
-115.688
787.825
-114.224
792.64
-111.146
796.861
-107.176
800.772
-102.575
804.542
-97.3266
808.261
-91.2739
811.949
-84.2265
815.581
-76.0319
819.092
-66.6279
822.392
-56.0819
825.37
-44.6268
827.881
-32.6258
829.686
-20.2958
830.387
-7.30142
829.523
6.91075
826.773
22.0674
822.007
37.4523
815.271
52.3442
806.744
66.188
796.681
78.6269
785.365
89.4716
773.076
98.655
760.072
106.193
746.574
112.157
732.772
116.659
718.819
119.834
704.841
121.833
690.935
122.81
677.178
122.917
663.63
122.299
650.334
121.088
637.322
119.4
624.615
117.338
612.228
114.991
600.168
112.435
588.437
109.732
577.033
106.937
565.951
104.092
555.185
101.235
544.726
98.3944
534.564
95.5913
524.69
92.8418
515.096
90.1555
505.775
87.5364
496.722
84.9838
487.933
82.4927
479.406
80.055
471.141
77.6606
463.138
75.2984
455.4
72.9574
447.927
70.6276
440.721
68.3013
433.783
65.9727
427.114
63.6392
420.713
61.3006
414.578
58.9595
408.705
56.6206
403.09
54.2903
397.729
51.9761
392.614
49.6863
387.739
47.4288
383.098
45.2112
378.683
43.0397
374.487
40.9193
370.503
38.8532
366.725
36.8425
363.148
34.8865
359.767
32.9819
356.577
31.1248
353.578
29.3038
350.765
27.5304
348.146
25.7073
345.689
24.1975
21.3233
546.929
119.717
581.8
-63.3106
619.275
-187.127
650.791
-241.747
674.75
-243.899
692.454
-221.156
705.378
-190.623
714.645
-159.821
721.043
-131.525
724.925
-105.974
725.891
-81.2665
722.523
-53.3445
713.164
-17.7013
698.798
23.6907
683.489
60.4933
671.643
82.4627
666.682
84.4675
670.7
66.1055
684.026
30.9614
704.26
-13.1708
726.473
-55.5326
746.177
-87.9258
761.467
-108.249
772.481
-118.505
780.178
-121.857
785.581
-121.091
789.511
-118.154
792.559
-114.195
795.137
-109.753
797.518
-104.957
799.88
-99.6884
802.319
-93.7125
804.868
-86.7753
807.51
-78.6737
810.189
-69.3068
812.821
-58.7136
815.3
-47.105
817.475
-34.8011
819.076
-21.8967
819.634
-7.8594
818.61
7.93529
815.637
25.0407
810.575
42.5141
803.491
59.4286
794.599
75.0803
784.195
89.031
772.599
101.068
760.113
111.141
747.006
119.3
733.502
125.662
719.781
130.38
705.986
133.63
692.228
135.591
678.591
136.447
665.139
136.37
651.919
135.519
638.966
134.041
626.304
132.062
613.948
129.694
601.908
127.031
590.188
124.155
578.787
121.133
567.701
118.022
556.925
114.869
546.45
111.71
536.268
108.576
526.37
105.489
516.748
102.464
507.395
99.5088
498.305
96.6263
489.475
93.8139
480.903
91.0648
472.588
88.3694
464.533
85.7163
456.738
83.0934
449.206
80.4894
441.939
77.8945
434.939
75.3014
428.206
72.7053
421.741
70.1046
415.541
67.5005
409.604
64.8966
403.926
62.299
398.501
59.7153
393.323
57.1537
388.386
54.6232
383.683
52.1322
379.206
49.6883
374.948
47.2978
370.902
44.9653
367.061
42.6936
363.421
40.4832
359.975
38.3324
356.719
36.2373
353.651
34.1929
350.769
32.1864
348.069
30.2301
345.559
28.2171
343.211
26.5456
23.371
553.436
92.8426
590.635
-100.509
627.413
-223.905
656.758
-271.093
678.228
-265.369
693.543
-236.471
704.288
-201.368
711.606
-167.139
716.256
-136.175
718.464
-108.182
717.546
-80.3479
711.701
-47.4992
699.703
-5.70367
683.911
39.483
669.257
75.1475
660.266
91.4539
660.158
84.5756
670.489
55.775
690.256
11.195
714.784
-37.6992
738.057
-78.8054
756.549
-106.417
769.709
-121.41
778.478
-127.273
784.1
-127.478
787.631
-124.622
789.85
-120.373
791.307
-115.651
792.386
-110.832
793.356
-105.927
794.399
-100.731
795.624
-94.9373
797.078
-88.2288
798.756
-80.3514
800.612
-71.1633
802.572
-60.6732
804.534
-49.0663
806.341
-36.6079
807.686
-23.2425
808.026
-8.19895
806.748
9.21405
803.451
28.3374
798.001
47.9643
790.495
66.9345
781.193
84.3821
770.435
99.79
758.57
112.933
745.921
123.79
732.76
132.461
719.305
139.117
705.725
143.961
692.147
147.207
678.666
149.072
665.352
149.761
652.254
149.467
639.409
148.364
626.842
146.608
614.569
144.335
602.6
141.663
590.939
138.691
579.589
135.506
568.545
132.177
557.803
128.764
547.355
125.316
537.194
121.872
527.31
118.46
517.696
115.103
508.345
111.815
499.252
108.602
490.413
105.465
481.827
102.401
473.492
99.3993
465.411
96.4503
457.586
93.5411
450.02
90.6594
442.716
87.7938
435.676
84.935
428.9
82.0765
422.391
79.2149
416.146
76.3496
410.163
73.4834
404.438
70.6213
398.967
67.7705
393.743
64.9394
388.759
62.1373
384.009
59.3734
379.485
56.6564
375.179
53.994
371.085
51.3922
367.195
48.8552
363.503
46.385
360.005
43.9815
356.695
41.6421
353.571
39.362
350.628
37.1353
347.867
34.9479
345.284
32.8126
342.887
30.614
340.651
28.7817
25.3166
559.452
62.3245
598.084
-139.141
633.836
-259.657
660.916
-298.172
679.833
-284.285
692.731
-249.369
701.359
-209.995
706.883
-172.663
709.955
-139.247
710.543
-108.77
707.549
-77.3535
698.898
-38.8484
684.371
8.82416
667.893
55.9609
654.952
88.0891
650.021
96.3849
655.985
78.6115
673.504
38.2566
699.24
-14.5409
726.285
-64.7441
748.915
-101.435
765.285
-122.787
776.066
-132.19
782.678
-133.885
786.434
-131.234
788.323
-126.51
789.042
-121.092
789.088
-115.696
788.818
-110.562
788.498
-105.607
788.318
-100.551
788.401
-95.0196
788.808
-88.6358
789.55
-81.0935
790.596
-72.2085
791.88
-61.9575
793.31
-50.4961
794.721
-38.0186
795.764
-24.2852
795.812
-8.24642
794.185
10.8407
790.464
32.0584
784.534
53.8945
776.539
74.9298
766.791
94.1306
755.672
110.91
743.559
125.046
730.786
136.563
717.621
145.626
704.27
152.468
690.886
157.345
677.577
160.516
664.422
162.227
651.474
162.71
638.77
162.172
626.333
160.8
614.182
158.76
602.325
156.192
590.767
153.221
579.508
149.95
568.547
146.467
557.879
142.845
547.497
139.147
537.393
135.42
527.56
131.705
517.989
128.031
508.674
124.418
499.61
120.879
490.793
117.419
482.221
114.037
473.894
110.727
465.815
107.479
457.986
104.28
450.41
101.117
443.09
97.9786
436.031
94.8531
429.234
91.7323
422.699
88.611
416.427
85.4869
410.416
82.3612
404.662
79.2379
399.159
76.1234
393.904
73.0261
388.888
69.9551
384.105
66.9204
379.547
63.9315
375.206
60.997
371.076
58.1245
367.149
55.3196
363.418
52.5858
359.879
49.9245
356.525
47.3347
353.354
44.8131
350.363
42.3537
347.548
39.95
344.909
37.5864
342.446
35.2762
340.163
32.8966
338.039
30.9056
27.1597
565.78
28.5345
605.174
-178.535
639.367
-293.85
663.792
-322.597
679.872
-300.365
690.175
-259.672
696.635
-216.455
700.445
-176.473
702.095
-140.897
701.156
-107.83
695.973
-72.1705
684.426
-27.3018
667.778
25.4729
651.508
72.2308
641.424
98.1736
641.839
95.9697
655.093
65.3579
680.045
13.305
710.215
-44.7108
737.595
-92.1247
758.197
-122.037
771.971
-136.561
780.412
-140.631
785.102
-138.576
787.266
-133.398
787.765
-127.009
787.203
-120.531
786.022
-114.515
784.558
-109.098
783.075
-104.125
781.775
-99.2511
780.796
-94.0403
780.217
-88.0562
780.063
-80.9393
780.317
-72.4628
780.931
-62.5708
781.819
-51.3842
782.807
-39.0065
783.496
-24.9736
783.171
-7.92133
781.097
12.9149
776.849
36.3059
770.352
60.3914
761.81
83.4724
751.591
104.35
740.119
122.382
727.79
137.374
714.939
149.414
701.823
158.743
688.63
165.661
675.493
170.483
662.499
173.509
649.71
175.017
637.161
175.258
624.879
174.455
612.876
172.803
601.161
170.474
589.738
167.616
578.606
164.353
567.763
160.793
557.204
157.026
546.922
153.127
536.91
149.159
527.16
145.17
517.665
141.2
508.417
137.278
499.412
133.423
490.646
129.645
482.117
125.948
473.825
122.329
465.773
118.779
457.964
115.288
450.401
111.842
443.089
108.429
436.032
105.036
429.232
101.653
422.691
98.2731
416.41
94.8923
410.386
91.5103
404.618
88.1295
399.1
84.7556
393.828
81.3961
388.793
78.0603
383.99
74.7581
379.411
71.4998
375.048
68.2949
370.893
65.1521
366.939
62.0784
363.179
59.0789
359.609
56.1564
356.222
53.3116
353.014
50.5425
349.982
47.845
347.123
45.2123
344.437
42.6368
341.921
40.102
339.576
37.6213
337.407
35.0656
335.394
32.9185
28.9015
572.326
-8.13874
611.858
-218.066
643.92
-325.912
665.321
-343.999
678.359
-313.403
685.95
-267.263
690.181
-220.686
692.284
-178.576
692.573
-141.186
690.13
-105.387
682.655
-64.6946
668.403
-13.0495
650.447
43.4288
635.525
87.1529
629.609
104.09
636.766
88.8137
658.264
43.8598
689.704
-18.1348
721.786
-76.7925
747.481
-117.82
765.219
-139.775
776.336
-147.676
782.688
-146.983
785.777
-141.665
786.651
-134.272
786.024
-126.382
784.406
-118.912
782.186
-112.295
779.686
-106.597
777.171
-101.61
774.857
-96.9373
772.902
-92.0851
771.403
-86.557
770.403
-79.9389
769.9
-71.9597
769.86
-62.5309
770.209
-51.7329
770.756
-39.5526
771.037
-25.255
770.249
-7.13265
767.615
15.5484
762.734
41.1876
755.587
67.5382
746.45
92.6095
735.751
115.049
723.947
134.186
711.445
149.876
698.569
162.29
685.557
171.754
672.575
178.644
659.73
183.328
647.092
186.148
634.7
187.409
622.577
187.38
610.737
186.295
599.185
184.356
587.92
181.739
576.941
178.594
566.245
175.05
555.824
171.214
545.672
167.178
535.782
163.017
526.146
158.795
516.755
154.561
507.604
150.352
498.686
146.196
489.998
142.111
481.538
138.105
473.307
134.179
465.307
130.329
457.541
126.545
450.014
122.815
442.731
119.126
435.696
115.464
428.913
111.819
422.384
108.182
416.11
104.547
410.091
100.911
404.324
97.2773
398.805
93.6484
393.529
90.0316
388.489
86.4358
383.679
82.8707
379.09
79.3469
374.715
75.8748
370.546
72.4638
366.576
69.1223
362.798
65.8566
359.206
62.6713
355.794
59.5683
352.558
56.5475
349.494
53.6062
346.6
50.7392
343.873
47.9389
341.313
45.197
338.919
42.4961
336.691
39.8495
334.634
37.1226
332.729
34.8231
30.5441
579.141
-47.3945
618.054
-256.979
647.373
-355.23
665.543
-362.169
675.576
-323.436
680.55
-272.237
682.594
-222.73
682.945
-178.927
681.755
-139.995
677.615
-101.248
667.651
-54.7297
651.099
3.50204
632.97
61.558
620.76
99.3632
620.497
104.353
635.765
73.5453
665.472
14.1535
701.07
-53.7335
732.338
-108.06
754.968
-140.45
769.59
-154.397
778.291
-156.377
782.918
-151.61
784.755
-143.502
784.644
-134.16
783.152
-124.89
780.701
-116.461
777.636
-109.23
774.262
-103.223
770.85
-98.1982
767.632
-93.7197
764.789
-89.2413
762.439
-84.207
760.646
-78.1456
759.425
-70.7392
758.76
-61.8655
758.584
-51.5565
758.68
-39.648
758.503
-25.0782
757.153
-5.78257
753.841
18.8608
748.215
46.8138
740.341
75.4122
730.575
102.375
719.401
126.223
707.3
146.288
694.676
162.501
681.833
175.134
668.982
184.605
656.26
191.365
643.751
195.837
631.5
198.399
619.531
199.378
607.855
199.057
596.471
197.678
585.378
195.449
574.571
192.547
564.041
189.124
553.782
185.309
543.786
181.21
534.044
176.92
524.547
172.514
515.287
168.055
506.258
163.59
497.453
159.157
488.869
154.78
480.504
150.476
472.358
146.251
464.433
142.104
456.733
138.029
449.264
134.015
442.03
130.049
435.037
126.119
428.289
122.212
421.789
118.319
415.54
114.431
409.541
110.546
403.79
106.662
398.284
102.783
393.018
98.9143
387.986
95.0639
383.18
91.2414
378.594
87.4574
374.218
83.7225
370.046
80.0471
366.069
76.4404
362.282
72.9101
358.676
69.4619
355.248
66.0996
351.992
62.8243
348.904
59.6351
345.982
56.5284
343.223
53.4982
340.626
50.5362
338.19
47.6333
335.915
44.7713
333.8
41.9635
331.853
39.0704
330.053
36.6223
32.0905
586.28
-88.0129
623.371
-294.07
649.539
-381.398
664.536
-377.166
671.804
-330.703
674.46
-274.893
674.564
-222.833
673.243
-177.606
670.411
-137.163
664.194
-95.0303
651.533
-42.068
633.221
21.8138
616.093
78.6865
608.058
107.398
615.011
97.4005
639.333
49.2244
675.693
-22.2063
712.213
-90.2538
740.538
-136.384
759.515
-159.426
771.21
-166.093
777.897
-163.063
781.19
-154.904
782.109
-144.42
781.293
-133.344
779.181
-122.778
776.115
-113.394
772.398
-105.512
768.319
-99.1435
764.154
-94.033
760.15
-89.716
756.511
-85.6015
753.381
-81.0771
750.849
-75.6133
748.952
-68.8425
747.692
-60.6047
747.008
-50.8722
746.647
-39.2869
745.959
-24.3902
743.945
-3.76812
739.832
22.9732
733.358
53.2887
724.692
84.0782
714.279
112.789
702.652
137.85
690.302
158.638
677.615
175.188
664.866
187.883
652.231
197.241
639.816
203.78
627.678
207.976
615.843
210.234
604.317
210.904
593.099
210.275
582.181
208.597
571.553
206.078
561.204
202.896
551.123
199.204
541.301
195.131
531.727
190.784
522.392
186.255
513.286
181.62
504.402
176.939
495.734
172.258
487.277
167.614
479.029
163.028
470.991
158.515
463.163
154.078
455.552
149.716
448.16
145.42
440.996
141.179
434.063
136.981
427.369
132.814
420.916
128.665
414.707
124.527
408.744
120.395
403.024
116.266
397.545
112.141
392.303
108.026
387.29
103.927
382.501
99.853
377.928
95.8148
373.562
91.8229
369.397
87.8882
365.424
84.0205
361.635
80.2286
358.026
76.5195
354.59
72.8983
351.321
69.3678
348.217
65.9284
345.274
62.5782
342.49
59.3128
339.862
56.1256
337.391
53.0075
335.075
49.9489
332.916
46.9308
330.913
43.9667
329.071
40.9123
327.373
38.3197
33.5439
592.136
-129.509
627.493
-329.426
650.619
-404.524
662.474
-389.02
667.043
-335.272
667.582
-275.432
666.061
-221.312
663.341
-174.886
658.889
-132.711
650.289
-86.4298
634.833
-26.6117
615.437
41.2102
600.555
93.5687
598.245
109.708
613.869
81.7767
646.908
16.1856
686.929
-62.2277
721.371
-124.696
745.602
-160.615
760.977
-174.802
770.181
-175.296
775.299
-168.18
777.624
-157.229
777.918
-144.713
776.646
-132.072
774.134
-120.266
770.655
-109.915
766.473
-101.33
761.86
-94.5307
757.093
-89.2652
752.431
-85.0544
748.1
-81.27
744.271
-77.2477
741.059
-72.402
738.532
-66.3145
736.708
-58.7812
735.531
-49.6945
734.697
-38.4529
733.431
-23.1241
730.642
-0.979163
725.614
28.002
718.2
60.7022
708.698
93.5803
697.641
123.846
685.601
149.89
673.061
171.178
660.377
187.871
647.783
200.478
635.417
209.607
623.351
215.847
611.615
219.711
600.217
221.633
589.149
221.972
578.397
221.027
567.947
219.047
557.783
216.242
547.891
212.789
538.256
208.839
528.866
204.521
519.71
199.94
510.777
195.188
502.058
190.339
493.547
185.45
485.238
180.567
477.129
175.723
469.219
170.938
461.51
166.224
454.006
161.582
446.712
157.009
439.636
152.496
432.783
148.032
426.159
143.605
419.77
139.203
413.618
134.817
407.705
130.44
402.031
126.069
396.593
121.704
391.387
117.347
386.407
113.006
381.646
108.687
377.097
104.402
372.752
100.16
368.604
95.9717
364.643
91.8487
360.864
87.8
357.258
83.8338
353.822
79.9561
350.549
76.1712
347.436
72.4811
344.479
68.8854
341.675
65.3814
339.024
61.9638
336.525
58.6256
334.175
55.3569
331.976
52.1476
329.929
48.9784
328.033
45.8627
326.293
42.6519
324.694
39.9193
34.9076
597.85
-171.527
631.138
-362.715
650.922
-424.308
659.392
-397.49
661.123
-337.003
659.556
-273.865
656.58
-218.336
652.708
-171.013
646.757
-126.76
635.618
-75.2903
617.625
-8.61827
598.223
60.6119
587.043
104.75
592.061
104.69
617.269
56.5686
657.046
-23.5908
697.063
-102.245
727.415
-155.048
747.293
-180.492
759.501
-187.01
766.725
-182.52
770.69
-172.145
772.364
-158.903
772.281
-144.631
770.764
-130.555
768.045
-117.547
764.336
-106.206
759.863
-96.8573
754.88
-89.5476
749.66
-84.0444
744.472
-79.8669
739.562
-76.359
735.124
-72.8099
731.304
-68.5821
728.199
-63.209
725.854
-56.4359
724.201
-48.0416
722.865
-37.1165
720.931
-21.1896
717.247
2.70493
711.19
34.0588
702.766
69.1272
692.407
103.939
680.732
135.52
668.335
162.288
655.675
183.838
643.063
200.483
630.685
212.856
618.635
221.657
606.954
227.528
595.646
231.019
584.701
232.578
574.099
232.574
563.817
231.308
553.835
229.029
544.132
225.944
534.691
222.23
525.495
218.035
516.53
213.485
507.785
208.686
499.248
203.725
490.911
198.676
482.768
193.593
474.815
188.52
467.053
183.486
459.481
178.51
452.104
173.601
444.927
168.759
437.957
163.979
431.201
159.253
424.665
154.568
418.355
149.915
412.276
145.283
406.429
140.664
400.814
136.055
395.43
131.453
390.273
126.861
385.337
122.283
380.617
117.726
376.104
113.2
371.791
108.715
367.669
104.281
363.731
99.9099
359.969
95.6106
356.376
91.3924
352.948
87.2624
349.678
83.2261
346.562
79.2867
343.598
75.4454
340.783
71.7009
338.114
68.0498
335.592
64.4863
333.215
61.0026
330.983
57.5886
328.897
54.2337
326.957
50.9181
325.164
47.6554
323.523
44.293
322.018
41.4247
36.1849
603.441
-213.755
634.322
-393.595
650.517
-440.503
655.471
-402.444
654.284
-335.815
650.564
-270.145
646.154
-213.926
641.187
-166.047
633.728
-119.3
620.075
-61.6371
600.227
11.2294
582.193
78.6464
576.324
110.619
590.146
90.8685
624.466
22.2491
667.631
-66.7559
704.563
-139.176