/*--------------------------------*- C++ -*----------------------------------*\
| =========                 |                                                 |
| \\      /  F ield         | OpenFOAM: The Open Source CFD Toolbox           |
|  \\    /   O peration     | Version:  4.1                                   |
|   \\  /    A nd           | Web:      www.OpenFOAM.org                      |
|    \\/     M anipulation  |                                                 |
\*---------------------------------------------------------------------------*/
FoamFile
{
    version     2.0;
    format      ascii;
    class       volVectorField;
    location    "200";
    object      U;
}
// * * * * * * * * * * * * * * * * * * * * * * * * * * * * * * * * * * * * * //

dimensions      [0 1 -1 0 0 0 0];

internalField   nonuniform List<vector> 
26785
(
(-2.71936e-15 0.031731 4.508)
(-2.62227e-15 0.0207249 3.97686)
(-2.56118e-15 0.0120169 3.65083)
(-2.50085e-15 0.00552757 3.48904)
(-2.45422e-15 0.00162856 3.42928)
(-2.43466e-15 -0.000256161 3.42192)
(-2.43147e-15 -0.000866859 3.43437)
(-2.34045e-15 -0.000821373 3.44897)
(-2.12156e-15 -0.000529139 3.45831)
(-1.98507e-15 -0.000188935 3.46082)
(-1.92412e-15 0.000169378 3.45718)
(-1.73764e-15 0.000630331 3.44781)
(-1.55853e-15 0.00132634 3.43136)
(-1.37693e-15 0.00235561 3.40435)
(-1.20233e-15 0.00371245 3.36196)
(-1.03361e-15 0.00525531 3.29984)
(-8.69206e-16 0.00672282 3.21669)
(-7.25277e-16 0.00781306 3.11597)
(-5.67578e-16 0.00828963 3.00522)
(-5.44461e-16 0.00805349 2.89392)
(-5.0815e-16 0.00715798 2.79116)
(-3.65369e-16 0.00579904 2.70389)
(-4.1546e-16 0.00423984 2.63614)
(-4.13113e-16 0.00267494 2.58945)
(-3.06821e-16 0.00121273 2.5632)
(-3.24104e-16 -6.51435e-05 2.55492)
(-2.92442e-16 -0.0010962 2.56082)
(-2.31854e-16 -0.00184558 2.57665)
(-2.3685e-16 -0.00230639 2.59838)
(-3.28105e-16 -0.00249108 2.62255)
(-4.56802e-16 -0.00242094 2.64634)
(-4.57457e-16 -0.00211909 2.66747)
(-4.72951e-16 -0.00160864 2.68411)
(-3.173e-16 -0.000915147 2.69476)
(-3.74244e-16 -7.23175e-05 2.69825)
(-5.21516e-16 0.000871982 2.69377)
(-5.3678e-16 0.00185169 2.68089)
(-5.71093e-16 0.00278228 2.65982)
(-5.8388e-16 0.00358083 2.63148)
(-6.53642e-16 0.00422125 2.59727)
(-5.28965e-16 0.00474926 2.55836)
(-4.49551e-16 0.00521216 2.51547)
(-4.45783e-16 0.00562325 2.4691)
(-6.40162e-16 0.00598399 2.41975)
(-7.55543e-16 0.00629617 2.36795)
(-9.63123e-16 0.00656313 2.31419)
(-1.1035e-15 0.00678887 2.25892)
(-1.12955e-15 0.00697692 2.20254)
(-1.17047e-15 0.00712986 2.14543)
(-1.27745e-15 0.00724928 2.0879)
(-1.17355e-15 0.00733619 2.03027)
(-1.09793e-15 0.00739135 1.97282)
(-1.16447e-15 0.00741568 1.9158)
(-1.20457e-15 0.00741045 1.85944)
(-1.25583e-15 0.0073774 1.80396)
(-1.2272e-15 0.0073187 1.74954)
(-1.47452e-15 0.00723688 1.69634)
(-1.64021e-15 0.0071347 1.64448)
(-1.63017e-15 0.00701504 1.59405)
(-1.73445e-15 0.00688077 1.54515)
(-1.88438e-15 0.00673464 1.49782)
(-1.94334e-15 0.00657926 1.4521)
(-1.93674e-15 0.00641703 1.40799)
(-2.09744e-15 0.00625011 1.3655)
(-2.23149e-15 0.00608046 1.32462)
(-2.27374e-15 0.00590983 1.28531)
(-2.27959e-15 0.00573975 1.24754)
(-2.28643e-15 0.00557154 1.21128)
(-2.33253e-15 0.00540629 1.17646)
(-2.3173e-15 0.00524491 1.14304)
(-2.55688e-15 0.00508802 1.11096)
(-2.72404e-15 0.00493604 1.08016)
(-2.76998e-15 0.0047891 1.05059)
(-2.87538e-15 0.00464715 1.02219)
(-3.05421e-15 0.00450992 0.994912)
(-2.85326e-15 0.00437698 0.968699)
(-2.77996e-15 0.00424781 0.943512)
(-2.99967e-15 0.00412185 0.919308)
(-3.15733e-15 0.00399855 0.896053)
(-3.30834e-15 0.00387739 0.873714)
(-3.34437e-15 0.003758 0.852264)
(-3.7149e-15 0.00364008 0.831675)
(-3.996e-15 0.00352351 0.811924)
(-4.01857e-15 0.00340828 0.792989)
(-4.45556e-15 0.00329448 0.774846)
(-4.76547e-15 0.00318233 0.757473)
(-4.86417e-15 0.00307209 0.740846)
(-4.9525e-15 0.00296403 0.724942)
(-5.0658e-15 0.00285847 0.709736)
(-5.15682e-15 0.00275565 0.695201)
(-5.24006e-15 0.00265578 0.681313)
(-5.33939e-15 0.00255898 0.668042)
(-5.42327e-15 0.00246526 0.655371)
(-5.53699e-15 0.00237457 0.643254)
(-5.56707e-15 0.00228665 0.631721)
(-5.98314e-15 0.00220137 0.620598)
(-6.17891e-15 0.00211741 0.610294)
(-6.30932e-15 0.00203638 0.599596)
(-6.41708e-15 0.00195 0.591908)
(-6.59929e-15 0.00184539 0.578172)
(-2.72032e-15 0.0783701 4.50204)
(-2.61907e-15 0.0537886 4.05977)
(-2.61351e-15 0.0336689 3.79992)
(-2.57135e-15 0.0170656 3.679)
(-2.61253e-15 0.00610935 3.6455)
(-2.63126e-15 0.000558219 3.65299)
(-2.61989e-15 -0.00123458 3.67055)
(-2.42002e-15 -0.00101857 3.683)
(-2.30619e-15 -2.96433e-05 3.68518)
(-2.21834e-15 0.00108353 3.67691)
(-2.05461e-15 0.00213777 3.65994)
(-1.898e-15 0.00328992 3.63587)
(-1.73984e-15 0.00491405 3.60493)
(-1.54096e-15 0.00742679 3.56516)
(-1.43713e-15 0.0110414 3.51235)
(-1.3347e-15 0.015503 3.44145)
(-1.04877e-15 0.0200047 3.35051)
(-8.11565e-16 0.0235075 3.24364)
(-6.75783e-16 0.0252573 3.12879)
(-4.94342e-16 0.0249684 3.01539)
(-4.73358e-16 0.0227986 2.91204)
(-2.96923e-16 0.0192183 2.82504)
(-2.37337e-16 0.0147502 2.75814)
(-2.347e-16 0.00986556 2.71382)
(-1.05648e-16 0.00509062 2.69153)
(-5.94696e-17 0.000933459 2.68728)
(-6.59658e-17 -0.00228222 2.69547)
(-7.49946e-18 -0.00446104 2.71072)
(5.16126e-17 -0.00567009 2.72873)
(-2.9665e-17 -0.00604531 2.74649)
(-1.07863e-16 -0.00572542 2.76193)
(-6.09648e-17 -0.00482366 2.77367)
(-7.01453e-17 -0.00342594 2.78073)
(-6.08687e-17 -0.00160272 2.78236)
(-1.49148e-16 0.00057273 2.77803)
(-1.47001e-16 0.00300565 2.76734)
(-1.60361e-16 0.00556284 2.75011)
(-2.24216e-16 0.0080586 2.72647)
(-2.91483e-16 0.0102933 2.697)
(-3.36462e-16 0.0121958 2.66254)
(-4.28605e-16 0.0138657 2.62364)
(-3.21407e-16 0.0153926 2.5807)
(-2.76673e-16 0.0167838 2.53404)
(-2.36036e-16 0.0180246 2.48406)
(-2.29094e-16 0.019108 2.43123)
(-2.45513e-16 0.0200365 2.37605)
(-5.13808e-16 0.0208183 2.319)
(-6.27856e-16 0.0214629 2.26057)
(-9.51257e-16 0.0219788 2.20119)
(-8.65568e-16 0.0223731 2.14129)
(-9.2679e-16 0.0226518 2.08123)
(-1.17515e-15 0.0228206 2.02137)
(-1.16092e-15 0.0228857 1.96202)
(-1.4238e-15 0.0228539 1.90345)
(-1.4011e-15 0.0227333 1.84589)
(-1.23185e-15 0.0225326 1.78955)
(-1.42844e-15 0.0222612 1.73456)
(-1.66028e-15 0.0219287 1.68107)
(-1.47601e-15 0.0215446 1.62916)
(-1.43697e-15 0.0211181 1.5789)
(-1.46839e-15 0.0206579 1.53033)
(-1.73461e-15 0.0201718 1.48347)
(-1.92563e-15 0.019667 1.43832)
(-1.69035e-15 0.0191501 1.39487)
(-1.61886e-15 0.0186267 1.35308)
(-1.66911e-15 0.0181018 1.31294)
(-1.72026e-15 0.01758 1.27438)
(-1.6088e-15 0.0170648 1.23737)
(-2.09139e-15 0.0165595 1.20184)
(-2.50151e-15 0.0160664 1.16774)
(-2.40729e-15 0.0155874 1.13501)
(-2.68995e-15 0.0151233 1.10358)
(-2.90217e-15 0.0146747 1.07341)
(-3.02904e-15 0.0142411 1.04443)
(-2.75538e-15 0.0138218 1.01658)
(-2.78073e-15 0.0134155 0.989831)
(-2.92083e-15 0.0130207 0.964124)
(-3.00977e-15 0.0126356 0.939424)
(-3.17029e-15 0.0122587 0.915693)
(-3.38922e-15 0.0118886 0.892899)
(-3.41191e-15 0.0115241 0.871013)
(-3.67587e-15 0.0111644 0.850008)
(-3.9641e-15 0.0108091 0.829859)
(-3.83498e-15 0.0104581 0.810542)
(-3.75433e-15 0.0101117 0.792032)
(-4.13301e-15 0.00977043 0.774305)
(-4.61617e-15 0.00943507 0.757338)
(-4.89579e-15 0.00910639 0.741104)
(-4.69662e-15 0.00878521 0.725577)
(-4.58564e-15 0.00847224 0.710732)
(-4.63906e-15 0.00816805 0.696542)
(-4.75088e-15 0.00787298 0.682978)
(-4.71141e-15 0.00758708 0.67002)
(-5.36355e-15 0.00731018 0.657625)
(-5.65278e-15 0.00704147 0.645822)
(-5.7033e-15 0.00678075 0.634439)
(-6.09399e-15 0.00652424 0.62388)
(-6.27622e-15 0.00627466 0.612932)
(-6.38522e-15 0.00602319 0.605024)
(-6.5478e-15 0.00568304 0.590944)
(-2.71614e-15 0.120775 4.45551)
(-2.66345e-15 0.0810141 4.09491)
(-2.69096e-15 0.04883 3.91343)
(-2.76991e-15 0.0228434 3.8639)
(-2.80717e-15 0.00673359 3.88339)
(-2.80759e-15 -0.000254099 3.92017)
(-2.76649e-15 -0.00138994 3.9482)
(-2.58522e-15 0.000272983 3.95905)
(-2.46236e-15 0.00280773 3.95224)
(-2.3117e-15 0.00529273 3.93013)
(-2.15126e-15 0.00749598 3.89567)
(-1.97605e-15 0.00966002 3.8512)
(-1.78862e-15 0.0123636 3.79771)
(-1.58983e-15 0.0163349 3.73417)
(-1.35295e-15 0.0220316 3.65738)
(-1.25453e-15 0.0290554 3.5634)
(-1.01091e-15 0.035982 3.45271)
(-8.52689e-16 0.0410884 3.33159)
(-6.97438e-16 0.0432256 3.20891)
(-5.16854e-16 0.0420165 3.09407)
(-4.90242e-16 0.037805 2.99529)
(-1.62536e-16 0.0313719 2.91823)
(1.02254e-16 0.0234561 2.86573)
(9.39128e-17 0.0149615 2.83823)
(1.56342e-16 0.00706864 2.83112)
(1.72245e-16 0.000722256 2.83707)
(2.57404e-17 -0.00370328 2.8492)
(-3.19823e-17 -0.00630502 2.86259)
(1.7981e-17 -0.00739829 2.87434)
(6.65459e-17 -0.00731866 2.88292)
(8.63203e-17 -0.00633153 2.88758)
(1.5848e-16 -0.00461827 2.88795)
(1.58785e-16 -0.00229736 2.88375)
(5.84694e-17 0.000544229 2.87478)
(2.35528e-17 0.0038193 2.86086)
(6.01904e-18 0.00741321 2.84186)
(-2.56935e-17 0.0111598 2.81774)
(-6.22746e-17 0.0148212 2.78865)
(-9.74661e-17 0.018143 2.75508)
(-1.3667e-16 0.0210523 2.71758)
(-1.77255e-16 0.023701 2.67634)
(-2.12444e-16 0.0261984 2.63151)
(-2.51864e-16 0.0285311 2.58322)
(-2.92462e-16 0.0306563 2.5317)
(-3.38473e-16 0.0325443 2.47729)
(-3.78659e-16 0.0341825 2.4204)
(-4.2918e-16 0.0355702 2.36148)
(-4.72192e-16 0.0367129 2.30101)
(-5.35516e-16 0.0376189 2.23947)
(-5.82483e-16 0.0382976 2.17732)
(-6.40325e-16 0.0387599 2.115)
(-7.09356e-16 0.0390184 2.05293)
(-7.68315e-16 0.0390876 1.99145)
(-8.59457e-16 0.0389837 1.93087)
(-8.64314e-16 0.0387246 1.87146)
(-1.12825e-15 0.0383287 1.81342)
(-1.37451e-15 0.0378148 1.75691)
(-1.24324e-15 0.0372011 1.70205)
(-1.17838e-15 0.0365053 1.64892)
(-1.18412e-15 0.0357435 1.59758)
(-1.15992e-15 0.0349306 1.54804)
(-1.26299e-15 0.0340799 1.50033)
(-1.32927e-15 0.0332034 1.45441)
(-1.34508e-15 0.0323115 1.41027)
(-1.3357e-15 0.0314133 1.36787)
(-1.49682e-15 0.0305167 1.32716)
(-1.29787e-15 0.0296287 1.28808)
(-1.15468e-15 0.0287548 1.25059)
(-1.20896e-15 0.0278998 1.21461)
(-1.26618e-15 0.0270671 1.18008)
(-1.32733e-15 0.0262592 1.14694)
(-1.49787e-15 0.0254772 1.11513)
(-1.37392e-15 0.0247214 1.08458)
(-1.02441e-15 0.0239909 1.05524)
(-1.08409e-15 0.0232842 1.02706)
(-1.24525e-15 0.0225989 0.999982)
(-1.37049e-15 0.0219324 0.973969)
(-1.51239e-15 0.0212821 0.94898)
(-1.6616e-15 0.0206454 0.924977)
(-1.81132e-15 0.02002 0.901929)
(-1.97353e-15 0.0194042 0.879806)
(-2.06851e-15 0.0187968 0.858579)
(-2.54515e-15 0.0181973 0.838223)
(-2.7482e-15 0.0176056 0.818712)
(-2.82289e-15 0.0170223 0.80002)
(-2.94225e-15 0.0164484 0.782122)
(-3.08045e-15 0.0158849 0.76499)
(-3.2416e-15 0.0153332 0.748598)
(-3.28609e-15 0.0147945 0.73292)
(-3.65227e-15 0.01427 0.717926)
(-3.86305e-15 0.0137604 0.703591)
(-3.882e-15 0.0132663 0.689884)
(-4.26136e-15 0.0127875 0.676785)
(-4.4784e-15 0.0123237 0.66425)
(-4.59579e-15 0.0118737 0.652308)
(-4.63062e-15 0.0114364 0.640788)
(-5.01043e-15 0.0110083 0.630093)
(-5.21726e-15 0.0105844 0.619006)
(-5.33528e-15 0.0101895 0.610981)
(-5.51927e-15 0.00957895 0.596686)
(-2.71324e-15 0.155991 4.40599)
(-2.73253e-15 0.100966 4.12788)
(-2.80655e-15 0.0571887 4.0223)
(-2.89036e-15 0.0233453 4.03679)
(-2.93944e-15 0.00436796 4.09461)
(-2.93081e-15 -0.00204167 4.14656)
(-2.81177e-15 -0.00119401 4.17572)
(-2.72213e-15 0.0027117 4.1804)
(-2.60373e-15 0.00730844 4.16348)
(-2.44405e-15 0.0115652 4.1287)
(-2.27658e-15 0.0152738 4.07951)
(-2.0788e-15 0.018775 4.01846)
(-1.8928e-15 0.0228443 3.94647)
(-1.58113e-15 0.0284987 3.86229)
(-1.27372e-15 0.0363487 3.76253)
(-1.04181e-15 0.045695 3.64444)
(-8.47772e-16 0.0543699 3.51318)
(-5.52765e-16 0.0601242 3.37842)
(-3.77388e-16 0.0615934 3.25049)
(-2.67792e-16 0.0584268 3.13877)
(-1.53025e-16 0.0512506 3.05027)
(5.62497e-17 0.0411902 2.98853)
(2.27084e-16 0.0293906 2.95402)
(2.70606e-16 0.0175523 2.94268)
(2.98259e-16 0.00744981 2.94574)
(3.24486e-16 6.74547e-05 2.95463)
(3.28236e-16 -0.00453908 2.96361)
(3.37669e-16 -0.0068335 2.96983)
(3.45533e-16 -0.00738992 2.97227)
(3.20098e-16 -0.00667879 2.97081)
(3.82923e-16 -0.00501474 2.96559)
(5.00946e-16 -0.00258382 2.95677)
(4.79509e-16 0.000507011 2.94436)
(4.68472e-16 0.00418238 2.9283)
(3.36578e-16 0.0083585 2.90844)
(4.11547e-16 0.0129117 2.88465)
(4.01116e-16 0.0176503 2.8568)
(2.46824e-16 0.0222934 2.82494)
(4.28012e-16 0.0265468 2.78936)
(3.69151e-16 0.0303477 2.7503)
(2.36168e-16 0.0338949 2.70768)
(3.21722e-16 0.037306 2.66151)
(3.78148e-16 0.0405452 2.61187)
(1.47295e-16 0.0435425 2.55894)
(-3.26604e-17 0.0462431 2.50304)
(-1.37258e-16 0.0486136 2.44457)
(-1.02484e-16 0.0506374 2.38398)
(5.17198e-17 0.0523086 2.32178)
(9.31712e-17 0.0536292 2.25847)
(-1.81021e-16 0.0546071 2.19455)
(-2.84993e-16 0.0552563 2.13052)
(-5.49067e-16 0.0555967 2.0668)
(-6.11926e-16 0.0556525 2.00379)
(-3.87201e-16 0.0554516 1.94181)
(-3.45302e-16 0.0550241 1.88114)
(-3.74127e-16 0.0544006 1.82198)
(-7.18539e-16 0.053611 1.76449)
(-6.6762e-16 0.0526842 1.70879)
(-6.89953e-16 0.0516466 1.65494)
(-5.17586e-16 0.0505222 1.60299)
(-4.94854e-16 0.0493325 1.55295)
(-4.90126e-16 0.0480964 1.50481)
(-4.71445e-16 0.0468305 1.45853)
(-4.64082e-16 0.0455489 1.41409)
(-5.34113e-16 0.0442641 1.37144)
(-4.39211e-16 0.0429865 1.33051)
(-3.11729e-16 0.0417251 1.29124)
(-7.43272e-16 0.0404871 1.25358)
(-8.79547e-16 0.0392783 1.21744)
(-8.75548e-16 0.038103 1.18277)
(-6.24786e-16 0.0369638 1.1495)
(-5.78294e-16 0.0358619 1.11756)
(-3.93728e-16 0.0347969 1.0869)
(-3.71529e-16 0.0337674 1.05745)
(-9.09506e-16 0.0327708 1.02916)
(-8.59727e-16 0.0318038 1.00199)
(-8.58677e-16 0.0308628 0.975897)
(-6.77385e-16 0.0299441 0.950835)
(-6.58833e-16 0.0290442 0.926772)
(-8.15747e-16 0.0281603 0.903676)
(-9.61751e-16 0.0272901 0.881515)
(-1.10293e-15 0.0264322 0.860263)
(-1.24312e-15 0.0255859 0.839891)
(-1.41506e-15 0.0247516 0.820373)
(-1.5982e-15 0.0239299 0.80168)
(-1.75792e-15 0.0231222 0.783785)
(-1.73387e-15 0.0223302 0.76666)
(-1.78983e-15 0.0215555 0.750277)
(-1.78112e-15 0.0207997 0.734606)
(-2.24687e-15 0.0200644 0.719619)
(-2.1747e-15 0.0193505 0.705288)
(-2.43337e-15 0.0186584 0.691581)
(-2.98325e-15 0.017988 0.67848)
(-3.14887e-15 0.0173387 0.665938)
(-3.3659e-15 0.0167087 0.653986)
(-3.2111e-15 0.0160956 0.642452)
(-3.42132e-15 0.015499 0.631741)
(-3.03275e-15 0.0148979 0.620632)
(-3.04532e-15 0.0143737 0.612591)
(-3.27346e-15 0.0134765 0.598251)
(-2.72934e-15 0.182999 4.36497)
(-2.8294e-15 0.113886 4.16494)
(-2.89735e-15 0.0594537 4.12873)
(-3.0394e-15 0.0198556 4.19049)
(-3.07224e-15 0.000307392 4.26672)
(-3.06884e-15 -0.00401723 4.31907)
(-3.0411e-15 -0.000438909 4.34082)
(-2.87646e-15 0.00605435 4.33528)
(-2.72743e-15 0.0129067 4.30718)
(-2.54579e-15 0.0190914 4.2608)
(-2.35914e-15 0.0244705 4.19971)
(-2.16563e-15 0.0295218 4.12621)
(-1.90975e-15 0.0352847 4.04057)
(-1.6459e-15 0.0430789 3.94029)
(-1.28397e-15 0.0534602 3.82084)
(-1.10674e-15 0.0650052 3.6824)
(-9.28578e-16 0.0746772 3.53553)
(-6.67494e-16 0.0799389 3.39284)
(-4.51933e-16 0.0794765 3.26567)
(-2.70466e-16 0.0732423 3.16267)
(-1.62618e-16 0.0623352 3.0888)
(5.07296e-17 0.0482354 3.04477)
(2.38979e-16 0.0328109 3.02743)
(3.29476e-16 0.0185572 3.02743)
(3.78531e-16 0.00742238 3.03395)
(4.3089e-16 1.34845e-06 3.03961)
(3.26362e-16 -0.0041448 3.04115)
(3.50521e-16 -0.00582216 3.03793)
(4.22083e-16 -0.0057676 3.03045)
(3.83469e-16 -0.0044954 3.01948)
(3.5379e-16 -0.00230593 3.00562)
(3.22027e-16 0.0006488 2.98925)
(2.561e-16 0.00429605 2.97049)
(3.17492e-16 0.00858601 2.94928)
(3.17593e-16 0.0134485 2.92545)
(2.90163e-16 0.0187605 2.8988)
(3.02646e-16 0.0243167 2.8691)
(2.88085e-16 0.0298094 2.83622)
(2.83326e-16 0.0349245 2.80022)
(2.89917e-16 0.0396136 2.76107)
(2.88282e-16 0.0441022 2.71833)
(3.56519e-16 0.0484866 2.67189)
(2.0719e-16 0.0526922 2.62173)
(4.96385e-17 0.0566128 2.56803)
(5.57236e-17 0.0601652 2.51113)
(3.92575e-17 0.063295 2.45149)
(6.56439e-18 0.0659704 2.38964)
(-4.75394e-17 0.0681754 2.32614)
(-3.29146e-17 0.0699063 2.26153)
(-2.68783e-16 0.0711708 2.19639)
(-3.37104e-16 0.0719872 2.13121)
(-6.05545e-16 0.0723837 2.06645)
(-8.13495e-16 0.0723965 2.00253)
(-8.10305e-16 0.0720668 1.93978)
(-8.65513e-16 0.0714383 1.87846)
(-6.80497e-16 0.0705553 1.81878)
(-5.74725e-16 0.0694602 1.76088)
(-5.18925e-16 0.0681928 1.70487)
(-7.18359e-16 0.0667891 1.65081)
(-7.95362e-16 0.0652812 1.59872)
(-1.03367e-15 0.0636972 1.5486)
(-1.11213e-15 0.0620614 1.50043)
(-9.5337e-16 0.0603949 1.45418)
(-9.70738e-16 0.0587154 1.40978)
(-8.02703e-16 0.0570381 1.3672)
(-1.14458e-15 0.0553759 1.32635)
(-1.28883e-15 0.0537394 1.28718)
(-1.41964e-15 0.0521371 1.24961)
(-1.51327e-15 0.0505755 1.21357)
(-1.49528e-15 0.0490591 1.179)
(-1.44251e-15 0.0475906 1.14582)
(-1.46438e-15 0.0461707 1.11397)
(-1.04881e-15 0.0447983 1.08339)
(-1.25609e-15 0.0434711 1.05403)
(-1.54126e-15 0.0421853 1.02583)
(-1.43851e-15 0.0409367 0.998744)
(-1.79069e-15 0.0397207 0.97274)
(-1.65766e-15 0.0385325 0.947776)
(-1.6286e-15 0.0373681 0.923817)
(-1.47472e-15 0.0362242 0.900831)
(-1.30511e-15 0.0350981 0.878789)
(-1.84341e-15 0.0339884 0.85766)
(-2.07406e-15 0.0328947 0.837417)
(-2.02566e-15 0.0318174 0.81803)
(-2.33383e-15 0.0307577 0.799471)
(-2.51797e-15 0.0297173 0.781709)
(-2.60935e-15 0.0286984 0.764716)
(-2.61306e-15 0.0277029 0.74846)
(-2.66889e-15 0.0267329 0.732912)
(-2.42828e-15 0.02579 0.718041)
(-2.37059e-15 0.0248752 0.703819)
(-2.3632e-15 0.0239889 0.690215)
(-2.69015e-15 0.0231307 0.677207)
(-2.8194e-15 0.0222994 0.664752)
(-3.00761e-15 0.0214932 0.65288)
(-2.89436e-15 0.0207073 0.641419)
(-2.66084e-15 0.0199456 0.630775)
(-2.50077e-15 0.0191692 0.61973)
(-3.2957e-15 0.0185198 0.611739)
(-2.81935e-15 0.0173359 0.59748)
(-2.78273e-15 0.206293 4.33348)
(-2.90118e-15 0.122009 4.21207)
(-2.99413e-15 0.0574734 4.23183)
(-3.14832e-15 0.0143814 4.31894)
(-3.18509e-15 -0.00391475 4.39725)
(-3.15589e-15 -0.00533459 4.44127)
(-3.10895e-15 0.0012013 4.45154)
(-2.95177e-15 0.0102896 4.43413)
(-2.74977e-15 0.0193531 4.39461)
(-2.59317e-15 0.0274262 4.3375)
(-2.4784e-15 0.0344699 4.26632)
(-2.17903e-15 0.0411585 4.18296)
(-1.88676e-15 0.0488936 4.08654)
(-1.63758e-15 0.0592619 3.97262)
(-1.33796e-15 0.0724389 3.83604)
(-1.04442e-15 0.0858332 3.6826)
(-7.49637e-16 0.0956741 3.52698)
(-5.99779e-16 0.0993833 3.38363)
(-4.91988e-16 0.095941 3.26395)
(-2.57484e-16 0.0858425 3.17516)
(3.60531e-17 0.0707405 3.11967)
(1.96053e-16 0.0525879 3.09488)
(3.21869e-16 0.0342972 3.0923)
(4.99493e-16 0.0188407 3.09858)
(4.93618e-16 0.00779057 3.10347)
(4.51018e-16 0.00106977 3.10237)
(4.34149e-16 -0.00225531 3.09472)
(3.71091e-16 -0.00322151 3.08166)
(3.56882e-16 -0.0026191 3.06468)
(2.20341e-16 -0.000932726 3.04499)
(1.50544e-16 0.00159288 3.02342)
(6.64535e-17 0.00486128 3.00041)
(6.07219e-18 0.00884539 2.97613)
(5.58003e-18 0.0135284 2.95049)
(8.06689e-17 0.0188608 2.92333)
(2.62899e-16 0.0247282 2.89436)
(3.26521e-16 0.0309201 2.8633)
(2.90914e-16 0.0371142 2.82987)
(2.6746e-16 0.0429941 2.79397)
(3.10414e-16 0.0485373 2.75527)
(2.4104e-16 0.0539898 2.713)
(-6.81436e-19 0.0594065 2.66685)
(-6.97444e-17 0.0646542 2.61669)
(-2.21557e-16 0.0695734 2.56265)
(-2.6661e-16 0.0740408 2.50515)
(-2.08346e-16 0.0779753 2.44471)
(-1.85165e-16 0.081329 2.38196)
(-1.86276e-16 0.0840775 2.31753)
(-1.99304e-16 0.0862151 2.25205)
(-2.48085e-16 0.0877526 2.18614)
(-3.0111e-16 0.0887164 2.12031)
(-3.96754e-16 0.0891461 2.05506)
(-5.11738e-16 0.0890915 1.99078)
(-6.22039e-16 0.0886088 1.9278)
(-7.36044e-16 0.0877571 1.86637)
(-8.04782e-16 0.0865945 1.80668)
(-8.54255e-16 0.0851766 1.74887)
(-8.05449e-16 0.0835543 1.69302)
(-1.0471e-15 0.0817731 1.63917)
(-1.14522e-15 0.079873 1.58734)
(-1.2071e-15 0.0778886 1.53752)
(-1.03938e-15 0.0758496 1.48966)
(-9.3483e-16 0.073781 1.44374)
(-9.99721e-16 0.071704 1.39968)
(-9.22656e-16 0.0696364 1.35743)
(-1.09035e-15 0.067593 1.31692)
(-1.3955e-15 0.0655859 1.27807)
(-1.86208e-15 0.0636244 1.24081)
(-2.0286e-15 0.0617156 1.20507)
(-2.38423e-15 0.0598639 1.17077)
(-2.33681e-15 0.0580716 1.13786)
(-2.11732e-15 0.0563387 1.10627)
(-2.1306e-15 0.0546633 1.07593)
(-2.27611e-15 0.0530419 1.04681)
(-1.85242e-15 0.0514698 1.01884)
(-1.65242e-15 0.0499416 0.991987)
(-1.80056e-15 0.0484518 0.966212)
(-1.64262e-15 0.046995 0.941477)
(-1.62882e-15 0.0455666 0.917749)
(-1.72279e-15 0.0441629 0.894997)
(-1.79642e-15 0.0427814 0.87319)
(-1.91358e-15 0.0414207 0.852299)
(-1.83211e-15 0.0400806 0.832293)
(-1.26182e-15 0.038762 0.813143)
(-1.21426e-15 0.0374665 0.794816)
(-1.98904e-15 0.0361962 0.777282)
(-2.41766e-15 0.0349537 0.76051)
(-2.55856e-15 0.0337413 0.744468)
(-2.66567e-15 0.0325613 0.729124)
(-2.72045e-15 0.0314152 0.714447)
(-2.75456e-15 0.0303042 0.700408)
(-2.66004e-15 0.0292284 0.686977)
(-2.9897e-15 0.0281869 0.674131)
(-3.13405e-15 0.0271779 0.661829)
(-2.98288e-15 0.0261995 0.6501)
(-2.66346e-15 0.0252446 0.638773)
(-2.58237e-15 0.0243214 0.628255)
(-2.66763e-15 0.0233731 0.617335)
(-2.35715e-15 0.0225989 0.609441)
(-1.46042e-15 0.021135 0.595349)
(-2.83664e-15 0.218866 4.32539)
(-2.96672e-15 0.124002 4.25696)
(-3.16009e-15 0.0523345 4.31693)
(-3.28993e-15 0.00802549 4.41886)
(-3.28825e-15 -0.00777057 4.49426)
(-3.23693e-15 -0.00583075 4.52784)
(-3.16612e-15 0.00375002 4.52556)
(-3.01126e-15 0.0153848 4.49561)
(-2.82551e-15 0.0265653 4.4444)
(-2.69676e-15 0.0364246 4.37675)
(-2.59086e-15 0.0450605 4.29605)
(-2.3004e-15 0.0534439 4.20344)
(-2.05562e-15 0.0634392 4.09646)
(-1.77619e-15 0.076732 3.96881)
(-1.43173e-15 0.0926724 3.81706)
(-1.15519e-15 0.107282 3.65362)
(-9.14474e-16 0.116334 3.49589)
(-5.9765e-16 0.117451 3.35887)
(-4.06958e-16 0.110135 3.253)
(-1.31631e-16 0.0956179 3.18353)
(5.51895e-17 0.0761016 3.14966)
(1.15468e-16 0.0544427 3.14428)
(3.07688e-16 0.0345296 3.15261)
(4.13429e-16 0.0191826 3.16017)
(3.95799e-16 0.00913335 3.15963)
(3.97189e-16 0.00357388 3.1498)
(2.93128e-16 0.00120992 3.1324)
(1.41005e-16 0.000916712 3.10979)
(1.75247e-16 0.00194367 3.08396)
(1.55849e-16 0.00388364 3.05633)
(8.41563e-17 0.0065684 3.02779)
(7.48211e-17 0.00996479 2.9988)
(6.51971e-17 0.0140941 2.96948)
(6.08075e-17 0.0189744 2.93978)
(3.43841e-17 0.0245797 2.90949)
(8.04969e-17 0.0308095 2.87833)
(1.84708e-16 0.0374571 2.84594)
(1.94046e-16 0.0441995 2.81197)
(1.75659e-16 0.0507381 2.77617)
(2.24032e-16 0.0570928 2.73798)
(9.20003e-17 0.063527 2.69629)
(3.3226e-17 0.0700336 2.65057)
(-7.25796e-17 0.0763984 2.60055)
(-1.70612e-16 0.0823892 2.54635)
(-1.4466e-16 0.0878292 2.48841)
(-1.38341e-16 0.0926039 2.42736)
(-1.98334e-16 0.0966486 2.36393)
(-5.47437e-17 0.0999339 2.29886)
(1.1797e-16 0.102457 2.23284)
(3.8131e-16 0.104239 2.16652)
(7.44299e-16 0.105317 2.10047)
(1.14733e-15 0.105748 2.03515)
(1.14232e-15 0.105596 1.97095)
(9.12543e-16 0.104935 1.90819)
(7.07117e-16 0.103839 1.84709)
(4.92483e-16 0.10238 1.78783)
(2.48132e-16 0.100628 1.7305)
(1.41133e-16 0.0986428 1.67519)
(-1.37839e-16 0.0964798 1.62191)
(-4.60099e-16 0.0941863 1.57066)
(-5.96319e-16 0.0918029 1.52143)
(-6.87346e-16 0.0893639 1.47417)
(-8.33171e-16 0.0868984 1.42883)
(-6.93795e-16 0.0844306 1.38534)
(-6.44972e-16 0.0819804 1.34364)
(-5.71347e-16 0.0795645 1.30365)
(-6.35085e-16 0.0771959 1.2653)
(-9.94545e-16 0.0748846 1.22852)
(-1.01929e-15 0.0726378 1.19323)
(-1.14447e-15 0.0704596 1.15937)
(-1.08839e-15 0.0683518 1.12686)
(-1.17538e-15 0.0663134 1.09566)
(-1.28595e-15 0.0643414 1.06569)
(-1.05268e-15 0.0624313 1.03692)
(-8.64675e-16 0.0605772 1.00931)
(-7.97445e-16 0.0587729 0.982795)
(-2.81694e-16 0.057012 0.957356)
(2.74474e-17 0.0552888 0.932955)
(-3.63026e-17 0.0535982 0.909559)
(-3.46881e-16 0.0519366 0.887138)
(-3.12699e-16 0.0503015 0.86566)
(-4.31395e-16 0.0486919 0.845094)
(-5.04007e-16 0.0471081 0.82541)
(5.88942e-17 0.0455513 0.806574)
(1.10153e-16 0.0440237 0.788556)
(-9.71981e-17 0.0425279 0.771321)
(-2.69259e-16 0.0410666 0.754837)
(-5.39308e-16 0.0396425 0.739071)
(-4.75613e-16 0.038258 0.723991)
(-5.28249e-16 0.0369146 0.709565)
(-6.91321e-16 0.0356132 0.695763)
(-7.29233e-16 0.0343534 0.682556)
(-1.18175e-15 0.0331343 0.669922)
(-1.40748e-15 0.0319529 0.65782)
(-1.67774e-15 0.0308072 0.646279)
(-1.27506e-15 0.0296878 0.635132)
(-1.05278e-15 0.0286067 0.624782)
(-4.5279e-16 0.0274909 0.614032)
(-5.75545e-16 0.0265914 0.606267)
(1.867e-16 0.0248562 0.592404)
(-2.94882e-15 0.228812 4.32753)
(-3.08999e-15 0.1229 4.30689)
(-3.28191e-15 0.0452128 4.39922)
(-3.3843e-15 0.00134455 4.50835)
(-3.38745e-15 -0.0109023 4.57576)
(-3.3125e-15 -0.00520673 4.59577)
(-3.1769e-15 0.00747177 4.57885)
(-3.03748e-15 0.0215577 4.53502)
(-2.90718e-15 0.0347046 4.47144)
(-2.691e-15 0.0461995 4.39312)
(-2.46958e-15 0.0563511 4.30299)
(-2.24068e-15 0.0665409 4.2009)
(-2.00118e-15 0.0790868 4.08237)
(-1.72642e-15 0.0954866 3.93944)
(-1.44043e-15 0.113742 3.77415)
(-1.05851e-15 0.128617 3.605)
(-7.51124e-16 0.135789 3.45094)
(-5.33271e-16 0.133304 3.32635)
(-3.29466e-16 0.121391 3.23999)
(-1.36641e-16 0.102143 3.19437)
(3.31048e-17 0.0783437 3.18437)
(1.41902e-16 0.0543247 3.19587)
(2.72455e-16 0.0343029 3.20974)
(3.77832e-16 0.0202372 3.21388)
(3.98266e-16 0.0118137 3.20523)
(3.92762e-16 0.00763066 3.18571)
(2.61048e-16 0.00621961 3.15866)
(2.37934e-16 0.00649244 3.12705)
(2.62382e-16 0.00780006 3.0931)
(2.12836e-16 0.00983753 3.05824)
(1.44564e-16 0.0125208 3.02335)
(9.042e-17 0.0158812 2.98886)
(3.84253e-17 0.0199883 2.95491)
(-8.92363e-18 0.024895 2.9214)
(-5.49646e-17 0.0306002 2.88813)
(-9.07841e-18 0.0370198 2.85479)
(2.47139e-17 0.0439551 2.82101)
(4.03916e-17 0.0510928 2.78638)
(7.79689e-17 0.0581724 2.75056)
(1.76481e-16 0.0652778 2.71277)
(1.09798e-16 0.072694 2.67157)
(-1.51338e-17 0.0803346 2.6262)
(-2.0963e-16 0.0878811 2.57627)
(-2.60347e-16 0.0950079 2.52188)
(-2.3818e-16 0.101469 2.46352)
(-2.36644e-16 0.10711 2.40193)
(-2.36983e-16 0.111848 2.33796)
(-2.53622e-16 0.115652 2.27243)
(-1.34315e-16 0.118531 2.20612)
(2.23471e-16 0.120519 2.13969)
(4.41688e-16 0.121673 2.07373)
(6.27586e-16 0.122068 2.00869)
(8.1105e-16 0.121789 1.94495)
(8.97411e-16 0.120925 1.88276)
(9.48067e-16 0.119567 1.82235)
(1.02316e-15 0.117802 1.76384)
(7.36727e-16 0.115709 1.70732)
(6.92948e-16 0.11336 1.65284)
(6.75819e-16 0.110817 1.6004)
(7.65556e-16 0.108136 1.55)
(7.49722e-16 0.105361 1.5016)
(5.65606e-16 0.102532 1.45514)
(3.77971e-16 0.09968 1.41058)
(2.39292e-16 0.0968331 1.36784)
(9.65972e-17 0.0940128 1.32685)
(8.40358e-17 0.0912371 1.28755)
(-1.78127e-16 0.0885197 1.24984)
(-5.62769e-16 0.0858711 1.21367)
(-7.596e-16 0.0832983 1.17895)
(-8.15129e-16 0.0808049 1.14563)
(-6.14684e-16 0.0783917 1.11364)
(-5.90667e-16 0.0760567 1.08293)
(-6.5933e-16 0.0737959 1.05343)
(-6.87242e-16 0.0716036 1.02512)
(-4.16079e-16 0.0694731 0.997943)
(-2.55099e-16 0.0673972 0.971865)
(-2.75918e-17 0.0653691 0.946851)
(3.56041e-16 0.0633828 0.922869)
(4.08677e-16 0.0614331 0.899887)
(3.78136e-16 0.0595166 0.877873)
(1.60134e-16 0.0576313 0.856798)
(-3.48832e-16 0.0557765 0.836628)
(-2.60277e-16 0.0539531 0.81733)
(-1.13157e-16 0.0521628 0.798872)
(-9.57481e-17 0.0504082 0.781219)
(-2.04949e-17 0.0486924 0.764337)
(-8.8562e-18 0.0470184 0.748192)
(2.73087e-17 0.045389 0.732749)
(-1.36355e-17 0.0438065 0.717977)
(2.29754e-16 0.0422724 0.703844)
(3.32528e-16 0.040787 0.690319)
(1.01673e-16 0.0393498 0.677373)
(-3.87893e-16 0.0379589 0.664987)
(-3.2528e-16 0.0366109 0.653118)
(-1.319e-16 0.035303 0.641799)
(1.0607e-16 0.034024 0.630864)
(3.61975e-16 0.0327888 0.620712)
(3.55781e-16 0.0315102 0.610165)
(5.12932e-16 0.030485 0.602553)
(9.82902e-16 0.0284883 0.58896)
(-3.03521e-15 0.235148 4.33781)
(-3.22744e-15 0.118823 4.3624)
(-3.3932e-15 0.0368681 4.47997)
(-3.45134e-15 -0.00483266 4.58852)
(-3.43552e-15 -0.012758 4.64274)
(-3.35535e-15 -0.00315844 4.64619)
(-3.24997e-15 0.0125123 4.61299)
(-3.0579e-15 0.0288468 4.55445)
(-2.9039e-15 0.0437297 4.47832)
(-2.64651e-15 0.056666 4.38965)
(-2.37212e-15 0.0682856 4.29065)
(-2.12219e-15 0.0804933 4.17934)
(-1.84475e-15 0.0959432 4.04852)
(-1.5429e-15 0.115487 3.88987)
(-1.24589e-15 0.135274 3.71421)
(-9.59527e-16 0.149246 3.54432)
(-6.88247e-16 0.153349 3.39965)
(-4.54806e-16 0.146269 3.29325)
(-4.35578e-16 0.129218 3.23161)
(-2.316e-16 0.105077 3.2133)
(1.13416e-17 0.0778244 3.2268)
(1.28323e-16 0.0530705 3.2497)
(3.20121e-16 0.0344293 3.26314)
(2.23642e-16 0.0225042 3.26005)
(2.0345e-16 0.016025 3.24172)
(3.24467e-16 0.0132397 3.21237)
(3.17492e-16 0.0126815 3.17615)
(2.55656e-16 0.0133843 3.13628)
(1.81755e-16 0.0148309 3.09492)
(1.66812e-16 0.0168253 3.05348)
(3.35852e-17 0.0193666 3.01277)
(-6.78388e-17 0.022549 2.97321)
(-1.14895e-16 0.0264886 2.93493)
(-2.64185e-16 0.0312733 2.89784)
(-3.65795e-16 0.0369268 2.86171)
(-3.06659e-16 0.043383 2.82624)
(-2.78488e-16 0.0504538 2.79101)
(-3.1339e-16 0.0578441 2.75561)
(-3.16926e-16 0.0653522 2.71962)
(-2.6751e-16 0.0731495 2.68206)
(-1.96761e-16 0.0815479 2.64117)
(-5.38742e-17 0.0903624 2.59598)
(-1.36524e-16 0.0991463 2.54598)
(-1.5773e-16 0.107459 2.49127)
(-1.00038e-16 0.114973 2.43243)
(-8.01377e-17 0.121486 2.37031)
(-6.97254e-17 0.126899 2.30586)
(-8.18886e-17 0.131188 2.24002)
(-9.03061e-17 0.134376 2.17361)
(-5.33612e-17 0.136521 2.10732)
(-6.14222e-18 0.137705 2.04172)
(6.58592e-17 0.138025 1.97725)
(1.53445e-16 0.137586 1.91424)
(2.6861e-16 0.136496 1.85292)
(3.78325e-16 0.134861 1.79346)
(5.71595e-16 0.13278 1.73597)
(4.33012e-16 0.130344 1.68051)
(4.94301e-16 0.127634 1.62709)
(4.40557e-16 0.124719 1.57571)
(3.48476e-16 0.12166 1.52634)
(2.5045e-16 0.118506 1.47895)
(2.96631e-16 0.115299 1.43346)
(3.3156e-16 0.112077 1.38983)
(4.17154e-16 0.108866 1.34798)
(3.19709e-16 0.105691 1.30783)
(2.2465e-16 0.102571 1.26932)
(3.13673e-17 0.0995205 1.23236)
(-3.5134e-16 0.0965493 1.1969)
(-4.79445e-16 0.0936641 1.16285)
(-4.9996e-16 0.090868 1.13016)
(-4.0914e-16 0.0881607 1.09877)
(-3.26865e-16 0.0855392 1.06863)
(-2.43082e-16 0.0829982 1.03969)
(-3.05852e-16 0.0805311 1.01191)
(-6.65239e-16 0.0781303 0.985253)
(-8.07062e-16 0.0757881 0.959682)
(-1.03526e-16 0.0734975 0.935165)
(8.47935e-17 0.0712523 0.911671)
(3.40111e-16 0.0690477 0.889169)
(5.01902e-16 0.0668807 0.867627)
(5.06458e-16 0.0647496 0.847013)
(8.31242e-17 0.0626545 0.827294)
(-1.71548e-16 0.0605969 0.808435)
(1.39748e-16 0.0585789 0.790402)
(-2.98681e-18 0.0566038 0.773159)