/*--------------------------------*- C++ -*----------------------------------*\
| =========                 |                                                 |
| \\      /  F ield         | OpenFOAM: The Open Source CFD Toolbox           |
|  \\    /   O peration     | Version:  4.1                                   |
|   \\  /    A nd           | Web:      www.OpenFOAM.org                      |
|    \\/     M anipulation  |                                                 |
\*---------------------------------------------------------------------------*/
FoamFile
{
    version     2.0;
    format      ascii;
    class       volScalarField;
    location    "1300";
    object      p;
}
// * * * * * * * * * * * * * * * * * * * * * * * * * * * * * * * * * * * * * //

dimensions      [0 2 -2 0 0 0 0];

internalField   nonuniform List<scalar> 
26785
(
742.203
739.12
736.65
733.624
729.281
723.149
715.498
707.351
700.216
695.359
693.017
692.596
693.278
694.469
695.898
697.727
700.711
705.623
713.101
722.807
733.347
743.323
751.794
758.251
762.472
764.377
763.915
761.041
755.209
745.213
730.411
710.609
686.117
657.823
626.98
595.043
563.533
533.693
506.439
482.703
463.594
450.533
445.032
448.437
461.57
484.568
516.89
558.023
607.34
663.182
723.285
785.255
846.72
905.692
960.811
1011.39
1057.33
1099.02
1137.35
1173.56
1208.86
1243.43
1275.82
1303.82
1325.95
1341.88
1352.03
1357.18
1358.25
1356.34
1352.67
1347.57
1341.04
1332.84
1318.78
1294.16
1258.89
1212.85
1155.47
1086.38
1005.92
915.938
820.628
725.87
637.568
563.538
505.368
458.146
417.782
380.801
344.562
308.193
271.634
235.042
198.734
162.837
127.506
91.57
56.4902
16.4171
742.185
739.119
736.652
733.63
729.289
723.151
715.488
707.324
700.178
695.32
692.985
692.574
693.265
694.46
695.885
697.701
700.666
705.559
713.029
722.745
733.306
743.305
751.796
758.273
762.51
764.432
763.987
761.143
755.345
745.352
730.525
710.665
686.093
657.717
626.796
594.798
563.247
533.379
506.098
482.329
463.176
450.063
444.512
447.879
460.993
483.987
516.288
557.41
606.763
662.673
722.871
784.959
846.545
905.627
960.833
1011.46
1057.42
1099.07
1137.29
1173.36
1208.55
1243.12
1275.62
1303.78
1326.07
1342.12
1352.34
1357.51
1358.53
1356.55
1352.85
1347.77
1341.33
1333.37
1319.52
1294.61
1259.04
1212.79
1155.27
1086.02
1005.32
914.977
819.273
724.127
635.361
561.516
504.039
457.43
417.54
380.868
344.772
308.453
271.892
235.269
198.926
163.033
127.754
91.9508
56.6241
16.7523
742.159
739.118
736.657
733.645
729.308
723.158
715.468
707.272
700.101
695.24
692.92
692.531
693.24
694.444
695.864
697.654
700.578
705.427
712.878
722.615
733.218
743.264
751.798
758.314
762.587
764.543
764.133
761.344
755.604
745.613
730.731
710.753
686.024
657.487
626.42
594.305
562.678
532.756
505.424
481.591
462.35
449.137
443.489
446.783
459.86
482.845
515.112
556.226
605.654
661.695
722.077
784.391
846.209
905.5
960.873
1011.61
1057.6
1099.19
1137.21
1173
1207.97
1242.53
1275.24
1303.72
1326.3
1342.58
1352.97
1358.17
1359.1
1356.97
1353.21
1348.18
1341.87
1334.32
1320.84
1295.4
1259.3
1212.71
1155
1085.53
1004.38
913.361
816.912
721.042
631.348
557.754
501.483
456.054
417.129
381.075
345.258
309.022
272.436
235.739
199.325
163.454
128.298
92.7647
57.0999
17.3317
742.122
739.112
736.662
733.664
729.335
723.166
715.438
707.193
699.986
695.122
692.825
692.468
693.206
694.424
695.841
697.599
700.468
705.254
712.674
722.436
733.095
743.204
751.8
758.373
762.699
764.705
764.348
761.633
755.966
745.975
731.01
710.858
685.9
657.133
625.858
593.574
561.833
531.83
504.416
480.485
461.109
447.745
441.947
445.126
458.146
481.117
513.342
554.463
604.009
660.238
720.891
783.537
845.693
905.29
960.906
1011.81
1057.87
1099.4
1137.2
1172.63
1207.26
1241.75
1274.72
1303.62
1326.63
1343.27
1353.89
1359.16
1359.95
1357.61
1353.73
1348.79
1342.64
1335.64
1322.65
1296.52
1259.77
1212.83
1154.93
1085.12
1003.29
911.243
813.705
716.817
625.704
552.388
497.783
454.069
416.567
381.403
345.979
309.861
273.246
236.447
199.911
164.033
129.037
93.8994
57.922
18.0492
742.077
739.104
736.668
733.689
729.369
723.176
715.399
707.092
699.838
694.971
692.705
692.39
693.165
694.404
695.818
697.542
700.345
705.052
712.433
722.222
732.945
743.131
751.803
758.449
762.843
764.915
764.626
761.999
756.415
746.417
731.34
710.961
685.713
656.654
625.107
592.597
560.697
530.577
503.049
478.985
459.429
445.862
439.864
442.892
455.841
478.8
510.982
552.132
601.835
658.304
719.306
782.383
844.975
904.963
960.891
1012
1058.17
1099.69
1137.28
1172.33
1206.56
1240.92
1274.16
1303.54
1327.08
1344.15
1355.12
1360.48
1361.08
1358.44
1354.38
1349.59
1343.58
1337.25
1324.9
1297.97
1260.57
1213.32
1155.16
1084.86
1002.06
908.658
809.808
711.787
618.79
545.728
493.183
451.684
416.018
381.97
347.022
311.032
274.38
237.461
200.748
164.822
130.022
95.4019
59.1896
18.8789
742.011
739.092
736.674
733.717
729.408
723.189
715.353
706.97
699.661
694.79
692.561
692.299
693.119
694.384
695.8
697.486
700.215
704.83
712.169
721.987
732.78
743.051
751.81
758.541
763.017
765.168
764.96
762.431
756.933
746.92
731.703
711.049
685.452
656.037
624.149
591.348
559.242
528.974
501.308
477.087
457.316
443.506
437.268
440.114
452.983
475.933
508.076
549.282
599.177
655.925
717.342
780.931
844.041
904.493
960.79
1012.15
1058.46
1100.01
1137.45
1172.14
1205.98
1240.18
1273.64
1303.52
1327.63
1345.24
1356.62
1362.12
1362.48
1359.44
1355.16
1350.57
1344.65
1339.08
1327.47
1299.74
1261.76
1214.19
1155.71
1084.76
1000.73
905.789
805.617
706.566
611.268
538.312
488.074
449.19
415.662
382.853
348.397
312.513
275.828
238.82
201.889
165.824
131.185
97.1126
60.7258
19.6866
741.925
739.076
736.679
733.749
729.453
723.203
715.301
706.831
699.457
694.583
692.397
692.196
693.07
694.368
695.788
697.435
700.084
704.595
711.887
721.739
732.609
742.971
751.824
758.649
763.218
765.458
765.343
762.918
757.504
747.464
732.08
711.106
685.099
655.261
622.96
589.807
557.456
527.023
499.209
474.817
454.802
440.716
434.197
436.834
449.616
472.567
504.685
545.987
596.109
653.162
715.044
779.211
842.895
903.865
960.576
1012.23
1058.7
1100.31
1137.66
1172.08
1205.56
1239.6
1273.25
1303.62
1328.32
1346.49
1358.38
1364.06
1364.14
1360.59
1356.02
1351.68
1345.75
1340.99
1330.16
1301.72
1263.29
1215.4
1156.54
1084.83
999.451
902.954
801.65
701.804
603.782
530.704
483.011
447.011
415.724
384.188
350.203
314.359
277.598
240.492
203.286
167.093
132.764
99.3132
62.8321
20.8308
741.839
739.056
736.681
733.781
729.502
723.22
715.244
706.679
699.231
694.353
692.216
692.084
693.019
694.355
695.782
697.391
699.955
704.353
711.597
721.488
732.438
742.894
751.847
758.773
763.443
765.781
765.766
763.45
758.114
748.033
732.457
711.112
684.632
654.306
621.525
587.969
555.349
524.738
496.768
472.192
451.903
437.505
430.667
433.067
445.765
468.73
500.855
542.312
592.702
650.082
712.476
777.267
841.562
903.079
960.233
1012.19
1058.87
1100.57
1137.9
1172.11
1205.33
1239.23
1273.06
1303.86
1329.14
1347.89
1360.36
1366.28
1366.03
1361.8
1357.02
1353.02
1346.97
1342.89
1332.73
1303.96
1265.21
1216.98
1157.7
1085.21
998.471
900.599
798.562
698.467
597.682
523.617
478.566
445.784
416.55
386.04
352.38
316.499
279.739
242.747
205.258
168.667
134.423
101.307
64.5362
21.2904
741.75
739.028
736.68
733.814
729.555
723.24
715.186
706.514
698.985
694.102
692.02
691.964
692.968
694.347
695.785
697.356
699.833
704.109
711.305
721.239
732.274
742.827
751.881
758.913
763.69
766.133
766.223
764.015
758.749
748.616
732.816
711.045
684.032
653.16
619.84
585.835
552.92
522.118
493.983
469.209
448.616
433.87
426.672
428.806
441.425
464.424
496.608
538.286
589
646.744
709.703
775.159
840.08
902.15
959.756
1012.04
1058.92
1100.76
1138.12
1172.23
1205.27
1239.11
1273.11
1304.29
1330.08
1349.39
1362.51
1368.73
1368.06
1362.92
1357.94
1354.3
1348.16
1344.72
1335.31
1306.65
1267.55
1218.91
1159.23
1085.98
998.048
899.093
796.87
697.806
595.299
519.205
475.534
445.658
418.326
388.685
355.21
319.097
282.126
245.08
207.174
170.578
137.384
104.905
68.1142
23.3622
741.655
738.994
736.673
733.846
729.611
723.265
715.128
706.34
698.721
693.833
691.81
691.837
692.916
694.344
695.796
697.331
699.717
703.867
711.016
720.998
732.12
742.77
751.927
759.068
763.956
766.507
766.705
764.604
759.397
749.2
733.135
710.879
683.283
651.814
617.898
583.394
550.154
519.153
490.847
465.866
444.938
429.809
422.205
424.044
436.59
459.635
491.945
533.905
584.995
643.161
706.768
772.946
838.496
901.104
959.15
1011.75
1058.86
1100.85
1138.3
1172.4
1205.38
1239.24
1273.41
1304.91
1331.15
1350.96
1364.74
1371.33
1370.18
1364.21
1359.46
1356.13
1349.7
1346.66
1338.13
1309.48
1269.64
1220.54
1160.54
1086.73
997.959
898.233
796.384
699.259
594.171
517.124
475.449
447.577
420.959
391.656
358.088
321.626
284.762
248.658
211.279
172.886
136.577
102.289
67.4965
24.209
741.549
738.948
736.659
733.877
729.672
723.294
715.07
706.159
698.442
693.547
691.588
691.705
692.866
694.346
695.816
697.316
699.611
703.629
710.736
720.77
731.981
742.728
751.987
759.236
764.238
766.9
767.204
765.207
760.049
749.768
733.389
710.593
682.37
650.258
615.68
580.625
547.037
515.832
487.36
462.168
440.877
425.333
417.277
418.79
431.273
454.365
486.873
529.166
580.659
639.309
703.681
770.666
836.855
899.971
958.427
1011.33
1058.66
1100.84
1138.43
1172.61
1205.65
1239.61
1273.96
1305.72
1332.33
1352.54
1366.93
1374.01
1371.72
1364.61
1360.31
1357.68
1351.39
1348.38
1339.89
1311.9
1271.21
1221.69
1161.43
1087.28
998.17
898.25
797.583
701.768
592.018
513.909
474.559
450.1
424.448
395.974
362.772
326.232
287.912
249.898
212.055
174.364
137.879
102.324
66.8317
24.0163
741.445
738.895
736.639
733.906
729.736
723.328
715.015
705.973
698.149
693.248
691.357
691.569
692.816
694.354
695.845
697.312
699.516
703.4
710.468
720.561
731.86
742.701
752.059
759.417
764.532
767.305
767.712
765.814
760.692
750.306
733.555
710.17
681.283
648.477
613.167
577.511
543.558
512.155
483.528
458.13
436.457
420.473
411.923
413.082
425.518
448.656
481.426
524.102
575.981
635.15
700.42
768.333
835.192
898.784
957.605
1010.79
1058.33
1100.71
1138.49
1172.84
1206.06
1240.23
1274.77
1306.73
1333.59
1354.08
1368.9
1376.56
1373.04
1366.09
1362.34
1360.36
1354.04
1348.83
1339.01
1312.1
1272.46
1223.11
1162.92
1088.91
1000.09
900.706
801.662
707.076
600.387
519.956
478.658
454.342
428.91
399.856
366.284
329.687
291.459
253.062
214.539
176.383
139.403
103.107
66.9255
24.1794
741.34
738.827
736.61
733.934
729.804
723.369
714.965
705.783
697.846
692.937
691.117
691.43
692.769
694.368
695.882
697.319
699.432
703.182
710.219
720.372
731.76
742.691
752.145
759.608
764.836
767.717
768.223
766.415
761.316
750.797
733.609
709.595
680.011
646.457
610.344
574.039
539.711
508.128
479.369
453.781
431.714
415.281
406.204
406.994
419.408
442.593
475.699
518.798
570.996
630.669
696.961
765.943
833.525
897.566
956.701
1010.12
1057.87
1100.46
1138.49
1173.1
1206.62
1241.08
1275.83
1307.92
1334.93
1355.54
1370.64
1378.41
1374.06
1367.84
1364.9
1362.75
1356.4
1349.69
1338.8
1312.37
1273.64
1224.69
1164.82
1091.38
1003.37
905.167
807.819
713.276
610.411
535.775
493.941
465.887
438.897
407.259
371.941
334.255
295.257
256.092
216.828
177.985
140.382
103.715
67.3239
24.5449
741.231
738.746
736.572
733.959
729.876
723.418
714.92
705.592
697.533
692.616
690.869
691.288
692.724
694.388
695.929
697.337
699.359
702.98
709.992
720.209
731.681
742.697
752.243
759.807
765.144
768.129
768.727
767.001
761.912
751.22
733.528
708.856
678.544
644.186
607.194
570.195
535.493
503.761
474.91
449.166
426.713
409.841
400.22
400.639
413.065
436.307
469.854
513.4
565.801
625.895
693.293
763.487
831.86
896.338
955.733
1009.34
1057.27
1100.1
1138.41
1173.37
1207.3
1242.15
1277.12
1309.29
1336.33
1356.95
1372.1
1379.3
1376.05
1370.14
1366.97
1364.13
1357.95
1349.92
1338.58
1312.66
1274.79
1226.39
1167.06
1094.57
1007.92
911.549
815.884
721.668
622.364
550.763
508.469
477.228
448.382
414.738
377.972
339.187
299.273
259.234
219.259
179.806
141.607
104.527
67.9121
24.9534
741.117
738.65
736.526
733.984
729.954
723.475
714.883
705.402
697.213
692.286
690.616
691.144
692.68
694.413
695.983
697.365
699.297
702.796
709.792
720.074
731.624
742.72
752.353
760.013
765.454
768.537
769.218
767.563
762.472
751.549
733.295
707.947
676.874
641.652
603.7
565.969
530.906
499.076
470.198
444.357
421.55
404.273
394.104
394.158
406.63
429.939
464.077
508.102
560.555
620.915
689.438
760.961
830.199
895.108
954.713
1008.46
1056.56
1099.63
1138.27
1173.67
1208.12
1243.43
1278.62
1310.83
1337.87
1358.55
1373.56
1379.96
1378.2
1373.32
1370.36
1366.82
1360.07
1350.69
1338.67
1313.17
1276.05
1228.28
1169.66
1098.37
1013.62
919.688
825.606
731.897
637.389
569.473
525.278
490.326
458.672
423.026
384.771
344.819
303.937
262.976
222.221
182.122
143.322
105.77
68.8903
25.4992
740.982
738.536
736.47
734.007
730.037
723.541
714.855
705.215
696.886
691.948
690.357
690.999
692.639
694.443
696.045
697.404
699.246
702.633
709.625
719.971
731.591
742.759
752.471
760.222
765.76
768.934
769.691
768.095
762.991
751.755
732.899
706.863
674.996
638.84
599.844
561.349
525.959
494.114
465.304
439.453
416.341
398.702
387.978
387.668
400.208
423.603
458.516
503.094
555.453
615.878
685.459
758.378
828.54
893.883
953.653
1007.48
1055.73
1099.05
1138.08
1174
1209.08
1244.9
1280.33
1312.61
1339.7
1360.48
1375.37
1381.58
1380.49
1376.55
1374.03
1370.17
1362.4
1351.93
1339.15
1313.98
1277.54
1230.42
1172.6
1102.68
1020.2
929.199
836.858
743.728
653.026
588.402
543.451
504.919
470.193
432.384
392.471
351.179
309.179
267.223
225.654
184.897
145.502
107.482
70.336
26.1757
740.84
738.407
736.407
734.03
730.126
723.618
714.837
705.032
696.556
691.604
690.094
690.852
692.6
694.478
696.114
697.453
699.203
702.496
709.496
719.901
731.582
742.811
752.597
760.431
766.06
769.316
770.138
768.59
763.46
751.816
732.335
705.601
672.9
635.737
595.61
556.334
520.68
488.942
460.329
434.57
411.197
393.219
381.894
381.193
393.798
417.346
453.2
498.481
550.666
610.958
681.46
755.77
826.889
892.664
952.558
1006.43
1054.79
1098.39
1137.84
1174.37
1210.16
1246.55
1282.3
1314.75
1341.94
1362.87
1377.8
1384.17
1383.49
1380.04
1377.78
1373.85
1365
1353.56
1340.07
1315.18
1279.34
1232.89
1175.9
1107.42
1027.4
939.575
849.362
757.643
670.461
607.55
561.523
519.943
482.391
442.488
400.864
358.13
314.911
271.924
229.54
188.117
148.106
109.551
71.9954
26.8823
740.682
738.258
736.336
734.053
730.221
723.705
714.832
704.856
696.221
691.254
689.826
690.704
692.563
694.516
696.188
697.511
699.17
702.387
709.409
719.868
731.595
742.876
752.728
760.637
766.35
769.678
770.553
769.045
763.857
751.718
731.605
704.157
670.58
632.325
590.983
550.93
515.117
483.651
455.385
429.811
406.183
387.829
375.803
374.643
387.283
411.112
448.017
494.24
546.28
606.315
677.561
753.187
825.256
891.453
951.433
1005.29
1053.76
1097.65
1137.59
1174.8
1211.38
1248.46
1284.69
1317.4
1344.73
1365.91
1380.97
1387.51
1387.24
1384.08
1381.9
1377.96
1368.05
1355.5
1341.45
1316.8
1281.52
1235.75
1179.62
1112.54
1034.97
950.304
862.477
772.983
689.689
627.714
580.1
535.638
495.308
453.276
409.849
365.585
321.107
277.09
233.872
191.71
150.977
111.714
73.4686
27.4703
740.51
738.092
736.257
734.076
730.323
723.805
714.84
704.686
695.884
690.899
689.553
690.555
692.528
694.557
696.267
697.577
699.147
702.311
709.368
719.872
731.631
742.953
752.862
760.838
766.624
770.014
770.925
769.457
764.14
751.457
730.71
702.53
668.025
628.592
585.952
545.159
509.343
478.354
450.585
425.238
401.288
382.459
369.579
367.87
380.499
404.827
442.78
490.237
542.277
602.049
673.878
750.686
823.656
890.255
950.283
1004.1
1052.66
1096.86
1137.34
1175.31
1212.84
1250.87
1287.69
1320.67
1348.22
1369.68
1384.82
1391.52
1391.61
1388.66
1386.45
1382.5
1371.67
1357.82
1343.27
1318.86
1284.13
1239.07
1183.8
1118.09
1042.8
961.051
875.683
788.934
709.796
648.418
599.136
551.969
508.792
464.511
419.208
373.417
327.713
282.675
238.554
195.533
153.97
113.877
74.7292
27.9324
740.318
737.91
736.172
734.1
730.432
723.917
714.863
704.524
695.543
690.537
689.275
690.404
692.493
694.601
696.35
697.651
699.134
702.269
709.375
719.913
731.688
743.038
752.996
761.031
766.88
770.321
771.251
769.822
764.272
751.036
729.653
700.715
665.226
624.521
580.516
539.063
503.454
473.172
446.009
420.848
396.438
376.993
363.095
360.763
373.318
398.402
437.366
486.307
538.571
598.188
670.496
748.32
822.107
889.071
949.112
1002.85
1051.49
1096.04
1137.11
1176.01
1214.83
1253.95
1291.33
1324.6
1352.4
1374.14
1389.34
1396.18
1396.57
1393.76
1391.43
1387.43
1375.9
1360.72
1345.53
1321.37
1287.2
1242.87
1188.5
1124.12
1050.95
971.733
888.648
804.709
729.504
668.523
617.513
568.055
522.202
475.787
428.749
381.555
334.686
288.608
243.508
199.538
157.085
116.096
75.9467
28.3402
740.08
737.714
736.081
734.124
730.547
724.042
714.902
704.371
695.198
690.168
688.991
690.25
692.458
694.646
696.435
697.733
699.126
702.265
709.433
719.993
731.766
743.131
753.129
761.213
767.113
770.592
771.527
770.137
764.243
750.46
728.433
698.707
662.177
620.103
574.683
532.705
497.569
468.213
441.686
416.575
391.53
371.341
356.305
353.315
365.745
391.719
431.747
482.32
535.051
594.706
667.463
746.13
820.622
887.906
947.928
1001.55
1050.29
1095.22
1137.01
1177.19
1217.51
1257.65
1295.58
1329.18
1357.27
1379.27
1394.51
1401.49
1402.13
1399.42
1396.87
1392.75
1380.71
1364.39
1348.25
1324.34
1290.73
1247.17
1193.74
1130.72
1059.5
982.489
901.449
820.178
748.277
687.594
634.707
583.412
535.286
487.047
438.501
390.028
342.021
294.867
248.723
203.742
160.351
118.413
77.2169
28.7456
739.813
737.511
735.987
734.149
730.67
724.181
714.957
704.227
694.848
689.79
688.699
690.093
692.424
694.692
696.521
697.822
699.119
702.298
709.542
720.109
731.862
743.23
753.257
761.38
767.319
770.82
771.757
770.387
764.063
749.73
727.049
696.504
658.87
615.329
568.476
526.174
491.815
463.556
437.59
412.323
386.478
365.486
349.29
345.642
357.914
384.831
425.964
478.209
531.623
591.551
664.789
744.138
819.211
886.759
946.727
1000.24
1049.08
1094.47
1137.28
1179.03
1220.81
1261.92
1300.42
1334.4
1362.82
1385.07
1400.34
1407.43
1408.31
1405.67
1402.8
1398.48
1386.08
1368.87
1351.39
1327.74
1294.7
1251.94
1199.52
1137.89
1068.55
993.505
914.38
835.704
766.323
705.909
651.107
598.328
548.303
498.491
448.581
398.874
349.709
301.431
254.188
208.149
163.778
120.853
78.5936
29.1779
739.529
737.298
735.887
734.174
730.8
724.335
715.029
704.091
694.491
689.401
688.397
689.932
692.389
694.739
696.608
697.919
699.113
702.368
709.7
720.26
731.977
743.334
753.379
761.53
767.495
770.993
771.938
770.527
763.734
748.847
725.501
694.099
655.298
610.197
561.933
519.58
486.309
459.228
433.645
407.997
381.25
359.5
342.252
337.979
350.075
377.959
420.128
473.968
528.222
588.67
662.461
742.341
817.859
885.63
945.55
998.94
1047.92
1094
1138.13
1181.49
1224.66
1266.74
1305.85
1340.26
1369.05
1391.54
1406.82
1414.02
1415.1
1412.49
1409.25
1404.64
1392.03
1374.22
1355.03
1331.54
1299.08
1257.15
1205.79
1145.6
1078.06
1004.84
927.646
851.629
783.952
723.797
667.235
613.2
561.507
510.239
459.003
408.049
357.691
308.251
259.875
212.752
167.364
123.433
80.1309
29.6617
739.227
737.082
735.785
734.201
730.938
724.504
715.119
703.964
694.125
688.997
688.084
689.765
692.353
694.787
696.698
698.025
699.12
702.48
709.907
720.443
732.106
743.44
753.492
761.66
767.639
771.108
772.044
770.495
763.244
747.809
723.787
691.492
651.457
604.71
555.114
513.048
481.146
455.211
429.75
403.541
375.875
353.518
335.444
330.623
342.675
371.358
414.396
469.652
524.826
586.029
660.435
740.72
816.588
884.527
944.354
997.694
1047.02
1094.02
1139.56
1184.49
1229.03
1272.1
1311.87
1346.78
1375.97
1398.68
1413.95
1421.24
1422.49
1419.89
1416.23
1411.27
1398.57
1380.4
1359.51
1335.71
1303.85
1262.75
1212.49
1153.75
1087.94
1016.44
941.261
867.934
801.398
741.264
683.269
628.118
574.899
522.219
469.665
417.456
365.893
315.279
265.761
217.54
171.107
126.163
81.8733
30.2173
738.908
736.864
735.681
734.229
731.083
724.688
715.228
703.844
693.745
688.575
687.755
689.591
692.316
694.836
696.793
698.139
699.154
702.64
710.16
720.655
732.25
743.547
753.595
761.769
767.75
771.169
772.049
770.303
762.592
746.617
721.906
688.679
647.347
598.882
548.096
506.706
476.383
451.436
425.817
398.956
370.438
347.684
329.024
323.762
336.162
365.288
408.963
465.364
521.451
583.587
658.694
739.247
815.332
883.471
943.312
996.705
1046.5
1094.5
1141.49
1188
1233.9
1277.98
1318.48
1353.94
1383.55
1406.46
1421.72
1429.08
1430.48
1427.88
1423.76
1418.36
1405.69
1387.31
1365.18
1340.3
1308.96
1268.7
1219.55
1162.25
1098.05
1028.23
955.147
884.159
818.746
758.237
699.155
642.964
588.338
534.299
480.46
427.019
374.266
322.487
271.827
222.5
174.996
129.04
83.8273
30.8496
738.555
736.647
735.576
734.26
731.237
724.889
715.357
703.731
693.347
688.131
687.409
689.409
692.276
694.886
696.892
698.249
699.22
702.851
710.455
720.891
732.406
743.655
753.686
761.856
767.827
771.187
771.941
770.035
761.791
745.268
719.858
685.658
642.967
592.737
540.979
500.673
472.037
447.807
421.795
394.285
365.041
342.104
323.063
317.396
330.771
359.881
404.012
461.235
518.142
581.364
657.204
737.941
814.229
882.538
942.413
995.938
1046.3
1095.42
1143.9
1191.99
1239.26
1284.38
1325.66
1361.74
1391.78
1414.88
1430.11
1437.52
1439.05
1436.45
1431.86
1425.92
1413.45
1394.85
1372.05
1345.64
1314.38
1274.97
1226.92
1171
1108.32
1040.12
969.179
900.04
835.72
774.673
714.812
657.626
601.72
546.398
491.332
436.701
382.787
329.857
278.057
227.616
179.018
132.037
85.9248
31.5353
738.181
736.433
735.471
734.292
731.398
725.107
715.506
703.622
692.927
687.659
687.042
689.216
692.234
694.934
696.996
698.341
699.321
703.115
710.787
721.149
732.573
743.763
753.768
761.92
767.881
771.207
771.728
769.656
760.848
743.762
717.643
682.43
638.322
586.309
533.872
495.045
468.077
444.222
417.676
389.6
359.771
336.87
317.847
311.752
326.81
355.204
399.679
457.381
514.974
579.447
656.048
736.824
813.199
881.653
941.622
995.398
1046.45
1096.76
1146.77
1196.43
1245.07
1291.28
1333.4
1370.15
1400.65
1423.9
1439.09
1446.56
1448.21
1445.62
1440.58
1433.99
1421.88
1403
1379.9
1352.27
1320.3
1281.52
1234.58
1179.97
1118.68
1052.05
983.067
915.732
852.13
790.594
730.207
672.087
615.026
558.509
502.281
446.506
391.458
337.388
284.444
232.869
183.153
135.103
88.018
32.2241
737.803
736.219
735.364
734.327
731.569
725.344
715.678
703.517
692.48
687.156
686.651
689.012
692.188
694.98
697.108
698.407
699.457
703.429
711.148
721.423
732.751
743.876
753.84
761.959
767.907
771.191
771.4
769.086
759.757
742.099
715.26
678.996
633.421
579.645
526.896
489.888
464.43
440.604
413.483
384.973
354.69
332.084
313.546
307.323
324.411
351.455
396.052
453.913
512.082
577.957
655.116
735.751
812.157
880.799
940.984
995.146
1046.98
1098.52
1150.05
1201.28
1251.31
1298.65
1341.7
1379.2
1410.14
1433.49
1448.62
1456.18
1457.96
1455.39
1449.97
1442.71
1430.95
1411.84
1388.58
1360.32
1327.3
1288.53
1242.51
1189.13
1129.11
1064.02
996.835
931.254
868.157
806.193
745.415
686.429
628.321
570.692
513.36
456.478
400.311
345.098
290.988
238.245
187.376
138.175
89.9519
32.8662
737.421
736.005
735.258
734.366
731.749
725.602
715.874
703.415
692.001
686.617
686.234
688.796
692.139
695.027
697.229
698.452
699.624
703.788
711.533
721.714
732.945
743.996
753.902
761.975
767.883
771.051
770.966
768.345
758.519
740.285
712.711
675.36
628.276
572.806
520.165
485.237
460.996
436.92
409.267
380.475
349.863
327.739
308.954
303.264
322.969
349.061
393.187
450.818
509.607
576.801
654.245
734.639
811.081
880.005
940.549
995.201
1047.87
1100.64
1153.69
1206.48
1257.92
1306.49
1350.58
1388.88
1420.21
1443.58
1458.7
1466.38
1468.31
1465.8
1460.13
1452.24
1440.59
1421.51
1398.07
1369.51
1335.8
1296.56
1250.96
1198.58
1139.77
1076.19
1010.87
946.698
884.029
821.757
760.614
700.826
641.75
583.071
524.667
466.69
409.394
353.013
297.696
243.737
191.671
141.22
91.6773
33.4484
737.032
735.792
735.152
734.408
731.939
725.881
716.096
703.316
691.488
686.042
685.789
688.566
692.087
695.077
697.357
698.489
699.821
704.183
711.935
722.027
733.159
744.122
753.956
761.97
767.802
770.791
770.455
767.462
757.141
738.323
709.994
671.528
622.905
565.861
513.788
481.092
457.683
433.183
405.103
376.151
345.368
323.692
303.186
298.574
321.201
347.541
391.032
448.088
507.521
575.824
653.339
733.441
809.964
879.284
940.311
995.531
1049.05
1103.05
1157.61
1211.98
1264.93
1314.86
1360.1
1399.16
1430.77
1454.14
1469.3
1477.18
1479.29
1476.91
1471.12
1462.72
1450.87
1432.14
1408.47
1379.7
1345.67
1306.07
1260.55
1208.82
1151.12
1089.05
1025.49
962.444
899.969
837.553
776.028
715.483
655.482
595.778
536.303
477.208
418.748
361.15
304.572
249.343
196.034
144.25
93.2739
33.9979
736.624
735.58
735.047
734.455
732.14
726.185
716.346
703.221
690.941
685.43
685.317
688.323
692.033
695.133
697.487
698.539
700.05
704.603
712.36
722.369
733.392
744.254
754.005
761.945
767.673
770.434
769.876
766.456
755.631
736.215
707.113
667.504
617.333
558.888
507.859
477.43
454.414
429.418
401.058
372.012
341.237
320.004
299.599
295.966
318.283
346.025
389.192
445.685
505.785
574.919
652.32
732.119
808.789
878.617
940.221
996.062
1050.46
1105.71
1161.82
1217.85
1272.44
1323.86
1370.27
1409.96
1441.74
1465.13
1480.44
1488.61
1491
1488.81
1483.02
1474.22
1461.95
1443.77
1419.91
1390.99
1356.75
1317.04
1271.62
1220.35
1163.63
1103.01
1040.9
978.728
916.292
853.783
791.848
730.563
669.638
608.897
548.315
488.055
428.376
369.506
311.613
255.067
200.47
147.302
94.8648
34.5542
736.215
735.37
734.942
734.507
732.352
726.514
716.628
703.136
690.366
684.788
684.823
688.07
691.971
695.195
697.593
698.611
700.316
705.052
712.817
722.739
733.642
744.394
754.055
761.9
767.496
769.992
769.233
765.341
753.996
733.968
704.072
663.295
611.588
551.97
502.453
474.2
451.133
425.641
397.156
368.059
337.498
316.569
296.798
295.286
316.53
344.583
387.66
443.675
504.334
573.985
651.121
730.64
807.538
877.957
940.203
996.751
1052.12
1108.72
1166.48
1224.28
1280.61
1333.55
1380.99
1421.15
1453.04
1476.54
1492.13
1500.71
1503.51
1501.63
1495.94
1486.89
1474.11
1456.23
1432.53
1403.49
1369.13
1329.39
1284.13
1233.31
1177.48
1118.16
1057.25
995.605
933.217
870.563
808.17
746.122
684.244
622.424
560.685
499.205
438.251
378.059
318.807
260.908
204.986
150.409
96.536
35.1434
735.807
735.161
734.839
734.564
732.574
726.868
716.944
703.067
689.773
684.127
684.312
687.808
691.894
695.261
697.663
698.691
700.618
705.538
713.307
723.131
733.908
744.546
754.105
761.834
767.262
769.47
768.522
764.127
752.246
731.587
700.877
658.914
605.701
545.191
497.632
471.265
447.793
421.851
393.339
364.202
334.063
313.3
294.441
294.406
315.324
343.509
386.54
442.051
503.062
572.923
649.698
728.991
806.181
877.238
940.218
997.676
1054.23
1112.35
1171.86
1231.49
1289.54
1343.85
1392.11
1432.6
1464.63
1488.38
1504.41
1513.56
1516.93
1515.48
1510
1500.84
1487.63
1469.62
1446.3
1417.26
1382.84
1343.11
1298.02
1247.65
1192.72
1134.54
1074.49
1013.14
950.766
887.895
824.977
762.123
699.246
636.302
573.357
510.609
448.338
386.785
326.144
266.867
209.589
153.593
98.3186
35.774
735.405
734.954
734.738
734.626
732.806
727.247
717.296
703.025
689.18
683.462
683.791
687.538
691.802
695.32
697.701
698.767
700.97
706.056
713.822
723.544
734.193
744.712
754.155
761.745
766.961
768.873
767.741
762.821
750.391
729.078
697.535
654.383
599.709
538.639
493.417
468.401
444.353
418.008
389.517
360.369
330.848
310.234
292.548
294.278
314.361
342.853
385.793
440.718
501.845
571.662
648.033
727.156
804.671
876.4
940.29
998.981
1057.02
1116.83
1178.13
1239.54
1299.15
1354.56
1403.43
1444.2
1476.5
1500.69
1517.34
1527.25
1531.35
1530.47
1525.29
1516.12
1502.63
1484.29
1461.04
1432.22
1397.84
1358.18
1313.3
1263.43
1209.32
1152.03
1092.51
1031.33
968.898
905.719
842.205
778.493
714.576
650.47
586.281
522.231
458.612
395.673
333.621
272.943
214.283
156.862
100.209
36.4429
735.009
734.75
734.638
734.692
733.044
727.643
717.684
703.023
688.61
682.813
683.271
687.263
691.702
695.358
697.705
698.844
701.373
706.603
714.358
723.977
734.5
744.894
754.2
761.634
766.596
768.209
766.887
761.43
748.437
726.452
694.053
649.726
593.659
532.406
489.743
465.471
440.802
414.1
385.661
356.584
327.867
307.481
290.998
295.008
313.852
342.543
385.296
439.547
500.571
570.153
646.117
725.111
802.957
875.404
940.453
1000.74
1060.55
1122.15
1185.22
1248.24
1309.15
1365.42
1414.78
1455.91
1488.67
1513.51
1531.01
1541.87
1546.85
1546.65
1541.85
1532.75
1519.1
1500.51
1476.98
1448.26
1414.08
1374.56
1329.96
1280.62
1227.15
1170.44
1111.25
1050.14
987.55
923.975
859.795
795.181
730.19
664.892
599.434
534.057
469.067
404.72
341.239
279.139
219.073
160.22
102.192
37.1435
734.603
734.55
734.541
734.76
733.281
728.051
718.107
703.075
688.08
682.2
682.765
686.99
691.597
695.362
697.67
698.957
701.809
707.173
714.916
724.436
734.832
745.088
754.239
761.5
766.179
767.476
765.958
759.959
746.394
723.717
690.436
644.958
587.596
526.563
486.391
462.463
437.158
410.15
381.787
352.882
325.107
305.096
289.772
296.323
313.802
342.498
384.925
438.411
499.147
568.371
643.939
722.831
801.002
874.248
940.719
1002.89
1064.64
1128.06
1192.78
1257.23
1319.23
1376.23
1426.09
1467.74
1501.2
1526.95
1545.53
1557.5
1563.48
1564.04
1559.69
1550.71
1536.97
1518.22
1494.44
1465.58
1431.52
1392.2
1347.91
1299.01
1246
1189.67
1130.67
1069.53
1006.69
942.634
877.727
812.171
746.077
679.565
612.816
546.091
479.708
413.934
349.003
285.458
223.962
163.665
104.252
37.8696
734.208
734.355
734.446
734.828
733.512
728.459
718.563
703.188
687.603
681.633
682.289
686.732
691.491
695.329
697.596
699.134
702.275
707.766
715.498
724.922
735.188
745.291
754.267
761.345
765.732
766.671
764.955
758.415
744.267
720.883
686.698
640.082
581.533
521.092
483.205
459.373
433.446
406.18
377.908
349.282
322.536
303.145
288.918
297.567
314.026
342.611
384.552
437.193
497.504
566.297
641.492
720.297
798.805
872.959
941.051
1005.26
1069.02
1134.22
1200.48
1266.21
1329.17
1386.88
1437.36
1479.75
1514.17
1541.1
1560.96
1574.18
1581.24
1582.61
1578.77
1569.97
1556.19
1537.32
1513.38
1484.37
1450.29
1411.12
1367.08
1318.48
1265.8
1209.71
1150.78
1089.49
1026.32
961.705
896.016
829.48
762.256
694.507
626.443
558.347
490.548
423.323
356.92
291.905
228.952
167.197