/*--------------------------------*- C++ -*----------------------------------*\
| =========                 |                                                 |
| \\      /  F ield         | OpenFOAM: The Open Source CFD Toolbox           |
|  \\    /   O peration     | Version:  4.1                                   |
|   \\  /    A nd           | Web:      www.OpenFOAM.org                      |
|    \\/     M anipulation  |                                                 |
\*---------------------------------------------------------------------------*/
FoamFile
{
    version     2.0;
    format      ascii;
    class       surfaceScalarField;
    location    "1300";
    object      phi;
}
// * * * * * * * * * * * * * * * * * * * * * * * * * * * * * * * * * * * * * //

dimensions      [0 3 -1 0 0 0 0];

internalField   nonuniform List<scalar> 
52920
(
1923.31
-117.374
2052.77
-129.47
2197.9
-145.135
2364.61
-166.729
2557.54
-192.939
2773.02
-215.497
3000.89
-227.873
3228.02
-227.138
3443.89
-215.875
3645.43
-201.556
3835.83
-190.404
4020.46
-184.641
4202.77
-182.317
4380.97
-178.201
4545.01
-164.047
4675.24
-130.242
4747.7
-72.4676
4741.84
5.85238
4655.16
86.6722
4507.71
147.447
4325.95
181.752
4132.42
193.519
3943.58
188.826
3771.33
172.244
3625.08
146.242
3513.64
111.425
3446.02
67.6066
3437.6
8.41685
3511.94
-74.3572
3688.05
-176.114
3977.51
-289.471
4373.13
-395.637
4851.59
-478.463
5385.33
-533.751
5949.65
-564.32
6525.13
-575.493
7098.76
-573.635
7661.87
-563.114
8206.52
-544.66
8723.32
-516.803
9199.32
-476.005
9619.37
-420.053
9968.14
-348.779
10233.5
-265.321
10408.6
-175.123
10493.1
-84.5437
10487.7
5.37311
10396
91.7035
10227
169.006
9991.56
235.467
9703.96
287.596
9383.35
320.604
9051.38
331.962
8729.32
322.067
8434.68
294.629
8177.9
256.786
7958.14
219.748
7756.24
201.901
7528.24
228.001
7214.13
314.11
6770.89
443.236
6207.78
563.108
5582.4
625.383
4965.12
617.285
4413.96
551.151
3969.14
444.823
3656.07
313.072
3479.61
176.459
3409.57
70.0417
3393.71
15.8612
3400.21
-6.50026
3399.52
0.692074
3424.65
-25.1302
3722.36
-297.711
4357.54
-635.174
5156.09
-798.549
6081.53
-925.439
7117.79
-1036.26
8240
-1122.21
9413.27
-1173.27
10592.4
-1179.14
11714.8
-1122.4
12712.1
-997.291
13518.4
-806.251
14034.2
-515.862
14253.5
-219.31
14238.9
14.593
14026.2
212.753
13671.4
354.803
13249.5
421.903
12817.8
431.682
12420.9
396.881
12089
331.962
11829.5
259.435
11626
203.532
11449.5
176.535
11259.7
189.734
11046.8
212.942
10707.1
339.638
407.458
1951.11
-240.489
2086.36
-264.724
2237.45
-296.235
2410.6
-339.893
2610.13
-392.485
2832.02
-437.391
3065.76
-461.621
3297.87
-459.258
3517.3
-435.319
3720.33
-404.589
3909.33
-379.416
4088.93
-364.248
4262.13
-355.524
4427.87
-343.943
4579.09
-315.279
4700.72
-251.883
4770.25
-142.001
4763.38
12.7141
4673.77
176.275
4520.57
300.638
4331.03
371.282
4128.92
395.62
3931.77
385.97
3752.28
351.718
3600.55
297.969
3485.79
226.173
3417.83
135.554
3410.25
15.9837
3482.21
-146.332
3652.15
-346.067
3935.26
-572.588
4328.26
-788.646
4807.71
-957.923
5342.49
-1068.54
5904.48
-1126.32
6473.18
-1144.19
7036.44
-1136.91
7587.32
-1114
8119.41
-1076.75
8624.23
-1021.63
9089.1
-940.877
9498.73
-829.688
9837.52
-687.572
10093
-520.849
10258.6
-340.684
10334.1
-160.02
10320.9
18.564
10224
188.524
10052.5
340.52
9816.35
471.645
9529.45
574.487
9210.94
639.123
8882.72
660.171
8566.59
638.197
8280.64
580.573
8036.22
501.205
7834.88
421.09
7660.86
375.922
7470.01
418.843
7193.6
590.524
6775.6
861.233
6218.8
1119.91
5584.06
1260.12
4949.16
1252.18
4378.27
1122.04
3915.31
907.786
3588.62
639.761
3404.43
360.654
3331.05
143.414
3312.12
34.7949
3304.89
0.734629
3289.98
15.6076
3312.43
-47.5825
3566.8
-552.08
4122.53
-1190.9
4925.59
-1601.61
5892.19
-1892.04
6950.68
-2094.76
8061.7
-2233.23
9200.43
-2312
10338.5
-2317.24
11427.5
-2211.34
12408.4
-1978.18
13219.7
-1617.55
13749.3
-1045.51
13973.2
-443.184
13941.4
46.3817
13695.3
458.807
13302
748.096
12834.8
889.198
12346.1
920.359
11875.2
867.765
11449.7
757.427
11082.8
626.35
10774.9
511.403
10523.3
428.183
10310.3
402.776
10127.5
395.692
9874.23
592.914
742.238
1981.24
-368.867
2120.13
-403.621
2273.03
-449.138
2446.78
-513.654
2645.92
-591.638
2866.23
-657.71
3096.61
-692.013
3322.85
-685.506
3533.34
-645.81
3724.04
-595.299
3897.34
-552.721
4058.14
-525.057
4210.24
-507.629
4354.22
-487.929
4486.17
-447.24
4595.82
-361.541
4664.71
-210.894
4666.82
10.593
4589.22
253.865
4445.72
444.136
4261.59
555.403
4060.97
596.232
3862.67
584.259
3680.86
533.52
3526.92
451.899
3411.06
342.023
3344.01
202.596
3337.68
22.3018
3407.4
-216.06
3572.04
-510.725
3850.83
-851.382
4241.01
-1178.83
4714.55
-1431.47
5236.87
-1590.87
5781.23
-1670.68
6331.48
-1694.45
6879.73
-1685.17
7421.38
-1655.64
7950.29
-1605.67
8456.87
-1528.22
8926.54
-1410.55
9342.15
-1245.3
9686.52
-1031.95
9946.19
-780.52
10114.1
-508.599
10190.3
-236.253
10176.7
32.148
10079.2
286.021
9905.6
514.158
9663.86
713.383
9366.93
871.411
9034.09
971.966
8688.38
1005.87
8353.07
973.506
8047.3
886.341
7783.28
765.216
7566.37
637.997
7391.19
551.11
7225.57
584.459
6999.14
816.952
6635.98
1224.39
6118.46
1637.44
5501.55
1877.02
4868.19
1885.55
4289.79
1700.44
3815.98
1381.6
3480.68
975.063
3294.09
547.248
3223.25
214.256
3205.03
53.018
3187.19
18.5715
3161.25
41.5459
3164.82
-51.1511
3393.48
-780.734
3928.28
-1725.71
4712.43
-2385.76
5610.29
-2789.9
6560.6
-3045.07
7560.71
-3233.34
8614.91
-3366.2
9709.38
-3411.71
10795
-3296.92
11804.6
-2987.85
12666.9
-2479.87
13239.7
-1618.28
13484.9
-688.377
13448.7
82.5749
13175.9
731.633
12745.4
1178.59
12235
1399.64
11697.3
1458.05
11170.3
1394.7
10680.9
1246.9
10240.2
1067.02
9847.79
903.802
9511.12
764.852
9240.76
673.132
9055.79
580.661
8874.08
774.627
1001.96
2005.52
-498.086
2141.09
-539.199
2287.88
-595.933
2455.06
-680.845
2647.94
-784.534
2861.47
-871.249
3083.24
-913.787
3298.18
-900.452
3494.49
-842.134
3668.44
-769.257
3822.9
-707.19
3963.4
-665.564
4094.44
-638.674
4217.48
-610.979
4330.22
-559.983
4425.6
-456.931
4489.63
-274.936
4497.58
2.63826
4432.53
318.907
4302.86
573.801
4130.21
728.044
3937.53
788.903
3744.07
777.713
3565.15
712.426
3413.46
603.577
3300.27
455.206
3237.08
265.77
3234.1
25.2648
3303.59
-285.56
3465.8
-672.946
3741.44
-1127.03
4123.74
-1561.14
4581.7
-1889.43
5085.07
-2094.25
5614.78
-2200.39
6159.78
-2239.46
6712.83
-2238.23
7266.65
-2209.46
7811.25
-2150.28
8333.69
-2050.67
8817.03
-1893.89
9242.96
-1671.23
9593.95
-1382.95
9856.64
-1043.22
10024.7
-676.653
10099.2
-310.72
10082.3
48.9838
9980.88
387.453
9801.57
693.464
9550.2
964.755
9237.88
1183.73
8882.98
1326.87
8508.74
1380.11
8139.62
1342.62
7796
1229.96
7490.55
1070.66
7230.38
898.165
7019.55
761.938
6845.26
758.752
6650.08
1012.13
6345.58
1528.89
5887.34
2095.68
5313.71
2450.66
4705.42
2493.84
4138.22
2267.64
3667.15
1852.67
3333.81
1308.4
3155.22
725.847
3097.18
272.293
3086.9
63.3013
3063.67
41.8031
3033.74
71.4765
3013.33
-30.7464
3212.71
-980.11
3705.63
-2218.62
4403.3
-3083.44
5173.8
-3560.39
5999.01
-3870.28
6908.08
-4142.41
7915.62
-4373.74
9001.45
-4497.54
10098.3
-4393.73
11127.4
-4017.03
12020
-3372.47
12607.3
-2205.54
12844.3
-925.349
12779.7
147.182
12461.8
1049.47
11983.9
1656.53
11432.7
1950.79
10862.8
2027.99
10309.7
1947.76
9797.98
1758.65
9335.46
1529.54
8913.85
1325.41
8537.04
1141.67
8231.24
978.937
8045.79
766.107
7926.95
893.466
1190.76
2017.13
-621.176
2142.77
-664.849
2279.8
-732.963
2439.5
-840.563
2626.06
-971.097
2832.1
-1077.3
3043.88
-1125.58
3246.2
-1102.78
3427.66
-1023.6
3585.06
-926.662
3721.82
-843.954
3844.06
-787.812
3956.92
-751.542
4062.47
-716.535
4159.11
-656.636
4241.22
-539.039
4297.23
-330.96
4304.11
-4.25011
4244.53
378.479
4124.4
693.931
3962.09
890.34
3778.43
972.557
3592.08
964.059
3418.85
885.64
3272.34
750.079
3164.59
562.949
3107.4
322.942
3109.24
23.4137
3180.75
-357.079
3342.94
-835.151
3613.34
-1397.43
3982.33
-1930.14
4425.13
-2332.24
4921.34
-2590.47
5455.82
-2734.87
6014.41
-2798.05
6583.72
-2807.54
7151.17
-2776.92
7704.11
-2703.22
8229.41
-2575.98
8711.13
-2375.61
9132.45
-2092.56
9477.07
-1727.57
9732.51
-1298.67
9893.54
-837.676
9962.25
-379.442
9941.47
69.7645
9838.88
490.032
9659.41
872.933
9405.63
1218.53
9085.9
1503.45
8716.47
1696.3
8319.52
1777.06
7920.04
1742.09
7539.79
1610.21
7192.29
1418.17
6884.62
1205.83
6624.52
1022.04
6414.6
968.667
6218.99
1207.74
5952.49
1795.38
5550.53
2497.64
5030.08
2971.11
4462.1
3061.82
3921.24
2808.5
3465.45
2308.45
3145.18
1628.67
2986.78
884.25
2954.38
304.69
2961.43
56.256
2939.66
63.5705
2914.44
96.6955
2862.55
21.1507
3010.25
-1127.81
3425.02
-2633.4
4016.45
-3674.86
4671.45
-4215.4
5400.48
-4599.31
6241.61
-4983.54
7202.74
-5334.86
8250.33
-5545.14
9303.34
-5446.74
10291
-5004.73
11175.2
-4256.67
11760.4
-2790.75
11986.3
-1151.18
11901.7
231.73
11552.1
1399.06
11039.3
2169.4
10461.3
2528.76
9877.55
2611.74
9323.52
2501.8
8822.89
2259.28
8380.79
1971.64
7978.24
1727.96
7611.86
1508.05
7317.28
1273.51
7163.82
919.569
7127.33
929.956
1301.64
2012.37
-732.514
2127.12
-779.609
2256.33
-862.186
2410.28
-994.52
2590.3
-1151.13
2787.34
-1274.35
2987.71
-1325.95
3176.83
-1291.9
3343.73
-1190.51
3485.51
-1068.45
3605.92
-964.377
3711.52
-893.416
3808
-848.029
3898.16
-806.709
3981.35
-739.826
4052.89
-610.59
4102.04
-380.12
4105.58
-7.7985
4046.43
437.619
3930.67
809.679
3775.3
1045.7
3599.27
1148.58
3420.15
1143.16
3253.7
1052.09
3113.91
889.86
3013.21
663.628
2963.09
373.048
2970.76
15.7382
3046.3
-432.637
3208.3
-997.154
3470.64
-1659.79
3829.96
-2289.47
4271.86
-2774.14
4777.46
-3096.07
5324.81
-3282.23
5892.21
-3365.46
6462.54
-3377.87
7023.46
-3337.85
7564.78
-3244.55
8076.28
-3087.48
8543.75
-2843.09
8951.32
-2500.13
9282.72
-2058.97
9525.46
-1541.41
9675.15
-987.372
9735.22
-439.514
9710.01
94.9645
9609.75
590.297
9437.36
1045.31
9191.08
1464.81
8875.37
1819.16
8503.31
2068.35
8095.15
2185.22
7675.91
2161.33
7268.77
2017.34
6888.53
1798.41
6542.06
1552.29
6236.72
1327.38
5982.23
1223.15
5762.1
1427.88
5506.19
2051.28
5143.33
2860.5
4672.3
3442.14
4149.81
3584.31
3644.01
3314.31
3212.15
2740.31
2914.03
1926.79
2787.93
1010.35
2794.92
297.702
2829.09
22.0874
2814.07
78.5899
2796.56
114.21
2707.15
110.566
2794.77
-1215.43
3106.45
-2945.08
3589.4
-4157.82
4135.99
-4761.98
4768.07
-5231.38
5519.8
-5735.28
6392.57
-6207.63
7346.32
-6498.88
8293.92
-6394.35
9186.71
-5897.51
10039.5
-5109.42
10623.7
-3375.01
10850.4
-1377.88
10772.3
309.826
10428.5
1742.88
9918.7
2679.21
9347.68
3099.78
8779.53
3179.89
8252.04
3029.29
7792.71
2718.61
7408.07
2356.28
7066.42
2069.61
6759.28
1815.19
6538.67
1494.13
6466.7
991.54
6538.28
858.375
1334.33
1995.04
-834.296
2101.72
-886.298
2224.42
-984.895
2371.83
-1141.93
2543.68
-1322.99
2730.77
-1461.44
2919.96
-1515.15
3096.94
-1468.89
3250.66
-1344.24
3378.32
-1196.11
3483.93
-1069.99
3574.41
-983.904
3655.84
-929.467
3731.53
-882.411
3801.78
-810.078
3863.3
-672.122
3906.38
-423.204
3906.6
-8.02599
3846.02
498.193
3731.42
924.269
3579.97
1197.14
3409.74
1318.81
3237.28
1315.62
3077.89
1211.46
2945.59
1022.15
2852.8
756.412
2810.03
415.804
2824.23
1.52537
2904.2
-512.623
3064.03
-1156.99
3321.2
-1916.97
3683.13
-2651.4
4135.06
-3226.08
4648.65
-3609.68
5195.58
-3829.17
5754.06
-3923.93
6310.29
-3934.11
6855.53
-3883.09
7381.93
-3770.95
7880.16
-3585.72
8335.3
-3298.23
8730.39
-2895.22
9047.85
-2376.44
9274.42
-1767.98
9406.76
-1119.72
9450.15
-482.903
9411.81
133.295
9307.23
694.869
9139.69
1212.85
8903.96
1700.54
8599.72
2123.4
8234.9
2433.17
7826.03
2594.08
7397.43
2589.93
6973.63
2441.14
6571.02
2201.02
6196.76
1926.54
5856.61
1667.54
5561.09
1518.66
5305.66
1683.31
5038.63
2318.31
4694.74
3204.4
4262.39
3874.48
3783.53
4063.18
3315.76
3782.07
2911.96
3144.11
2641.79
2196.96
2558.1
1094.04
2620.43
235.379
2692.28
-49.7609
2683.16
87.709
2666.68
130.686
2549.86
227.388
2595.99
-1261.56
2769.62
-3118.72
3123.22
-4511.41
3544.77
-5183.53
4059.18
-5745.79
4693.71
-6369.81
5450.01
-6963.93
6277.71
-7326.58
7080.95
-7197.6
7834.57
-6651.13
8625.27
-5900.12
9201.19
-3950.93
9431.01
-1607.71
9386.51
354.323
9094.75
2034.65
8635.98
3137.98
8115.72
3620.04
7602.1
3693.51
7136.4
3494.99
6754.73
3100.28
6467.82
2643.18
6221.25
2316.19
6012.42
2024.02
5952.64
1553.91
6011.74
932.436
6189.73
680.388
1272.8
1970.51
-926.817
2069.03
-984.829
2184.79
-1100.67
2325.35
-1282.5
2489.36
-1487.01
2667.45
-1639.54
2846.69
-1694.39
3012.7
-1634.9
3154.22
-1485.77
3268.6
-1310.5
3360.33
-1161.73
3436.87
-1060.45
3504.67
-997.282
3567.28
-945.03
3625.45
-868.255
3676.96
-723.634
3713.32
-459.572
3709.25
-3.97242
3645.92
561.513
3530.6
1039.58
3381.1
1346.64
3215.26
1484.64
3048.88
1481.98
2896.65
1363.69
2772.25
1146.54
2687.65
840.993
2652.19
451.25
2672.97
-19.2722
2755.69
-595.353
2913.14
-1314.45
3172.9
-2176.74
3544.73
-3023.25
4002.23
-3683.59
4511.23
-4118.68
5047.19
-4365.13
5593.65
-4470.4
6139.56
-4480.03
6676.57
-4420.11
7196.08
-4290.46
7687.82
-4077.47
8135.28
-3745.7
8520.25
-3280.19
8823.68
-2679.88
9031.21
-1975.52
9140.47
-1228.98
9157.96
-500.403
9093.65
197.602
8969.47
819.044
8792.11
1390.21
8557.88
1934.76
8264.1
2417.18
7911.87
2785.39
7510.59
2995.36
7081.53
3018.99
6649.88
2872.79
6233.74
2617.16
5841.15
2319.13
5476.51
2032.17
5148.13
1847.04
4856.19
1975.25
4565.2
2609.29
4223.67
3545.92
3818.05
4280.11
3377.42
4503.81
2946.61
4212.88
2570.73
3519.99
2330.13
2437.56
2295.02
1129.16
2431.32
99.0802
2545.41
-163.85
2533.2
99.9272
2512.66
151.223
2414.89
325.162
2440.97
-1287.64
2410.71
-3088.45
2614.79
-4715.49
2899.24
-5467.99
3285.36
-6131.91
3793.69
-6878.14
4425.12
-7595.36
5105.77
-8007.24
5736.44
-7828.26
6311.57
-7226.26
6988.01
-6576.56
7558.62
-4521.54
7787.02
-1836.11
7785.16
356.185
7591.09
2228.71
7235.59
3493.48
6813.83
4041.8
6397.47
4109.88
6027.4
3865.06
5748.11
3379.57
5585.57
2805.73
5473.83
2427.93
5462.88
2034.97
5736.13
1280.66
5988.4
680.168
6272.76
396.028
1129.21
1938.81
-1009.63
2029.44
-1075.46
2139.56
-1210.79
2274.59
-1417.54
2431.5
-1643.93
2600.91
-1808.95
2770.44
-1863.93
2925.77
-1790.25
3055.44
-1615.44
3156.91
-1411.98
3235.17
-1240
3298.37
-1123.66
3353.52
-1052.44
3404.48
-995.995
3452.28
-916.055
3495.18
-766.551
3525.22
-489.62
3515.86
5.38203
3448.08
629.288
3330.29
1157.36
3181.24
1495.68
3018.82
1647.05
2858.14
1642.66
2713.09
1508.73
2596.75
1262.86
2520.25
917.481
2491.83
479.659
2518.18
-45.6346
2601.38
-678.565
2758.69
-1471.77
3026.45
-2444.5
3406.09
-3402.9
3861.41
-4138.91
4362.84
-4620.11
4892.94
-4895.23
5436.74
-5014.21
5981.37
-5024.66
6516.63
-4955.37
7033.06
-4806.89
7520.23
-4564.64
7960.87
-4186.35
8336.24
-3655.56
8626.03
-2969.68
8814.59
-2164.08
8900.28
-1314.67
8889.43
-489.55
8793.62
293.401
8638.3
974.363
8432.14
1596.36
8179.47
2187.44
7883.24
2713.4
7540.6
3128.03
7150.85
3385.1
6728.15
3441.69
6296.06
3304.87
5873.78
3039.45
5470.46
2722.45
5089.82
2412.81
4736.91
2199.96
4411.72
2300.44
4091.04
2929.97
3740.76
3896.2
3351.82
4669.05
2943.15
4912.48
2545.73
4610.3
2194
3871.72
1979.48
2652.08
2002.96
1105.69
2237.2
-135.159
2395.35
-321.998
2367.94
127.33
2328.53
190.641
2335.01
318.678
2342.34
-1294.96
2035.05
-2781.16
2090.91
-4771.34
2235.34
-5612.42
2490.12
-6386.69
2868.1
-7256.11
3360.89
-8088.15
3876.87
-8523.21
4331.27
-8282.66
4739.82
-7634.81
5250.78
-7087.52
5898.55
-5169.31
6199.49
-2137.04
6181.87
373.804
6053.57
2357.02
5804.31
3742.74
5498.2
4347.9
5204.22
4403.87
4979.23
4090.04
4901.41
3457.39
5010.28
2696.85
5149.53
2288.69
4765.64
2418.85
3327.84
2718.46
1482.58
2525.42
46.4484
1832.16
1884.64
1899.59
-1081.74
1985.03
-1160.91
2092.23
-1317.99
2222.24
-1547.56
2371.32
-1793.02
2531.61
-1969.25
2691.65
-2023.98
2836.91
-1935.51
2955.38
-1733.91
3044.55
-1501.16
3109.85
-1305.32
3160.09
-1173.9
3202.96
-1095.32
3242.85
-1035.89
3281.24
-954.458
3316.83
-802.148
3341.58
-514.38
3326.81
20.1449
3253.42
702.669
3131.72
1279.05
2981.95
1645.44
2822.23
1806.76
2666.96
1797.93
2529.03
1646.65
2420.64
1371.23
2351.79
986.318
2329.79
501.647
2360
-75.8676
2442.13
-760.707
2601.76
-1631.4
2879.31
-2722.06
3264.72
-3788.32
3718.87
-4593.07
4219.72
-5120.97
4752.32
-5427.83
5298.83
-5560.72
5843.73
-5569.58
6376.21
-5487.85
6887.29
-5317.97
7367.37
-5044.72
7798.87
-4617.86
8162.99
-4019.68
8438.52
-3245.21
8608.81
-2334.38
8673.51
-1379.37
8638.2
-454.242
8516.3
415.289
8331.42
1159.24
8087.17
1840.61
7796.68
2477.93
7477.87
3032.2
7132.89
3473.02
6752.3
3765.69
6339.44
3854.55
5912.65
3731.66
5490.42
3461.67
5082.64
3130.22
4692.71
2802.74
4322.2
2570.46
3968.2
2654.43
3616.46
3281.72
3251.35
4261.31
2872.13
5048.28
2489.76
5294.85
2120.67
4979.39
1787
4205.38
1582.96
2856.12
1691.08
997.573
2072.53
-516.605
2269.71
-519.182
2210.36
186.683
2118.45
282.559
2222.34
214.785
2117.18
-1189.8
1698.16
-2362.14
1601.92
-4675.1
1604.99
-5615.5
1728.14
-6509.84
1964.43
-7492.41
2296.64
-8420.36
2650.19
-8876.77
2967.28
-8599.75
3275.98
-7943.51
3617.54
-7429.07
4504.26
-6056.04
5033.01
-2665.79
4869.98
536.834
4673.72
2553.27
4516.85
3899.61
4389.79
4474.97
4325.77
4467.88
4336.45
4079.37
4049.22
3744.62
3084.73
3661.34
1698.54
3674.88
415.792
3701.6
-476.827
3611.08
-1086.02
3134.61
-1772.53
2518.68
2420.57
1854.73
-1150.92
1940.53
-1246.71
2045.26
-1422.73
2168.44
-1670.75
2308.77
-1933.37
2460.37
-2120.84
2611.79
-2175.41
2747.67
-2071.4
2855.45
-1841.7
2932.81
-1578.52
2985.68
-1358.2
3023.48
-1211.7
3054.47
-1126.32
3083.61
-1065.04
3112.98
-983.836
3141.82
-830.995
3161.96
-534.534
3141.9
40.2029
3062.27
782.286
2935.67
1405.64
2784.32
1796.78
2626.77
1964.3
2476.59
1948.1
2345.53
1777.7
2244.65
1472.1
2182.7
1048.25
2166.17
518.162
2198.59
-108.304
2278.7
-840.83
2443.22
-1795.92
2733.86
-3012.71
3128.1
-4182.56
3585.97
-5050.95
4090.87
-5625.87
4627.31
-5964.28
5174.69
-6108.1
5716.46
-6111.36
6242.26
-6013.65
6743.85
-5819.57
7212.36
-5513.23
7629.75
-5035.25
7977.7
-4367.63
8234.81
-3502.33
8384.4
-2483.98
8428.78
-1423.75
8373.9
-399.367
8236.01
553.168
8033.24
1362.01
7757.59
2116.26
7422.63
2812.88
7064.74
3390.08
6701.94
3835.82
6322.87
4144.75
5919.55
4257.88
5501.7
4149.5
5084.55
3878.82
4677.57
3537.2
4283.65
3196.66
3900.81
2953.3
3521.99
3033.25
3140.11
3663.6
2757.98
4643.43
2384.6
5421.66
2024.04
5655.41
1677.8
5325.63
1353.49
4529.69
1142.46
3067.14
1395.85
744.188
1945.46
-1066.22
2170.46
-744.185
2269.33
87.8152
2340.51
211.385
2335.21
220.085
1844.37
-698.965
1273.81
-1791.57
713.221
-4114.51
599.149
-5501.43
653.085
-6563.78
806.997
-7646.32
1027.72
-8641.07
1269
-9118.06
1490.32
-8821.06
1638.49
-8091.69
1784.75
-7575.34
2941.87
-7213.15
4233.95
-3957.87
4274.65
496.131
3681
3146.93
3130.4
4450.21
2493.35
5112.01
1826.08
5135.15
1097.92
4807.53
361.802
4480.75
-272.683
4295.82
-829.067
4231.27
-1343.49
4216.03
-1774.18
4041.78
-2182.02
3542.45
-2641.14
2977.8
2766.66
1814.83
-1217.82
1898.28
-1330.16
1997.45
-1521.91
2112.69
-1786
2244.93
-2065.62
2388.72
-2264.64
2531.9
-2318.6
2658.43
-2197.94
2755.48
-1938.76
2821.16
-1644.21
2862
-1399.05
2887.98
-1237.7
2907.84
-1146.2
2926.95
-1084.16
2947.91
-1004.8
2970.48
-853.577
2986.37
-550.431
2960.94
65.6187
2874.7
868.519
2742.65
1537.67
2589.23
1950.2
2433.45
2120.08
2287.98
2093.56
2163.28
1902.38
2069.15
1566.22
2013.11
1104.28
2001.09
530.158
2034.26
-141.496
2112.15
-918.73
2286.73
-1970.52
2596.56
-3322.55
3002.26
-4588.27
3464.28
-5512.98
3971.95
-6133.54
4509.64
-6501.98
5055
-6653.45
5590.75
-6647.11
6106.37
-6529.28
6593.54
-6306.74
7043.61
-5963.31
7438.19
-5429.83
7760.69
-4690.14
7990.87
-3732.51
8113.27
-2606.38
8134.5
-1444.98
8061.91
-326.776
7916.36
698.705
7711.01
1567.35
7422.05
2405.22
7051.44
3183.5
6649.52
3791.99
6257.21
4228.13
5870.59
4531.37
5473.84
4654.63
5066.61
4556.73
4658.34
4287.09
4256.48
3939.05
3862.7
3590.44
3471.15
3344.84
3070.46
3433.95
2660.46
4073.59
2261.96
5041.95
1893.12
5790.49
1551.37
5997.16
1221.89
5655.11
896.675
4854.91
659.352
3304.47
700.391
703.153
359.576
-725.403
-128.639
-255.968
-332.932
292.108
-760.247
638.7
-1037.27
497.11
-641.823
-1094.41
-96.0367
-2337.36
-101.933
-4108.62
-185.162
-5418.2
-225.698
-6523.24
-234.918
-7637.1
-221.895
-8654.1
-186.788
-9153.16
-147.828
-8860.02
-211.394
-8028.12
-535.832
-7250.9
-1126.75
-6622.23
-950.785
-4133.83
-424.422
-30.2321
-205.98
2928.49
-263.907
4508.13
-458.037
5306.15
-726.195
5403.31
-1038.3
5119.63
-1369.93
4812.38
-1737.75
4663.64
-2116.97
4610.49
-2429.56
4528.62
-2642.67
4254.89
-2826.54
3726.32
-3023.19
3174.45
2941.48
1773.05
-1282.75
1854.08
-1411.2
1948.19
-1616.03
2056.47
-1894.29
2181.19
-2190.35
2317.07
-2400.52
2451.69
-2453.23
2568.78
-2315.03
2655.25
-2025.24
2709.5
-1698.46
2738.63
-1428.19
2753.26
-1252.34
2762.63
-1155.57
2772.53
-1094.07
2785.99
-1018.27
2803.06
-870.653
2814.99
-562.371
2783.9
96.6964
2690.7
961.706
2553.03
1675.34
2397.39
2105.83
2243.11
2274.35
2101.86
2234.8
1982.79
2021.44
1894.39
1654.61
1843.1
1155.56
1834.87
538.37
1867.35
-173.992
1944.78
-996.171
2137.84
-2163.58
2471.08
-3655.79
2885.46
-5002.66
3348.18
-5975.7
3856.5
-6641.86
4394.3
-7039.79
4936.68
-7195.84
5464.35
-7174.79
5965.25
-7030.18
6429.96
-6771.46
6850.14
-6383.48
7208.16
-5787.86
7491.69
-4973.67
7683.57
-3924.39
7770.37
-2693.19
7763.86
-1438.49
7672.37
-235.288
7524.47
846.598
7331.88
1759.93
7052.37
2684.73
6665.86
3570.01
6227.48
4230.36
5802.13
4653.49
5401.37
4932.12
5007.64
5048.35
4611.42
4952.94
4214.75
4683.76
3821.42
4332.38
3430.81
3981.05
3032.68
3742.96
2611.92
3854.71
2176.47
4509.03
1764.28
5454.14
1400.8
6153.97
1075.91
6322.05
758.131
5972.89
415.457
5197.58
14.8764
3705.05
-522.465
1240.5
-1194.48
-53.3846
-1521.11
70.6584
-1720.54
491.544
-1846.41
764.563
-1504.87
155.573
-904.962
-1694.32
-667.901
-2574.42
-701.485
-4075.03
-808.334
-5311.35
-922.281
-6409.29
-1046.06
-7513.32
-1171.47
-8528.69
-1255.39
-9069.24
-1285.92
-8829.48
-1350.27
-7963.77
-1554.18
-7046.99
-1993.53
-6182.89
-2201.82
-3925.54
-2148.97
-83.0827
-2043.24
2822.76
-2053.69
4518.59
-2116.79
5369.24
-2217.54
5504.06
-2371.19
5273.28
-2585.46
5026.65
-2845.77
4923.95
-3078.07
4842.78
-3195.8
4646.35
-3203.66
4262.74
-3200.19
3722.85
-3250.48
3224.74
3044.75
1730
-1346.3
1809.63
-1490.84
1899.55
-1705.96
2000.89
-1995.63
2117.5
-2306.98
2244.95
-2527.97
2370.99
-2579.28
2479.06
-2423.11
2555.56
-2101.74
2598.92
-1741.83
2616.78
-1446.05
2620.38
-1255.95
2619.54
-1154.74
2620.65
-1095.19
2627.3
-1024.93
2639.66
-883.025
2647.97
-570.691
2610.78
133.872
2510.29
1062.18
2367.08
1818.53
2209.39
2263.51
2056.46
2427.28
1918.85
2372.4
1804.45
2135.83
1720.65
1738.4
1672.93
1203.25
1667.95
543.333
1698.42
-204.487
1780.21
-1077.98
2000.63
-2384.01
2355.58
-4010.76
2772.5
-5419.58
3233.47
-6436.68
3742.76
-7151.15
4281.35
-7578.39
4820.06
-7734.55
5335.83
-7690.57
5813.68
-7508.03
6242.62
-7200.41
6615.94
-6756.81
6919.9
-6091.82
7150.49
-5204.27
7294.91
-4068.81
7340.26
-2738.55
7302.24
-1400.48
7188.68
-121.725
7039.88
995.384
6871.75
1928.07
6624.45
2932.02
6247.06
3947.4
5788.71
4688.71
5335.16
5107.04
4918.37
5348.91
4525.39
5441.33
4140.24
5338.09
3757.15
5066.85
3374.9
4714.62
2989.39
4366.57
2585.38
4146.96
2145.45
4294.64
1687.76
4966.73
1266.09
5875.81
909.928
6510.13
601.592
6630.38
294.441
6280.04
-66.5731
5558.6
-562.399
4200.87
-1241.91
1920.01
-1844.8
549.5
-2134.19
360.046
-2212.88
570.238
-2094.8
646.481
-1739.8
-199.427
-1374.52
-2059.59
-1234.65
-2714.29
-1285.87
-4023.82
-1421.45
-5175.76
-1603.2
-6227.55
-1836.3
-7280.21
-2105.77
-8259.22
-2344.32
-8830.69
-2507.25
-8666.55
-2651.31
-7819.71
-2897.44
-6800.87
-3375.6
-5704.72
-3714.15
-3586.99
-3712.11
-85.1197
-3574.93
2685.58
-3474.66
4418.31
-3388.28
5282.87
-3359.48
5475.26
-3428.5
5342.31
-3578.13
5176.27
-3720.26
5066.08
-3766.86
4889.38
-3692.66
4572.16
-3556.26
4126.34
-3451.57
3618.17
-3431.5
3204.67
3113.33
1685.8
-1409.24
1766.39
-1571.44
1852.31
-1791.88
1945.65
-2088.98
2053.46
-2414.8
2172.42
-2646.93
2290.2
-2697.07
2389.8
-2522.71
2456.96
-2168.9
2490.11
-1774.99
2497.27
-1453.23
2490.3
-1248.98
2479.55
-1144.01
2472.12
-1087.76
2472.34
-1025.16
2480.53
-891.221
2485.33
-575.499
2441.45
177.737
2333.38
1170.25
2184.98
1966.92
2025.65
2422.84
1874
2578.92
1739.39
2507
1628.61
2246.6
1548.13
1818.87
1503
1248.38
1500.55
545.763
1528.54
-232.509
1622.42
-1171.87
1876.04
-2637.64
2245.83
-4380.56
2660.2
-5833.95
3119.82
-6896.31
3631.71
-7663.04
4171.47
-8118.15
4703.88
-8266.96
5200.37
-8187.06
5641.81
-7949.48
6016.35
-7574.95
6323.03
-7063.5
6558.09
-6326.87
6730.35
-5376.54
6829.07
-4167.53
6835.81
-2745.29
6765.84
-1330.51
6623.57
20.5426
6466.69
1152.25
6324.32
2070.43
6125.48
3130.86
5781.38
4291.49
5323.41
5146.67
4852.47
5577.98
4422.56
5778.81
4030.37
5833.53
3656.84
5711.61
3288.92
5434.77
2919.56
5083.99
2539.92
4746.2
2129.47
4557.41
1670.76
4753.35
1194.7
5442.79
768.726
6301.79
422.793
6856.06
131.88
6921.3
-162.632
6574.55
-526.011
5921.98
-1014.75
4689.61
-1621.3
2526.57
-2104.39
1032.59
-2372.79
628.444
-2414.83
612.282
-2278.64
510.295
-2027.43
-450.642
-1839.06
-2247.96
-1741.91
-2811.44
-1808.2
-3957.52
-1962.97
-5021
-2188.44
-6002.07
-2499.28
-6969.38
-2883.97
-7874.53
-3262.89
-8451.78
-3548.97
-8380.47
-3747.76
-7620.92
-3991.68
-6556.95
-4434.81
-5261.58
-4826.89
-3194.92
-4899.29
-12.7164
-4726.07
2512.37
-4527.3
4219.54
-4352.01
5107.57
-4276.38
5399.63
-4312.91
5378.83
-4378.93
5242.3
-4359.08
5046.24
-4217.74
4748.04
-4000.98
4355.4
-3784.4
3909.76
-3635.51
3469.27
-3589.56
3158.72
3168.47
1642.19
-1483.16
1726.28
-1655.53
1806.24
-1871.85
1890.23
-2172.98
1989.14
-2513.72
2099.84
-2757.63
2209.69
-2806.94
2301.32
-2614.35
2359.75
-2227.33
2383.33
-1798.58
2380.46
-1450.37
2363.53
-1232.06
2343.39
-1123.88
2327.8
-1072.18
2321.99
-1019.36
2326.37
-895.618
2327.35
-576.494
2275.82
229.258
2159.82
1286.23
2006.76
2119.97
1846.39
2583.2
1696.03
2729.28
1563.71
2639.31
1455.44
2354.86
1376.99
1897.31
1333.76
1291.59
1332.48
547.016
1359.48
-259.531
1475.02
-1287.42
1762.63
-2925.26
2138.45
-4756.39
2548.15
-6243.65
3008.18
-7356.35
3523.76
-8178.63
4063.52
-8657.91
4584.35
-8787.79
5050.12
-8652.83
5437.05
-8336.42
5735.99
-7873.89
5960.72
-7288.24
6125.75
-6491.9
6253.88
-5504.68
6326.79
-4240.44
6310.05
-2728.55
6211.06
-1231.52
6028.73
202.862
5844.98
1336
5711.24
2204.16
5560.45
3281.65
5264.76
4587.18
4825.53
5585.89
4350.43
6053.08
3913.88
6215.34
3524.95
6222.46
3164.51
6072.04
2813.27
5786.01
2457.87
5439.38
2083.79
5120.29
1665.25
4975.94
1188.15
5230.46
698.393
5932.54
273.692
6726.49
-57.539
7187.29
-327.713
7191.47
-607.341
6854.18
-952.645
6267.28
-1375.61
5112.58
-1863.16
3014.11
-2269.51
1438.94
-2527.93
886.864
-2595.74
680.099
-2509.59
424.137
-2341.57
-618.658
-2254.04
-2335.49
-2205.51
-2859.97
-2286.39
-3876.65
-2452.29
-4855.11
-2699.27
-5755.09
-3052.45
-6616.19
-3514.42
-7412.56
-4014.64
-7951.56
-4439.22
-7955.88
-4728.11
-7332.04
-4967.5
-6317.55
-5303.38
-4925.71
-5620.48
-2877.82
-5691.98
58.7866
-5532.23
2352.62
-5331.63
4018.94
-5174.79
4950.73
-5103.55
5328.39
-5067.31
5342.59
-4968.08
5143.06
-4758.16
4836.32
-4482.76
4472.65
-4217.02
4089.65
-4020.65
3713.4
-3937.68
3386.3
-3971.77
3192.81
3264.73
1606.65
-1564.1
1688.58
-1737.46
1760
-1943.28
1834.56
-2247.56
1924.86
-2604.03
2027.48
-2860.25
2129.87
-2909.34
2214.35
-2698.83
2264.89
-2277.88
2279.61
-1813.31
2267.28
-1438.05
2240.93
-1205.72
2211.89
-1094.85
2188.62
-1048.92
2177.26
-1008.01
2178.18
-896.55
2174.57
-572.898
2113.86
289.956
1989.42
1410.67
1832.32
2277.06
1671.6
2743.9
1522.53
2878.34
1391.81
2770.02
1284.94
2461.71
1207.21
1975.03
1165.69
1333.09
1163.08
549.603
1193.73
-290.207
1341.05
-1434.75
1657.71
-3241.92
2031.59
-5130.26
2436.84
-6648.92
2898.78
-7818.29
3418.06
-8697.91
3955.05
-9194.91
4456.19
-9288.94
4875.76
-9072.4
5186.98
-8647.65
5392.62
-8079.53
5535.15
-7430.77
5652.82
-6609.57
5773.78
-5625.64
5854.81
-4321.47
5836.1
-2709.84
5711.94
-1107.36
5477.81
436.982
5242.18
1571.61
5080.83
2365.51
4953.64
3408.83
4704.33
4836.5
4294.51
5995.7
3827.27
6520.33
3392.3
6650.31
3011.04
6603.72
2666.15
6416.93
2333.12
6119.04
1992.08
5780.41
1622.08
5490.29
1193.1
5404.92
698.487
5725.08
200.56
6430.46
-214.507
7141.55
-523.709
7496.49
-775.05
7442.81
-1039.8
7118.93
-1353.01
6580.49
-1698
5457.56
-2091.09
3407.21
-2454.66
1802.51
-2709.91
1142.11
-2807.23
777.42
-2763.6
380.507
-2655.21
-727.049
-2635.41
-2355.29
-2631.2
-2864.17
-2726.72
-3781.13
-2898.96
-4682.86
-3149.98
-5504.07
-3510.66
-6255.51
-4001.11
-6922.11
-4578.41
-7374.26
-5132.95
-7401.35
-5559.98
-6905
-5871.88
-6005.65
-6153.33
-4644.26
-6390.03
-2641.12
-6443.98
112.736
-6324.36
2233
-6155.09
3849.66
-5990.46
4786.11
-5821.96
5159.89
-5601.04
5121.68
-5309.78
4851.8
-4994.23
4520.77
-4729.4
4207.81
-4566.34
3926.6
-4528.06
3675.11
-4618.14
3476.39
-4790.92
3365.59
3421.24
1571.94
-1651.71
1650.68
-1816.2
1713.72
-2006.32
1779.16
-2313.01
1860.78
-2685.66
1955.53
-2955.01
2051.36
-3005.17
2129.96
-2777.44
2173.76
-2321.68
2180.45
-1820.01
2159.21
-1416.83
2123.8
-1170.32
2086.18
-1057.25
2055.62
-1018.37
2039.25
-991.653
2037.02
-894.335
2027.6
-563.49
1955.62
361.914
1821.94
1544.35
1661.4
2437.59
1501.04
2904.26
1353.25
3026.12
1223.42
2899.84
1116.89
2568.23
1038.69
2053.21
999.064
1372.69
991.824
556.811
1035.06
-333.477
1222.63
-1622.34
1557.89
-3577.19
1924.39
-5496.77
2326.54
-7051.08
2791.11
-8282.87
3313.18
-9219.98
3842.99
-9724.72
4313.26
-9759.22
4667.56
-9426.7
4882.55
-8862.65
4989.55
-8186.53
5073.57
-7514.8
5189.4
-6725.42
5349.02
-5785.27
5467.29
-4439.74
5460.24
-2702.8
5310.63
-957.756
5018.38
729.222
4713.52
1876.47
4484.91
2594.11
4339.42
3554.31
4115.62
5060.29
3734.85
6376.47
3283.67
6971.5
2858.54
7075.44
2490.49
6971.77
2164.36
6743.05
1851.11
6432.29
1524.16
6107.36
1155.54
5858.91
713.601
5846.85
203.011
6235.67
-294.076
6927.55
-687.804
7535.28
-975.471
7784.16
-1213.37
7680.72
-1462.86
7368.42
-1739.29
6856.92
-2016.46
5734.73
-2343.7
3734.46
-2673.54
2132.35
-2917.09
1385.66
-3030.34
890.668
-3017.87
368.04
-2954.36
-790.562
-2995.37
-2314.28
-3028.55
-2830.99
-3140.17
-3669.51
-3319.67
-4503.36
-3567.4
-5256.34
-3911.58
-5911.33
-4382.68
-6451.01
-4969.42
-6787.52
-5594.28
-6776.48
-6153.58
-6345.7
-6610.72