/*--------------------------------*- C++ -*----------------------------------*\
| =========                 |                                                 |
| \\      /  F ield         | OpenFOAM: The Open Source CFD Toolbox           |
|  \\    /   O peration     | Version:  4.1                                   |
|   \\  /    A nd           | Web:      www.OpenFOAM.org                      |
|    \\/     M anipulation  |                                                 |
\*---------------------------------------------------------------------------*/
FoamFile
{
    version     2.0;
    format      ascii;
    class       volVectorField;
    location    "1300";
    object      U;
}
// * * * * * * * * * * * * * * * * * * * * * * * * * * * * * * * * * * * * * //

dimensions      [0 1 -1 0 0 0 0];

internalField   nonuniform List<vector> 
26785
(
(-8.87361e-16 -0.0164288 15.2215)
(-2.6757e-16 -0.0197261 15.6299)
(-1.07731e-15 -0.024233 16.0931)
(2.1817e-15 -0.0306026 16.6554)
(1.96693e-15 -0.0384145 17.3576)
(-9.05009e-15 -0.0448131 18.191)
(2.29147e-15 -0.0475389 19.0948)
(-2.01955e-15 -0.0456632 19.9829)
(6.99751e-15 -0.0402765 20.7762)
(-1.18095e-14 -0.0341487 21.4365)
(2.90155e-15 -0.0295415 21.9767)
(8.54874e-16 -0.0272167 22.437)
(2.62381e-15 -0.0263956 22.8538)
(2.43443e-15 -0.0250144 23.2396)
(1.91542e-15 -0.0197245 23.5673)
(1.24082e-15 -0.00695551 23.7625)
(9.14005e-16 0.0142076 23.7213)
(9.75325e-16 0.0416391 23.3376)
(1.05566e-15 0.0684547 22.5662)
(-4.08959e-15 0.0876802 21.4813)
(4.80398e-15 0.097566 20.2243)
(-1.19015e-15 0.0996265 18.9235)
(6.42916e-15 0.0960258 17.6677)
(1.46239e-14 0.0883928 16.5138)
(1.01999e-14 0.0776561 15.4991)
(1.94278e-14 0.064098 14.6515)
(9.49561e-15 0.0477737 13.9947)
(7.92432e-15 0.0264416 13.5624)
(-1.38668e-15 -0.00317157 13.4101)
(-3.36354e-16 -0.039555 13.6209)
(1.09013e-14 -0.0791949 14.2496)
(1.26591e-14 -0.115213 15.2847)
(1.79852e-15 -0.142329 16.6415)
(2.9511e-15 -0.159614 18.2033)
(-3.20102e-15 -0.168385 19.8629)
(1.14681e-14 -0.170492 21.5375)
(6.55496e-15 -0.168063 23.1698)
(4.73013e-15 -0.162525 24.7255)
(2.20455e-15 -0.154086 26.1833)
(2.95855e-15 -0.142279 27.5218)
(-1.62728e-19 -0.125998 28.7118)
(-1.02554e-14 -0.10462 29.7156)
(-1.08718e-14 -0.0782327 30.4933)
(2.52436e-15 -0.048045 31.0126)
(8.24856e-15 -0.0159912 31.2561)
(6.32308e-15 0.0156668 31.2267)
(1.07641e-14 0.046441 30.9425)
(1.16958e-14 0.0761332 30.4216)
(1.15675e-14 0.103392 29.6831)
(1.05983e-14 0.12721 28.7564)
(1.04553e-14 0.146138 27.6804)
(8.34192e-15 0.158416 26.5038)
(1.38148e-14 0.163063 25.2847)
(1.43976e-14 0.160146 24.0834)
(1.29844e-14 0.150926 22.953)
(6.54136e-15 0.137892 21.9302)
(9.36109e-15 0.124961 21.0284)
(2.62652e-14 0.118359 20.2259)
(1.55656e-14 0.12612 19.4468)
(1.34339e-14 0.153246 18.5558)
(2.47766e-14 0.194111 17.4084)
(1.6683e-14 0.231934 15.9525)
(1.84915e-14 0.251102 14.2787)
(1.33008e-15 0.247032 12.5596)
(2.67572e-14 0.223164 10.9585)
(5.77287e-15 0.185143 9.59017)
(2.07279e-15 0.138391 8.52221)
(7.75868e-15 0.0909536 7.78457)
(1.3061e-14 0.0556133 7.33698)
(2.69388e-14 0.0388952 7.05359)
(-5.05101e-14 0.0319407 6.85057)
(-1.13003e-14 0.0378963 6.63062)
(-8.25687e-15 0.036396 6.31139)
(1.08656e-14 -0.0423586 6.22096)
(1.07997e-14 -0.158311 6.75359)
(7.45658e-14 -0.223991 8.00257)
(3.32899e-14 -0.273729 9.65444)
(3.59526e-14 -0.320992 11.5667)
(3.29485e-14 -0.362955 13.6614)
(2.74583e-14 -0.392832 15.8627)
(1.98428e-14 -0.404711 18.0945)
(6.33843e-15 -0.391034 20.2593)
(1.07673e-14 -0.349427 22.2267)
(6.79878e-15 -0.281028 23.8765)
(7.21029e-16 -0.17309 25.0448)
(7.08085e-15 -0.0553638 25.5877)
(6.10703e-15 0.0440281 25.5262)
(8.24961e-15 0.122678 24.9846)
(5.48184e-15 0.171717 24.111)
(1.11452e-14 0.189362 23.0686)
(1.41225e-14 0.183566 22.0077)
(1.70789e-14 0.160885 21.0257)
(1.94569e-14 0.129109 20.1847)
(2.05112e-14 0.0989271 19.5078)
(2.07833e-14 0.0808536 18.9784)
(2.16591e-14 0.0795665 18.5262)
(2.15707e-14 0.0965462 18.1134)
(2.03978e-14 0.117329 17.5529)
(1.97372e-14 0.168984 17.1433)
(1.90643e-14 0.185968 15.8363)
(-1.13944e-15 -0.0461034 15.4259)
(-6.48405e-15 -0.0570546 15.8707)
(2.54167e-15 -0.071756 16.3685)
(-1.67103e-15 -0.0922067 16.9665)
(-5.96362e-15 -0.116743 17.7051)
(-1.31047e-14 -0.136705 18.5725)
(3.74533e-15 -0.145478 19.5057)
(-1.04915e-14 -0.140357 20.4167)
(-4.29712e-15 -0.124458 21.2244)
(1.15853e-15 -0.105779 21.8876)
(-1.87726e-15 -0.0908243 22.4163)
(-1.42635e-15 -0.0817142 22.8472)
(-1.02235e-15 -0.0762235 23.2139)
(-3.37125e-16 -0.0689579 23.5298)
(4.45218e-16 -0.0515874 23.7779)
(3.65592e-15 -0.0145524 23.907)
(1.7976e-15 0.0465919 23.8358)
(2.09046e-15 0.128757 23.4469)
(6.2536e-15 0.211291 22.6663)
(9.42587e-15 0.270931 21.5584)
(-5.51808e-15 0.301388 20.2673)
(1.20994e-14 0.307262 18.9276)
(-4.61195e-15 0.295459 17.6339)
(9.52909e-15 0.271195 16.4467)
(5.32269e-15 0.23742 15.4059)
(-8.11861e-15 0.195149 14.5416)
(-4.24344e-15 0.144303 13.8778)
(-8.78774e-15 0.0792229 13.454)
(-4.70898e-15 -0.00886845 13.3027)
(-6.35519e-15 -0.116766 13.4983)
(1.83989e-14 -0.236082 14.1017)
(1.0682e-14 -0.347077 15.1208)
(1.34821e-14 -0.432363 16.4796)
(8.81921e-15 -0.486573 18.0502)
(6.65997e-15 -0.512409 19.7104)
(1.27469e-14 -0.516008 21.3699)
(7.48801e-15 -0.505064 22.973)
(6.2846e-15 -0.484929 24.4917)
(5.54552e-15 -0.456732 25.911)
(4.32024e-15 -0.419113 27.2136)
(7.65054e-15 -0.36857 28.3718)
(3.46956e-15 -0.303098 29.3478)
(-9.74332e-15 -0.222922 30.1007)
(-1.33377e-14 -0.131725 30.5971)
(-1.6549e-14 -0.0354578 30.8192)
(-1.57008e-14 0.0590255 30.7706)
(-1.44208e-14 0.150304 30.4694)
(-9.94465e-15 0.237311 29.9368)
(-3.11586e-15 0.316052 29.1931)
(-2.4757e-15 0.383876 28.2663)
(-6.98382e-15 0.436621 27.1944)
(1.10076e-14 0.469219 26.0258)
(1.17707e-14 0.478924 24.8191)
(6.61536e-15 0.466074 23.6361)
(2.37965e-14 0.434554 22.5307)
(1.43549e-14 0.391844 21.5406)
(1.7103e-14 0.349638 20.6816)
(2.46164e-14 0.327293 19.9387)
(1.73627e-14 0.35147 19.2434)
(4.15371e-15 0.440209 18.4504)
(7.58603e-15 0.575711 17.383)
(1.31045e-14 0.701827 15.9619)
(2.79232e-14 0.766554 14.2795)
(3.93845e-14 0.755535 12.528)
(1.10064e-14 0.681502 10.8887)
(1.98006e-14 0.563852 9.48491)
(1.7112e-14 0.419993 8.38874)
(1.17488e-14 0.274803 7.63269)
(-5.26533e-14 0.166731 7.17517)
(5.31951e-14 0.115723 6.88684)
(1.4138e-14 0.0992606 6.67648)
(-6.86424e-14 0.114317 6.41568)
(-7.61157e-15 0.0986965 6.09019)
(1.3362e-15 -0.122533 6.01683)
(9.22377e-14 -0.4643 6.43704)
(-1.33213e-14 -0.72216 7.76095)
(1.79708e-14 -0.919518 9.54248)
(1.61495e-14 -1.05918 11.5228)
(1.44491e-14 -1.14836 13.5917)
(2.2058e-14 -1.19298 15.6989)
(9.77683e-15 -1.19098 17.809)
(-2.86036e-15 -1.12514 19.8604)
(1.45561e-15 -0.989581 21.743)
(3.94724e-15 -0.78589 23.3519)
(-2.20695e-15 -0.468655 24.5141)
(2.16678e-15 -0.120603 25.0673)
(3.88095e-15 0.177461 24.9935)
(5.99396e-15 0.4137 24.4075)
(6.61406e-15 0.560271 23.4786)
(4.60058e-15 0.616498 22.3633)
(1.19453e-14 0.607996 21.2063)
(1.62758e-14 0.553405 20.0938)
(1.80034e-14 0.470966 19.0814)
(1.45554e-14 0.383473 18.1983)
(2.06299e-14 0.314003 17.4563)
(2.19689e-14 0.276641 16.8358)
(2.10676e-14 0.287121 16.3503)
(2.23493e-14 0.316777 15.8342)
(2.27506e-14 0.448621 15.5371)
(2.17065e-14 0.505502 14.4773)
(-2.67274e-16 -0.0821345 15.6537)
(4.584e-15 -0.100666 16.1249)
(-1.14206e-14 -0.124527 16.6325)
(-6.11914e-15 -0.158193 17.2293)
(-1.0576e-14 -0.198454 17.9598)
(-1.3547e-14 -0.230834 18.8133)
(-1.14043e-15 -0.244347 19.724)
(-8.91612e-15 -0.234385 20.5999)
(-4.79135e-15 -0.206046 21.3563)
(-4.76046e-15 -0.172631 21.9514)
(-4.28109e-15 -0.145036 22.3957)
(-3.32436e-15 -0.126962 22.728)
(-2.28546e-15 -0.115146 22.9855)
(-1.69407e-15 -0.101667 23.1885)
(-6.48504e-16 -0.074525 23.332)
(-9.20598e-16 -0.0188155 23.3848)
(4.32288e-15 0.0757212 23.2915)
(2.71075e-15 0.209083 22.9436)
(1.22794e-14 0.348004 22.234)
(-4.15054e-15 0.450715 21.1908)
(3.24008e-15 0.504402 19.9427)
(7.96588e-15 0.515878 18.6243)
(-3.79045e-15 0.496653 17.3361)
(6.59973e-17 0.455649 16.146)
(6.20572e-15 0.397996 15.1005)
(-8.68195e-15 0.325674 14.2345)
(-6.34293e-15 0.238335 13.5748)
(3.3264e-15 0.128742 13.1661)
(2.02118e-15 -0.0154978 13.0195)
(5.04847e-15 -0.192107 13.2032)
(4.31718e-15 -0.391174 13.7905)
(1.23165e-14 -0.579552 14.8052)
(7.41886e-15 -0.723583 16.1584)
(2.07113e-14 -0.811542 17.7014)
(2.11593e-14 -0.84951 19.31)
(1.0735e-14 -0.850782 20.9086)
(6.46429e-15 -0.830079 22.4587)
(3.1922e-15 -0.796546 23.9437)
(2.31988e-16 -0.751335 25.3514)
(1.60494e-15 -0.6912 26.6616)
(1.44806e-15 -0.609428 27.8403)
(-7.02141e-16 -0.502264 28.8427)
(-1.57099e-15 -0.36997 29.6224)
(-1.16022e-15 -0.218793 30.1421)
(-1.81433e-17 -0.058986 30.3817)
(1.9388e-15 0.0978499 30.3456)
(3.45569e-15 0.249388 30.0519)
(4.26517e-15 0.39324 29.5246)
(4.77645e-15 0.52354 28.782)
(4.05918e-15 0.636576 27.8487)
(4.98429e-15 0.724908 26.7592)
(6.2663e-15 0.77936 25.5612)
(7.76772e-15 0.794869 24.3165)
(9.01264e-15 0.771884 23.0914)
(9.21416e-15 0.717122 21.9435)
(5.18867e-15 0.642859 20.9118)
(1.93256e-14 0.566793 20.014)
(1.95119e-14 0.519044 19.2496)
(1.95513e-15 0.547022 18.5835)
(-2.08614e-15 0.690669 17.8936)
(-6.93292e-15 0.926769 16.9709)
(1.25724e-14 1.15555 15.6728)
(1.53645e-14 1.27938 14.0593)
(9.20488e-15 1.26951 12.3306)
(1.45586e-14 1.14846 10.6877)
(4.15105e-14 0.951269 9.26887)
(7.88386e-14 0.708013 8.15691)
(4.02426e-14 0.461634 7.39389)
(4.31222e-14 0.278216 6.94101)
(2.77325e-14 0.193286 6.66097)
(1.74124e-14 0.174576 6.44932)
(1.17105e-15 0.19477 6.15848)
(9.05728e-14 0.160569 5.82158)
(1.34145e-13 -0.19254 5.72769)
(3.79247e-14 -0.780736 6.15262)
(1.41519e-14 -1.251 7.55726)
(1.21448e-14 -1.55553 9.25099)
(6.78703e-15 -1.73532 11.0019)
(-1.05457e-15 -1.84596 12.8039)
(-1.0693e-14 -1.90951 14.6877)
(-1.65321e-14 -1.91807 16.6605)
(-1.81201e-14 -1.83366 18.6684)
(-1.54688e-14 -1.63875 20.5777)
(-1.33093e-14 -1.32906 22.265)
(-1.13593e-14 -0.811703 23.5139)
(-8.38906e-15 -0.227067 24.1344)
(-7.67999e-15 0.284891 24.0804)
(-8.28086e-15 0.694238 23.467)
(-9.90348e-15 0.949518 22.4861)
(-7.80059e-15 1.0554 21.2999)
(6.89112e-16 1.05677 20.0594)
(3.31613e-15 0.984478 18.8459)
(4.4751e-15 0.865947 17.7117)
(5.76821e-15 0.732547 16.6843)
(1.03069e-14 0.612469 15.7749)
(1.48367e-14 0.51988 14.9796)
(1.61391e-14 0.483387 14.3549)
(1.85303e-14 0.475736 13.8069)
(1.96511e-14 0.642885 13.5633)
(2.13257e-14 0.74799 12.7513)
(-4.41069e-16 -0.118867 15.8577)
(-3.69745e-15 -0.142413 16.3091)
(-4.32934e-15 -0.173586 16.769)
(-6.39837e-15 -0.219896 17.3116)
(-7.39575e-15 -0.276019 17.9946)
(-3.79384e-15 -0.320852 18.8051)
(-7.76723e-15 -0.338491 19.6674)
(-7.67038e-15 -0.322455 20.4818)
(2.27322e-15 -0.280197 21.1622)
(-2.49713e-15 -0.230691 21.6687)
(-3.62056e-15 -0.189424 22.0157)
(-4.98774e-15 -0.161789 22.2458)
(-4.22503e-15 -0.143643 22.4004)
(9.80998e-16 -0.124826 22.5037)
(-6.59718e-15 -0.0904351 22.5559)
(-1.76796e-15 -0.0216482 22.5362)
(1.3767e-15 0.0972829 22.4094)
(3.49144e-15 0.273211 22.0875)
(-1.40817e-14 0.465134 21.4496)
(6.86871e-16 0.612476 20.4919)
(-3.64092e-15 0.693245 19.3196)
(2.09977e-15 0.714292 18.0581)
(4.0117e-16 0.690698 16.8087)
(7.77893e-15 0.634799 15.6446)
(5.91884e-15 0.553996 14.6187)
(2.06103e-15 0.451512 13.7714)
(-2.10026e-15 0.326943 13.1328)
(-4.97458e-15 0.173263 12.7517)
(-6.09014e-15 -0.0243612 12.6186)
(-3.88461e-15 -0.267751 12.8014)
(6.09264e-15 -0.547508 13.3873)
(-2.99674e-15 -0.812882 14.3947)
(4.51778e-15 -1.01077 15.7113)
(7.05871e-15 -1.12673 17.1926)
(5.53821e-15 -1.17497 18.7436)
(8.50856e-15 -1.17714 20.3142)
(-2.04572e-15 -1.15318 21.8738)
(4.01964e-15 -1.11334 23.3988)
(-5.88419e-15 -1.05677 24.8633)
(-6.87412e-15 -0.977467 26.2338)
(7.36838e-15 -0.865381 27.4669)
(-3.90268e-15 -0.715545 28.5128)
(-1.11864e-14 -0.528864 29.3237)
(-1.5544e-15 -0.314751 29.8627)
(5.00585e-15 -0.0884086 30.1114)
(1.00472e-14 0.133402 30.0778)
(7.67874e-15 0.347646 29.7816)
(1.84489e-15 0.550353 29.2489)
(-7.83838e-16 0.734631 28.496)
(3.77591e-15 0.896367 27.5442)
(2.2035e-15 1.02431 26.4234)
(2.66165e-15 1.10431 25.1779)
(2.16682e-14 1.12825 23.8696)
(8.77869e-15 1.09642 22.568)
(-1.40031e-15 1.01889 21.3351)
(-1.27614e-15 0.913244 20.212)
(-4.20037e-15 0.80129 19.2164)
(1.42769e-14 0.717742 18.355)
(1.35677e-15 0.726543 17.6286)
(7.84069e-15 0.899229 16.9713)
(4.16542e-16 1.22517 16.1802)
(1.45105e-14 1.56489 15.0453)
(6.94258e-15 1.76392 13.564)
(5.07845e-15 1.76909 11.92)
(1.45171e-14 1.60993 10.3236)
(3.95004e-14 1.3377 8.92608)
(-8.644e-15 0.994884 7.82445)
(-1.86275e-14 0.643857 7.07732)
(3.88244e-14 0.38238 6.65334)
(4.06674e-14 0.265615 6.40307)
(1.13703e-13 0.252103 6.20235)
(5.15016e-14 0.275401 5.89687)
(7.03576e-14 0.226168 5.55519)
(3.87489e-14 -0.266587 5.43395)
(-3.80189e-14 -1.10853 5.82428)
(-3.04067e-16 -1.74318 7.14008)
(-1.26103e-14 -2.10076 8.57849)
(-1.43732e-14 -2.30919 10.0357)
(-2.87494e-14 -2.46637 11.6078)
(-3.30589e-14 -2.59015 13.3614)
(-3.34368e-14 -2.65046 15.2994)
(-2.66605e-14 -2.5751 17.3325)
(-2.50313e-14 -2.33258 19.2764)
(-2.53548e-14 -1.9197 21.009)
(-1.51395e-14 -1.18446 22.2948)
(-1.45214e-14 -0.339412 22.9335)
(-1.22321e-14 0.407403 22.8494)
(-1.67688e-14 1.00318 22.166)
(-1.70751e-14 1.36997 21.1013)
(-1.63212e-14 1.5235 19.8345)
(-1.19873e-14 1.53296 18.5312)
(-1.4644e-14 1.44353 17.266)
(-4.63783e-15 1.29219 16.0827)
(3.53881e-16 1.12025 15.0012)
(5.11797e-15 0.960847 14.0215)
(1.53671e-14 0.818708 13.1352)
(1.5668e-14 0.717813 12.4117)
(1.84101e-14 0.629594 11.8338)
(1.80301e-14 0.775283 11.6141)
(2.04125e-14 0.927592 11.0249)
(-6.37005e-16 -0.152408 15.9892)
(3.2504e-15 -0.17897 16.3628)
(-2.64361e-15 -0.217667 16.7389)
(-4.31309e-15 -0.278301 17.2197)
(-3.87455e-15 -0.351709 17.8616)
(-1.06857e-14 -0.409028 18.6331)
(-3.21425e-16 -0.42966 19.444)
(-2.80437e-15 -0.406032 20.1922)
(9.09036e-16 -0.348496 20.7948)
(-5.94085e-16 -0.281915 21.2164)
(-1.33078e-15 -0.2264 21.4748)
(1.63942e-15 -0.189025 21.6163)
(-7.63175e-15 -0.164706 21.6857)
(-4.8443e-15 -0.140988 21.7104)
(-8.81582e-15 -0.100327 21.6932)
(-1.29855e-14 -0.0209632 21.6165)
(-7.77078e-15 0.117226 21.4543)
(-1.21642e-14 0.328797 21.1318)
(-9.72109e-15 0.568329 20.5293)
(-6.15905e-15 0.758261 19.632)
(-5.80168e-15 0.866972 18.5276)
(2.79316e-15 0.899812 17.3279)
(5.98651e-16 0.874137 16.1291)
(4.9717e-15 0.805004 15.0055)
(3.11346e-15 0.701889 14.0142)
(-1.76867e-16 0.569398 13.2)
(-9.93068e-15 0.407381 12.5954)
(7.83088e-15 0.21054 12.2502)
(-1.26046e-14 -0.0380933 12.1369)
(-3.72565e-15 -0.346983 12.333)
(2.40316e-15 -0.705684 12.9241)
(3.16322e-15 -1.04214 13.9038)
(1.29499e-15 -1.28827 15.1669)
(-6.66682e-15 -1.43342 16.61)
(3.31397e-15 -1.49971 18.1664)
(9.19377e-15 -1.51232 19.7827)
(6.39358e-15 -1.49201 21.4059)
(6.85051e-15 -1.44832 22.9906)
(7.76273e-15 -1.379 24.4977)
(7.4042e-15 -1.277 25.8908)
(9.74918e-15 -1.13045 27.1296)
(1.10295e-14 -0.934288 28.1697)
(1.55314e-14 -0.690434 28.9681)
(2.36616e-14 -0.411509 29.4918)
(2.04685e-14 -0.117773 29.7246)
(2.04012e-14 0.169002 29.6791)
(2.14891e-14 0.445864 29.3755)
(2.30446e-14 0.707167 28.843)
(1.87294e-14 0.946035 28.0939)
(2.26493e-14 1.15879 27.1437)
(2.68426e-14 1.33022 26.0144)
(2.56167e-14 1.44066 24.7439)
(3.13694e-14 1.47812 23.3908)
(1.86865e-14 1.44178 22.025)
(1.39608e-14 1.34472 20.7125)
(6.54045e-15 1.21056 19.4985)
(-2.36206e-15 1.0653 18.4016)
(6.07643e-15 0.943912 17.4273)
(-5.85709e-19 0.917703 16.5923)
(8.6038e-15 1.08932 15.8875)
(9.94261e-16 1.47898 15.1579)
(2.49931e-14 1.92282 14.1617)
(-1.79124e-16 2.20518 12.8284)
(-3.30218e-15 2.23794 11.3044)
(-4.6047e-15 2.0517 9.79278)
(-3.37812e-14 1.71206 8.44897)
(1.54299e-14 1.27134 7.38382)
(-4.03611e-14 0.812411 6.67811)
(-4.86142e-15 0.470458 6.31178)
(-6.04343e-14 0.325842 6.11782)
(-1.80605e-14 0.327636 5.94488)
(-3.40287e-14 0.349161 5.64388)
(-3.00771e-16 0.293951 5.30031)
(8.03669e-15 -0.322936 5.12292)
(-2.27833e-14 -1.39544 5.35506)
(1.61184e-14 -2.15683 6.50196)
(-5.08103e-14 -2.5556 7.69154)
(-4.61186e-14 -2.81291 8.92641)
(-4.65962e-14 -3.04947 10.3491)
(-2.46827e-14 -3.26236 12.0105)
(-2.69125e-14 -3.38952 13.8863)
(-2.21418e-14 -3.32154 15.8537)
(-1.28946e-14 -3.02652 17.7025)
(-1.50607e-14 -2.51954 19.3739)
(-1.25816e-14 -1.56367 20.6457)
(-1.68561e-14 -0.451586 21.3023)
(-2.08474e-14 0.538747 21.2028)
(-2.08296e-14 1.32959 20.4756)
(-1.94911e-14 1.80768 19.3493)
(-1.4697e-14 2.00155 18.023)
(-2.45543e-14 2.01056 16.6848)
(-2.62687e-14 1.89767 15.4081)
(-2.15634e-14 1.70934 14.2313)
(-1.43626e-14 1.49672 13.1655)
(-3.94409e-15 1.30135 12.1946)
(2.511e-15 1.119 11.2975)
(1.36884e-14 0.957897 10.5435)
(1.66639e-14 0.776363 9.99094)
(1.70268e-14 0.872216 9.82008)
(2.19896e-14 1.05987 9.46453)
(-4.62571e-16 -0.184731 16.0002)
(-5.08428e-15 -0.210763 16.2752)
(-4.54454e-15 -0.257882 16.583)
(2.09426e-15 -0.33473 17.0253)
(-2.80683e-15 -0.425777 17.6351)
(1.31926e-15 -0.494377 18.362)
(-4.52745e-15 -0.516416 19.1129)
(-5.33916e-15 -0.483954 19.7913)
(-1.27485e-15 -0.410317 20.319)
(1.14595e-15 -0.326198 20.6629)
(5.08317e-15 -0.256297 20.8427)
(4.70893e-15 -0.209428 20.9068)
(1.81338e-15 -0.179648 20.9025)
(5.20363e-15 -0.152191 20.8606)
(4.20205e-15 -0.106778 20.7877)
(3.53549e-15 -0.0187225 20.6701)
(-1.89955e-16 0.136136 20.4858)
(-7.98208e-15 0.379875 20.1615)
(3.06241e-15 0.662938 19.5742)
(-1.18122e-14 0.892126 18.711)
(-3.26023e-15 1.02744 17.6552)
(-6.50507e-16 1.07249 16.5087)
(1.25506e-14 1.0459 15.3603)
(1.72376e-15 0.964586 14.2821)
(1.19136e-14 0.839751 13.3332)
(9.08414e-15 0.677438 12.5605)
(-3.37944e-16 0.47822 11.9976)
(-7.58459e-15 0.239486 11.6916)
(-1.61961e-14 -0.0584645 11.6047)
(-1.91534e-14 -0.430795 11.8252)
(-2.68434e-15 -0.862788 12.4105)
(-9.0506e-15 -1.26511 13.3539)
(-3.41758e-15 -1.56244 14.6007)
(-2.36171e-15 -1.74609 16.0726)
(-7.69735e-15 -1.83829 17.6841)
(-8.12414e-16 -1.86318 19.35)
(7.87578e-15 -1.84285 20.9971)
(1.25454e-14 -1.78921 22.5767)
(1.59908e-14 -1.70158 24.0575)
(1.51738e-14 -1.57348 25.4141)
(2.02108e-14 -1.39115 26.6146)
(2.8942e-14 -1.14894 27.6185)
(3.16469e-14 -0.849011 28.3837)
(3.08346e-14 -0.506771 28.8774)
(3.43083e-14 -0.147706 29.0834)
(3.56512e-14 0.201488 29.0192)
(3.87723e-14 0.538438 28.7061)
(3.96743e-14 0.85562 28.1819)
(3.8409e-14 1.14798 27.4558)
(3.82823e-14 1.41331 26.5353)
(3.70099e-14 1.63189 25.4303)
(3.66796e-14 1.77801 24.169)
(3.43463e-14 1.83503 22.8042)
(3.14076e-14 1.79981 21.4043)
(2.92116e-14 1.68775 20.0387)
(2.57678e-14 1.52875 18.7578)
(2.56154e-14 1.35407 17.5828)
(2.75686e-14 1.19809 16.5162)
(1.33305e-14 1.13229 15.5738)
(1.29155e-14 1.28218 14.7789)
(1.1831e-14 1.70703 14.0388)
(1.93606e-14 2.23702 13.1237)
(2.14609e-15 2.60042 11.9169)
(-6.70936e-15 2.6677 10.5196)
(-7.20239e-15 2.4641 9.11228)
(-2.01927e-15 2.06558 7.8436)
(-4.35972e-14 1.52892 6.8348)
(-6.05089e-14 0.957595 6.19372)
(-9.24225e-15 0.532846 5.91426)
(-7.35387e-16 0.368557 5.80383)
(3.61243e-14 0.397709 5.6773)
(-1.45204e-14 0.422088 5.39308)
(6.5527e-15 0.388519 5.02576)
(3.21577e-14 -0.330144 4.77967)
(3.92808e-14 -1.62094 4.76908)
(-4.72608e-14 -2.5023 5.73918)
(-3.8346e-14 -2.94725 6.70099)
(-2.12018e-14 -3.26876 7.7375)
(-2.79614e-14 -3.59615 8.99585)
(-1.47975e-14 -3.90042 10.4941)
(-1.4472e-14 -4.08957 12.2036)
(-5.91702e-15 -4.02064 13.9833)
(-4.69763e-15 -3.67839 15.6177)
(-8.08309e-15 -3.11399 17.1493)
(-3.20844e-14 -1.9527 18.388)
(-3.18786e-14 -0.570314 19.0951)
(-2.66139e-14 0.66625 19.0268)
(-2.95978e-14 1.65984 18.3254)
(-2.70277e-14 2.25184 17.2126)
(-2.38211e-14 2.47898 15.8942)
(-2.17889e-14 2.47608 14.5779)
(-3.24489e-14 2.32969 13.3388)
(-4.106e-14 2.09923 12.2178)
(-2.81435e-14 1.84851 11.2247)
(-1.14718e-14 1.62591 10.3257)
(-3.89641e-15 1.40194 9.48413)
(5.40961e-15 1.15365 8.76985)
(1.15723e-14 0.83451 8.33041)
(1.92946e-14 0.834017 8.25995)
(2.17702e-14 1.07929 8.15413)
(-1.43259e-15 -0.205464 15.8966)
(-3.82063e-15 -0.236333 16.1017)
(-6.25328e-16 -0.295512 16.3628)
(-7.18793e-16 -0.38985 16.7695)
(-4.0543e-15 -0.497761 17.3375)
(-2.25824e-15 -0.576309 18.0113)
(3.85545e-15 -0.598855 18.7025)
(2.7982e-15 -0.557064 19.3187)
(2.75921e-15 -0.466941 19.782)
(7.33105e-15 -0.364985 20.0588)
(1.0947e-14 -0.280548 20.1703)
(5.1983e-15 -0.22424 20.1671)
(5.46523e-15 -0.18937 20.0983)
(2.8286e-15 -0.159081 19.9966)
(-3.60833e-16 -0.110663 19.8718)
(-1.52468e-15 -0.0164842 19.7155)
(7.48288e-15 0.152288 19.5127)
(-1.75673e-15 0.426441 19.1908)
(-8.06439e-15 0.751472 18.6151)
(1.82711e-15 1.01759 17.7722)
(-8.21731e-15 1.17748 16.7494)
(7.51759e-15 1.23383 15.6455)
(1.16972e-14 1.20634 14.5434)
(5.38648e-15 1.11317 13.5116)
(1.00064e-14 0.966833 12.6087)
(7.27081e-15 0.774803 11.8821)
(5.44285e-15 0.539024 11.3649)
(-2.3317e-14 0.259403 11.0977)
(-1.68215e-14 -0.0866627 11.0444)
(-2.91764e-14 -0.518154 11.2861)
(-6.56891e-15 -1.01818 11.8546)
(-6.23194e-15 -1.48912 12.7953)
(-5.36948e-15 -1.84576 14.0832)
(-3.13855e-15 -2.07155 15.6045)
(8.17836e-16 -2.18599 17.2386)
(9.67467e-15 -2.21591 18.8928)
(1.82332e-14 -2.18929 20.5042)
(2.36121e-14 -2.12253 22.0389)
(2.684e-14 -2.01636 23.4766)
(2.59285e-14 -1.8637 24.7965)
(2.89596e-14 -1.64732 25.9666)
(3.53702e-14 -1.36035 26.9425)
(3.59862e-14 -1.00494 27.6781)
(3.94305e-14 -0.599641 28.1373)
(3.63146e-14 -0.176296 28.3039)
(3.68971e-14 0.232987 28.2021)
(4.09825e-14 0.626243 27.8567)
(4.43222e-14 0.993586 27.3199)
(3.06601e-14 1.33475 26.6058)
(1.98132e-14 1.65152 25.7194)
(6.75054e-15 1.91955 24.6572)
(-4.4714e-15 2.10631 23.4322)
(-8.09412e-15 2.18933 22.0853)
(7.02857e-15 2.1615 20.6802)
(1.5397e-14 2.03953 19.2891)
(2.04655e-14 1.85972 17.9677)
(2.48029e-14 1.6597 16.7413)
(2.3686e-14 1.47422 15.6111)
(4.93809e-15 1.37168 14.5851)
(2.02363e-14 1.49114 13.6953)
(1.77236e-14 1.92871 12.8989)
(1.56787e-14 2.52226 12.0076)
(5.55645e-15 2.95535 10.8901)
(2.26111e-15 3.05709 9.60761)
(-5.95555e-15 2.84251 8.30899)
(2.32011e-14 2.39304 7.12513)
(3.9449e-15 1.76123 6.18359)
(3.37182e-14 1.07123 5.62529)
(-2.33383e-15 0.556571 5.45541)
(-4.03681e-15 0.386423 5.46958)
(5.07311e-14 0.447554 5.40281)
(-1.68313e-14 0.459131 5.12557)
(1.09133e-13 0.465271 4.69)
(4.01302e-14 -0.312064 4.44273)
(2.81366e-14 -1.78568 4.1392)
(1.05509e-14 -2.78121 4.88637)
(-6.08387e-15 -3.27328 5.58317)
(-1.09713e-14 -3.66365 6.39029)
(-1.03147e-14 -4.08106 7.43223)
(-6.06153e-15 -4.47526 8.70426)
(-1.02078e-14 -4.7236 10.1957)
(-6.62662e-15 -4.64697 11.7141)
(-7.40338e-15 -4.2681 13.0593)
(-2.40702e-14 -3.70853 14.3615)
(-4.08143e-14 -2.39024 15.5109)
(-4.00644e-14 -0.730592 16.2815)
(-3.74794e-14 0.759425 16.2825)
(-3.46274e-14 1.94655 15.6904)
(-3.23401e-14 2.65167 14.6898)
(-3.05061e-14 2.91876 13.4678)
(-2.63083e-14 2.90881 12.2493)
(-3.55904e-14 2.72637 11.1116)
(-4.16235e-14 2.43785 10.1064)
(-2.81153e-14 2.12079 9.24946)
(-1.99086e-14 1.85807 8.47727)
(-1.70678e-16 1.62166 7.72412)
(6.18422e-15 1.33631 7.08667)
(1.70082e-14 0.923631 6.87027)
(1.52561e-14 0.859994 6.9117)
(2.06632e-14 1.20904 7.11104)
(-5.2756e-15 -0.225323 15.7334)
(-5.31422e-15 -0.261295 15.8722)
(-8.9626e-15 -0.332075 16.0863)
(-3.10106e-15 -0.443198 16.4555)
(-1.93474e-15 -0.567109 16.983)
(-4.17232e-16 -0.654993 17.6105)
(-3.63051e-16 -0.677706 18.2517)
(1.4131e-15 -0.62619 18.815)
(4.62013e-15 -0.519023 19.2213)
(2.25816e-15 -0.398769 19.437)
(4.12729e-15 -0.299616 19.4856)
(3.33756e-15 -0.233975 19.4212)
(1.24932e-15 -0.194282 19.2955)
(-1.67859e-15 -0.161593 19.1422)
(-4.62197e-15 -0.111135 18.9718)
(-6.39945e-15 -0.0128605 18.7789)
(-1.07315e-14 0.166808 18.5547)
(-5.39576e-15 0.469129 18.2304)
(-2.47592e-15 0.834974 17.6614)
(-1.26925e-15 1.13652 16.8311)
(1.09221e-15 1.31906 15.8315)
(1.60772e-15 1.38521 14.7623)
(6.79031e-15 1.35609 13.7026)
(6.20383e-15 1.2508 12.7169)
(1.93441e-15 1.08287 11.8619)
(2.74227e-15 0.861221 11.1838)
(-8.29359e-15 0.589792 10.7132)
(1.52545e-14 0.269926 10.4842)
(-3.09989e-15 -0.122102 10.4661)
(1.47329e-15 -0.607806 10.715)
(-1.47471e-15 -1.17668 11.28)
(-6.15204e-15 -1.72312 12.2632)
(-2.38305e-15 -2.13982 13.6004)
(5.66884e-15 -2.40092 15.1299)
(1.05728e-14 -2.53031 16.7383)
(1.30611e-14 -2.56185 18.3572)
(2.19421e-14 -2.52915 19.9381)
(2.89187e-14 -2.45111 21.451)
(3.19198e-14 -2.32823 22.8736)
(3.03956e-14 -2.15207 24.1822)
(2.83921e-14 -1.90136 25.3401)
(2.88289e-14 -1.56835 26.2985)
(3.36353e-14 -1.1553 27.0075)
(3.37621e-14 -0.684457 27.4275)
(3.21892e-14 -0.195472 27.5412)
(3.48755e-14 0.273681 27.3807)
(3.83854e-14 0.720641 26.9717)
(4.438e-14 1.13151 26.3816)
(4.29996e-14 1.51299 25.6344)
(2.70463e-14 1.87426 24.7484)
(1.51641e-14 2.18882 23.7177)
(9.19814e-15 2.41824 22.5392)
(-7.5105e-15 2.53289 21.2323)
(-8.66967e-15 2.51891 19.8469)
(-6.08179e-15 2.39241 18.4542)
(-4.1655e-15 2.19586 17.1155)
(1.03589e-14 1.97411 15.8606)
(1.58679e-14 1.7639 14.6916)
(1.29208e-15 1.63033 13.609)
(-2.18467e-16 1.71953 12.6385)
(-6.28197e-15 2.15663 11.7672)
(8.76523e-15 2.79249 10.8579)
(8.05107e-15 3.27871 9.79293)
(-3.75754e-15 3.40899 8.60613)
(-1.73156e-14 3.18624 7.4109)
(-8.04134e-15 2.69269 6.31157)
(2.54117e-14 1.96522 5.43847)
(2.74818e-15 1.14606 4.97309)
(-7.89022e-15 0.534976 4.92214)
(-3.95787e-14 0.384994 5.11961)
(-2.75837e-14 0.541612 5.10022)
(-9.14313e-15 0.587825 4.80692)
(2.95465e-14 0.644797 4.28103)
(-6.98995e-15 -0.247106 4.18544)
(5.15318e-15 -1.87079 3.46479)
(-4.50672e-14 -2.9614 3.91905)
(-2.9531e-14 -3.50484 4.32151)
(6.07419e-15 -3.97348 4.88419)
(4.28665e-15 -4.48495 5.68941)
(-1.76062e-15 -4.97457 6.72318)
(-1.40224e-14 -5.27301 7.97848)
(-1.45379e-14 -5.17005 9.16994)
(-2.42908e-14 -4.75101 10.1729)
(-6.31591e-14 -4.25161 11.1394)
(-5.77125e-14 -2.82396 12.0506)
(-6.79341e-14 -0.949967 12.9326)
(-5.92869e-14 0.790177 13.0111)
(-4.64431e-14 2.18725 12.5975)
(-4.00696e-14 2.99359 11.8269)
(-3.22373e-14 3.28 10.8041)
(-3.63614e-14 3.25024 9.76836)
(-3.60279e-14 3.03091 8.79833)
(-3.6356e-14 2.70413 7.95348)
(-2.16991e-14 2.37301 7.25959)
(-8.28216e-15 2.12159 6.63068)
(-5.04269e-15 1.80116 6.04685)
(-4.48112e-15 1.23782 5.74719)
(2.70332e-15 0.566122 6.05548)
(1.47904e-14 0.364756 6.40735)
(2.2748e-14 0.848364 7.13477)
(9.42397e-15 -0.240407 15.5135)
(-3.93666e-15 -0.282096 15.5848)
(3.58022e-15 -0.366225 15.7615)
(1.47218e-15 -0.494974 16.1065)
(2.11094e-15 -0.634592 16.6022)
(6.09437e-15 -0.731169 17.1871)
(9.73398e-15 -0.753491 17.7802)
(5.05793e-16 -0.691674 18.2929)
(2.66752e-15 -0.566812 18.645)
(9.64983e-15 -0.427822 18.8023)
(6.75899e-16 -0.313943 18.7905)
(1.11553e-15 -0.239405 18.6679)
(-9.11257e-16 -0.195583 18.4895)
(-3.20114e-15 -0.161203 18.2912)
(-5.67994e-15 -0.109474 18.084)
(-1.01051e-14 -0.00830107 17.863)
(-1.25515e-14 0.180354 17.6224)
(-1.16029e-14 0.509291 17.2933)
(3.94876e-15 0.914812 16.7228)
(2.0573e-15 1.25027 15.8962)
(-9.32628e-16 1.4535 14.9119)
(1.6837e-15 1.52761 13.8717)
(-6.50091e-15 1.49563 12.8517)
(-1.42057e-14 1.37759 11.9118)
(5.83539e-15 1.1878 11.1056)
(8.25526e-15 0.936761 10.477)
(7.22304e-15 0.630699 10.0517)
(-1.46231e-14 0.27147 9.86029)
(8.38737e-15 -0.163145 9.86992)
(2.82834e-15 -0.700973 10.1167)
(-1.26892e-14 -1.34405 10.7051)
(-4.6361e-16 -1.96795 11.7446)
(-1.43523e-15 -2.43746 13.1019)
(1.47371e-14 -2.72722 14.6132)
(2.57468e-14 -2.8707 16.2025)
(1.85737e-14 -2.90605 17.8166)
(2.09816e-14 -2.8692 19.4011)
(2.67136e-14 -2.78045 20.9183)
(2.72007e-14 -2.64037 22.3414)
(2.21177e-14 -2.43975 23.6458)
(2.29087e-14 -2.15307 24.7941)
(1.93513e-14 -1.77193 25.7354)
(2.61803e-14 -1.29834 26.4177)
(3.4906e-14 -0.758369 26.7982)
(3.63462e-14 -0.200893 26.8576)
(3.92528e-14 0.330515 26.6347)
(4.18187e-14 0.832054 26.1508)
(4.53524e-14 1.28348 25.4851)
(4.63488e-14 1.69838 24.6584)
(4.2398e-14 2.09346 23.7135)
(3.56974e-14 2.44409 22.6663)
(2.31391e-14 2.7114 21.5152)
(8.19345e-15 2.85985 20.2543)
(-4.03628e-15 2.86531 18.9063)
(-9.89462e-15 2.73984 17.5325)
(-1.34101e-14 2.53083 16.1961)
(-9.61897e-15 2.29085 14.9317)
(-2.78855e-15 2.06009 13.7438)
(-1.04847e-14 1.90176 12.6271)
(-8.46687e-15 1.96574 11.5952)
(-4.18876e-15 2.39704 10.647)
(4.08705e-15 3.05784 9.69531)
(7.38114e-15 3.5788 8.65478)
(-1.91484e-15 3.72786 7.54456)
(-3.19904e-14 3.49715 6.44273)
(-7.29773e-15 2.9661 5.42003)
(2.60592e-14 2.13953 4.60614)
(3.38766e-14 1.18369 4.23551)
(-2.74105e-14 0.442203 4.32974)
(-5.55224e-14 0.298254 4.7731)
(-9.43586e-14 0.480049 4.79064)
(-2.149e-14 0.503996 4.43789)
(3.0613e-14 0.630349 3.78925)
(-1.39837e-14 -0.29379 4.07421)
(-1.50264e-13 -1.77623 2.69531)
(-4.68662e-14 -3.00629 2.84803)
(5.37831e-15 -3.63207 2.97058)
(-1.68339e-15 -4.1914 3.29267)
(2.19634e-14 -4.80193 3.8596)
(-5.0505e-16 -5.38801 4.64707)
(-1.43138e-14 -5.71451 5.62141)
(-2.17217e-14 -5.56835 6.44735)
(-5.16839e-14 -5.10407 7.10234)
(-7.68139e-14 -4.64862 7.7681)
(-7.79463e-14 -3.10993 8.11726)
(-7.30549e-14 -0.962624 9.46418)
(-6.6851e-14 0.77137 9.6134)
(-5.47737e-14 2.25845 9.29801)
(-4.4616e-14 3.20825 8.77008)
(-4.20296e-14 3.56913 7.98641)
(-3.82101e-14 3.55536 7.17169)
(-3.76297e-14 3.30869 6.40798)
(-3.37584e-14 2.88696 5.85233)
(-2.39638e-14 2.3849 5.60167)
(-1.794e-14 1.99262 5.48259)
(-3.92318e-15 1.73427 5.16852)
(1.87386e-15 1.41771 3.69847)
(1.20578e-14 1.08468 1.13444)
(1.45198e-14 0.824902 -0.903361)
(1.27454e-14 1.07957 -2.40423)
(-9.18439e-16 -0.251907 15.2255)
(-6.61619e-16 -0.301487 15.2451)
(1.23667e-15 -0.400683 15.415)
(2.1266e-15 -0.546398 15.7482)
(4.48412e-15 -0.70014 16.2078)
(5.15085e-15 -0.804436 16.745)
(-5.63241e-15 -0.826048 17.2903)
(3.66754e-15 -0.753632 17.7562)
(1.34792e-15 -0.610543 18.0587)
(1.2015e-15 -0.452353 18.1618)
(6.32847e-15 -0.323637 18.0932)
(-4.82873e-15 -0.240602 17.9149)
(-7.3748e-15 -0.193509 17.6856)
(2.08231e-15 -0.158551 17.4445)
(-8.29597e-15 -0.106792 17.2043)
(-8.36133e-15 -0.00404691 16.9613)
(-1.16957e-14 0.192339 16.7107)
(-2.08261e-14 0.547686 16.3793)
(-6.05303e-15 0.992524 15.8031)
(-5.20599e-15 1.36035 14.9729)
(2.11545e-15 1.58196 13.9972)
(4.21278e-15 1.66178 12.9815)
(1.22165e-15 1.62535 11.9991)
(5.60475e-15 1.49369 11.1045)
(1.5413e-15 1.28175 10.3471)
(-1.89141e-15 1.00173 9.76703)
(-1.38879e-15 0.662089 9.38456)
(3.66561e-15 0.265112 9.22842)
(3.29352e-15 -0.208557 9.25428)