/*--------------------------------*- C++ -*----------------------------------*\
| =========                 |                                                 |
| \\      /  F ield         | OpenFOAM: The Open Source CFD Toolbox           |
|  \\    /   O peration     | Version:  4.1                                   |
|   \\  /    A nd           | Web:      www.OpenFOAM.org                      |
|    \\/     M anipulation  |                                                 |
\*---------------------------------------------------------------------------*/
FoamFile
{
    version     2.0;
    format      ascii;
    class       volScalarField;
    location    "500";
    object      k;
}
// * * * * * * * * * * * * * * * * * * * * * * * * * * * * * * * * * * * * * //

dimensions      [0 2 -2 0 0 0 0];

internalField   nonuniform List<scalar> 
6820
(
0.257082
0.434211
0.59852
0.709382
0.778146
0.81805
0.838549
0.845899
0.844375
0.836969
0.825775
0.812258
0.79744
0.782033
0.766521
0.751229
0.736371
0.722078
0.708428
0.69546
0.683185
0.671598
0.66068
0.650406
0.640747
0.631669
0.623138
0.615125
0.607571
0.600562
0.593495
0.589055
0.574859
0.811277
1.44613
1.51874
1.38792
1.22323
1.07762
0.959221
0.86457
0.788643
0.727159
0.676843
0.635257
0.600578
0.57143
0.54676
0.525753
0.50777
0.492301
0.478941
0.46736
0.457288
0.448504
0.440824
0.434095
0.428188
0.422995
0.418423
0.414399
0.410853
0.407751
0.404995
0.40275
0.400462
0.368869
0.664161
0.797428
0.829396
0.816588
0.786284
0.750409
0.713989
0.679042
0.646309
0.615998
0.588101
0.562512
0.539086
0.517661
0.498076
0.480171
0.463798
0.448819
0.435106
0.422543
0.411025
0.400457
0.390752
0.381831
0.373626
0.366073
0.359115
0.3527
0.346785
0.341323
0.336294
0.331638
0.240027
0.336287
0.412169
0.460221
0.487104
0.500011
0.504035
0.502506
0.49753
0.49042
0.482008
0.472842
0.46329
0.453605
0.443961
0.434477
0.425234
0.416286
0.407667
0.399395
0.39148
0.383924
0.376721
0.369866
0.363347
0.357152
0.351269
0.345685
0.340385
0.335356
0.330585
0.32606
0.321761
0.214145
0.250649
0.284541
0.31208
0.332947
0.348026
0.358468
0.365344
0.369526
0.371678
0.372292
0.37174
0.370303
0.368197
0.365588
0.362609
0.35936
0.355924
0.352364
0.348731
0.345065
0.341398
0.337755
0.334154
0.330612
0.327139
0.323745
0.320435
0.317214
0.314086
0.311051
0.308112
0.305268
0.20564
0.221937
0.238617
0.253659
0.266439
0.276903
0.285272
0.291849
0.296933
0.300782
0.303611
0.305599
0.306892
0.307611
0.307856
0.307709
0.30724
0.306506
0.305555
0.304429
0.303161
0.30178
0.300311
0.298774
0.297187
0.295564
0.293919
0.29226
0.290598
0.28894
0.287291
0.285659
0.284047
0.202357
0.210378
0.219404
0.228106
0.235956
0.242783
0.248604
0.253514
0.25762
0.261025
0.263823
0.266094
0.267912
0.269336
0.270422
0.271214
0.271753
0.272074
0.272206
0.272175
0.272005
0.271715
0.271323
0.270844
0.27029
0.269675
0.269007
0.268297
0.267551
0.266778
0.265982
0.26517
0.264348
0.201008
0.2051
0.210231
0.215526
0.220539
0.225078
0.229098
0.232621
0.235688
0.238345
0.240634
0.242596
0.244267
0.245679
0.246863
0.247844
0.248644
0.249285
0.249784
0.250158
0.25042
0.250584
0.250661
0.250661
0.250593
0.250466
0.250287
0.250062
0.249797
0.249498
0.24917
0.248817
0.248443
0.200424
0.202508
0.205459
0.208753
0.212039
0.21513
0.217952
0.220495
0.222767
0.224789
0.226579
0.228158
0.229547
0.230763
0.231824
0.232745
0.233538
0.234218
0.234794
0.235278
0.235677
0.236002
0.236258
0.236453
0.236594
0.236685
0.236731
0.236739
0.23671
0.236651
0.236563
0.236451
0.236318
0.200163
0.201193
0.202864
0.204904
0.207067
0.20919
0.211192
0.213043
0.214736
0.216271
0.217659
0.218907
0.220028
0.22103
0.221925
0.222721
0.223426
0.22405
0.224598
0.225077
0.225494
0.225854
0.226162
0.226423
0.22664
0.226818
0.226961
0.227072
0.227153
0.227208
0.227239
0.227249
0.22724
0.200044
0.20052
0.201431
0.20266
0.20406
0.205505
0.20692
0.208267
0.209527
0.210693
0.211765
0.212746
0.213641
0.214454
0.215191
0.215858
0.216459
0.217001
0.217487
0.217923
0.218311
0.218656
0.218961
0.21923
0.219466
0.21967
0.219847
0.219997
0.220124
0.22023
0.220316
0.220385
0.220437
0.199989
0.200177
0.20064
0.201347
0.20222
0.203178
0.204159
0.205125
0.206053
0.206931
0.207754
0.208518
0.209226
0.209878
0.210478
0.211027
0.21153
0.211988
0.212406
0.212785
0.21313
0.213441
0.213722
0.213974
0.214201
0.214404
0.214584
0.214744
0.214885
0.215009
0.215118
0.215211
0.215292
0.199965
0.200004
0.200209
0.200584
0.201099
0.201705
0.202361
0.203034
0.203702
0.20435
0.20497
0.205558
0.20611
0.206626
0.207107
0.207553
0.207966
0.208347
0.208698
0.209021
0.209317
0.209589
0.209837
0.210064
0.210271
0.210458
0.210629
0.210783
0.210922
0.211048
0.211161
0.211263
0.211353
0.199954
0.199918
0.199978
0.20015
0.200425
0.200783
0.201197
0.201645
0.202107
0.20257
0.203024
0.203464
0.203886
0.204286
0.204664
0.205019
0.205351
0.205662
0.205951
0.20622
0.20647
0.206701
0.206914
0.207111
0.207293
0.20746
0.207614
0.207755
0.207885
0.208003
0.208112
0.208211
0.208302
0.199949
0.199877
0.199857
0.199907
0.200029
0.200217
0.200456
0.200732
0.201033
0.201348
0.201666
0.201983
0.202293
0.202594
0.202882
0.203157
0.203419
0.203665
0.203898
0.204116
0.204321
0.204513
0.204692
0.204858
0.205013
0.205158
0.205292
0.205416
0.205532
0.205639
0.205738
0.20583
0.205916
0.199947
0.199857
0.199795
0.199775
0.199803
0.199877
0.199993
0.200145
0.200323
0.200519
0.200728
0.200943
0.20116
0.201375
0.201586
0.201791
0.201988
0.202178
0.202359
0.20253
0.202693
0.202847
0.202993
0.203129
0.203258
0.203379
0.203492
0.203598
0.203698
0.203791
0.203878
0.20396
0.204037
0.199947
0.199847
0.199764
0.199705
0.199676
0.199679
0.199713
0.199775
0.199863
0.199969
0.200091
0.200224
0.200363
0.200506
0.20065
0.200794
0.200936
0.201074
0.201208
0.201337
0.201462
0.201581
0.201694
0.201802
0.201905
0.202002
0.202094
0.202182
0.202265
0.202343
0.202417
0.202487
0.202553
0.199946
0.199843
0.199749
0.199669
0.199607
0.199566
0.199547
0.19955
0.199573
0.199613
0.199669
0.199736
0.199813
0.199897
0.199986
0.200077
0.20017
0.200264
0.200356
0.200447
0.200537
0.200623
0.200707
0.200788
0.200866
0.200941
0.201013
0.201082
0.201148
0.201211
0.201271
0.201329
0.201384
0.199946
0.199841
0.199742
0.199651
0.199571
0.199504
0.199453
0.199416
0.199395
0.199389
0.199396
0.199415
0.199443
0.19948
0.199523
0.199572
0.199624
0.199679
0.199735
0.199793
0.199851
0.199908
0.199966
0.200022
0.200077
0.200131
0.200184
0.200235
0.200285
0.200333
0.20038
0.200425
0.200469
0.199946
0.19984
0.199739
0.199642
0.199552
0.199471
0.1994
0.199339
0.19929
0.199252
0.199225
0.199208
0.199201
0.199202
0.199209
0.199223
0.199242
0.199265
0.199292
0.199321
0.199352
0.199385
0.199418
0.199453
0.199488
0.199523
0.199558
0.199593
0.199628
0.199662
0.199696
0.19973
0.199763
0.199946
0.19984
0.199737
0.199638
0.199543
0.199454
0.199371
0.199296
0.19923
0.199171
0.199122
0.19908
0.199047
0.199022
0.199003
0.198991
0.198984
0.198982
0.198984
0.19899
0.199
0.199011
0.199026
0.199042
0.199059
0.199078
0.199098
0.199119
0.199141
0.199163
0.199185
0.199209
0.199232
0.199946
0.19984
0.199736
0.199635
0.199538
0.199445
0.199356
0.199273
0.199196
0.199125
0.199061
0.199004
0.198954
0.198911
0.198874
0.198842
0.198817
0.198797
0.198781
0.198769
0.198761
0.198757
0.198756
0.198757
0.198761
0.198767
0.198774
0.198784
0.198795
0.198807
0.19882
0.198834
0.198849
0.199946
0.19984
0.199736
0.199634
0.199536
0.19944
0.199349
0.199261
0.199178
0.1991
0.199028
0.198962
0.198901
0.198847
0.198798
0.198755
0.198717
0.198684
0.198656
0.198633
0.198613
0.198598
0.198585
0.198576
0.19857
0.198567
0.198566
0.198567
0.19857
0.198574
0.198581
0.198588
0.198597
0.199946
0.19984
0.199735
0.199634
0.199534
0.199438
0.199345
0.199255
0.19917
0.199089
0.199013
0.198942
0.198876
0.198816
0.198761
0.198712
0.198668
0.198629
0.198594
0.198564
0.198539
0.198517
0.198499
0.198484
0.198472
0.198464
0.198458
0.198454
0.198452
0.198453
0.198455
0.198459
0.198464
0.199946
0.19984
0.199735
0.199633
0.199534
0.199437
0.199344
0.199254
0.199168
0.199087
0.19901
0.198939
0.198873
0.198812
0.198757
0.198707
0.198662
0.198622
0.198587
0.198556
0.19853
0.198507
0.198488
0.198473
0.19846
0.198451
0.198444
0.198439
0.198437
0.198436
0.198438
0.19844
0.198445
0.199946
0.19984
0.199735
0.199634
0.199534
0.199438
0.199346
0.199257
0.199174
0.199095
0.199022
0.198954
0.198892
0.198836
0.198786
0.198741
0.198701
0.198667
0.198637
0.198611
0.19859
0.198572
0.198558
0.198546
0.198538
0.198532
0.198529
0.198527
0.198528
0.19853
0.198534
0.198539
0.198545
0.199946
0.19984
0.199736
0.199635
0.199537
0.199442
0.199353
0.199269
0.19919
0.199119
0.199053
0.198995
0.198943
0.198898
0.198859
0.198826
0.198799
0.198776
0.198758
0.198744
0.198733
0.198726
0.198722
0.198721
0.198721
0.198724
0.198729
0.198735
0.198742
0.198751
0.19876
0.19877
0.198781
0.199946
0.19984
0.199737
0.199637
0.199542
0.199453
0.19937
0.199295
0.199229
0.199171
0.199121
0.19908
0.199047
0.199021
0.199002
0.19899
0.198982
0.198979
0.19898
0.198985
0.198992
0.199002
0.199014
0.199027
0.199042
0.199058
0.199075
0.199092
0.19911
0.199128
0.199146
0.199164
0.199182
0.199946
0.199841
0.19974
0.199645
0.199557
0.199478
0.19941
0.199354
0.19931
0.199277
0.199256
0.199245
0.199243
0.199248
0.199261
0.199279
0.199302
0.199328
0.199356
0.199387
0.199419
0.199452
0.199486
0.199519
0.199553
0.199585
0.199618
0.199649
0.19968
0.19971
0.199738
0.199766
0.199793
0.199947
0.199844
0.199749
0.199664
0.199592
0.199537
0.1995
0.19948
0.199478
0.19949
0.199517
0.199554
0.1996
0.199654
0.199712
0.199774
0.199839
0.199904
0.199969
0.200033
0.200097
0.200158
0.200218
0.200275
0.20033
0.200383
0.200433
0.20048
0.200525
0.200568
0.200608
0.200646
0.200682
0.199948
0.199852
0.19977
0.199711
0.199678
0.199673
0.199697
0.199747
0.199819
0.199908
0.200011
0.200123
0.200241
0.200362
0.200483
0.200603
0.20072
0.200833
0.200942
0.201047
0.201145
0.201239
0.201327
0.20141
0.201488
0.20156
0.201628
0.201691
0.20175
0.201805
0.201856
0.201902
0.201946
0.199951
0.199872
0.199828
0.199831
0.199884
0.199986
0.200128
0.200303
0.200501
0.200712
0.20093
0.201148
0.201363
0.201572
0.201771
0.201961
0.20214
0.202307
0.202464
0.20261
0.202745
0.20287
0.202985
0.203092
0.20319
0.20328
0.203362
0.203437
0.203506
0.203569
0.203627
0.203679
0.203726
0.19996
0.199932
0.199988
0.200141
0.200383
0.200696
0.201056
0.201441
0.201835
0.202224
0.202599
0.202956
0.20329
0.203601
0.203888
0.204152
0.204394
0.204614
0.204815
0.204998
0.205163
0.205313
0.205449
0.205572
0.205682
0.205782
0.205871
0.205951
0.206023
0.206086
0.206143
0.206192
0.206236
0.19999
0.200113
0.200438
0.200946
0.201583
0.202289
0.203013
0.203721
0.204392
0.205013
0.20558
0.206093
0.206555
0.206968
0.207336
0.207664
0.207956
0.208216
0.208446
0.20865
0.20883
0.208989
0.20913
0.209253
0.209361
0.209456
0.209537
0.209608
0.209668
0.20972
0.209762
0.209797
0.209826
0.200097
0.200698
0.20173
0.203031
0.204431
0.205805
0.20708
0.208224
0.209231
0.210109
0.210868
0.211523
0.212086
0.21257
0.212986
0.213344
0.213651
0.213914
0.214139
0.214331
0.214494
0.214631
0.214747
0.214842
0.21492
0.214983
0.215032
0.215068
0.215093
0.215108
0.215115
0.215113
0.215104
0.200521
0.202675
0.205525
0.20847
0.21119
0.213552
0.215529
0.217153
0.218478
0.219554
0.220426
0.221133
0.221706
0.222171
0.222546
0.222848
0.223089
0.22328
0.223428
0.22354
0.22362
0.223675
0.223706
0.223717
0.22371
0.223688
0.223652
0.223604
0.223546
0.223478
0.223402
0.223319
0.223229
0.202177
0.209423
0.217079
0.223317
0.228004
0.231439
0.233927
0.235721
0.237012
0.237938
0.238595
0.239056
0.239369
0.239572
0.239688
0.239736
0.239729
0.239678
0.239591
0.239472
0.239327
0.23916
0.238974
0.238771
0.238554
0.238324
0.238084
0.237835
0.237578
0.237314
0.237044
0.23677
0.236492
0.208502
0.227596
0.245316
0.25869
0.267554
0.272837
0.275658
0.27695
0.277338
0.277195
0.276744
0.276116
0.275385
0.274597
0.273775
0.272934
0.272081
0.271223
0.270361
0.269498
0.268634
0.267772
0.266912
0.266055
0.265203
0.264357
0.263517
0.262685
0.261861
0.261046
0.260241
0.259447
0.258664
0.248308
0.315061
0.348161
0.362158
0.367119
0.367959
0.366701
0.364185
0.360865
0.357051
0.352963
0.348751
0.344522
0.340352
0.336293
0.332378
0.328628
0.325055
0.321664
0.318456
0.315427
0.312573
0.309887
0.307363
0.304992
0.302767
0.300681
0.298724
0.296891
0.295173
0.293564
0.292058
0.290646
0.205354
0.221127
0.238043
0.254121
0.268995
0.282971
0.296258
0.308938
0.321053
0.332632
0.343695
0.354263
0.364349
0.373969
0.383138
0.391871
0.400184
0.40809
0.415606
0.422747
0.429528
0.435963
0.442069
0.447858
0.453346
0.458546
0.463472
0.468138
0.472554
0.476735
0.480691
0.484433
0.487977
0.618925
0.693902
0.814194
0.962
1.12508
1.29136
1.45217
1.60066
1.73131
1.84041
1.92658
1.99085
2.03604
2.0659
2.08423
2.09432
2.09868
2.09902
2.09637
2.09134
2.08431
2.07553
2.06523
2.05362
2.04086
2.02711
2.01242
1.99681
1.98021
1.96252
1.9436
1.92327
1.90135
1.87762
1.85191
1.82401
1.79375
1.76097
1.72554
1.68738
1.64641
1.60264
1.55608
1.50683
1.45503
1.40088
1.34464
1.28663
1.22722
1.16685
1.10599
1.04516
0.984896
0.925744
0.868246
0.812922
0.760249
0.710654
0.664491
0.622041
0.5835
0.548983
0.518528
0.492106
0.469637
0.451009
0.436095
0.424786
0.417006
0.41274
0.412047
0.415064
0.422047
0.433479
0.450299
0.474258
0.508139
0.555256
0.61784
0.695209
0.783457
0.876982
0.970464
1.06001
1.14333
1.21938
1.28792
1.34914
1.40349
1.45149
1.4937
1.53065
1.56286
1.59082
1.61497
1.63572
1.65346
1.66851
1.68123
1.69261
0.39884
0.403716
0.416874
0.440521
0.475341
0.521697
0.579546
0.64806
0.72592
0.811364
0.902205
0.995893
1.08962
1.18052
1.26592
1.34359
1.41194
1.47014
1.51808
1.55625
1.58556
1.60708
1.62191
1.63107
1.63539
1.63558
1.63216
1.62556
1.61608
1.60397
1.58938
1.57243
1.55316
1.53162
1.50781
1.48172
1.45334
1.42266
1.3897
1.35447
1.31703
1.27745
1.23587
1.19242
1.14732
1.1008
1.05314
1.00466
0.955728
0.906724
0.858058
0.810153
0.763429
0.718299
0.675148
0.63433
0.596149
0.560857
0.528644
0.499637
0.473903
0.451451
0.432245
0.416211
0.403256
0.393282
0.386203
0.381968
0.380574
0.382085
0.386637
0.394446
0.405844
0.421391
0.44212
0.469876
0.507519
0.558366
0.624517
0.705052
0.795836
0.891161
0.985747
1.07584
1.1593
1.23524
1.30352
1.36444
1.41848
1.46621
1.50818
1.54496
1.57707
1.60498
1.62914
1.64996
1.6678
1.68298
1.69587
1.70738
0.326679
0.321566
0.317024
0.313522
0.311759
0.312462
0.316014
0.323156
0.334676
0.351381
0.374042
0.403304
0.439575
0.482903
0.532864
0.588504
0.648356
0.710551
0.773004
0.833641
0.890624
0.942512
0.988341
1.02762
1.06026
1.08648
1.10665
1.12128
1.13085
1.13583
1.13665
1.13367
1.1272
1.11751
1.10482
1.08932
1.07119
1.05059
1.02768
1.0026
0.975524
0.946632
0.916114
0.884184
0.851077
0.817049
0.78238
0.747366
0.712317
0.677554
0.643398
0.610167
0.578164
0.547671
0.51894
0.492189
0.467595
0.445289
0.425362
0.40786
0.392794
0.380142
0.369862
0.3619
0.356201
0.352721
0.351444
0.352391
0.355636
0.361318
0.369641
0.380886
0.395442
0.41393
0.437428
0.467801
0.507892
0.560964
0.629051
0.711174
0.803169
0.899334
0.99443
1.08477
1.16829
1.24418
1.31236
1.37316
1.4271
1.47477
1.51674
1.55358
1.58579
1.61386
1.63822
1.65927
1.67738
1.69286
1.70606
1.7179
0.317029
0.311835
0.306764
0.301852
0.297194
0.292915
0.289149
0.285965
0.283537
0.282098
0.281935
0.283391
0.28686
0.292774
0.301578
0.313681
0.329409
0.348937
0.372232
0.399014
0.428743
0.460643
0.49377
0.527093
0.559596
0.59036
0.618628
0.643833
0.665604
0.683745
0.698198
0.709013
0.716311
0.720259
0.721045
0.718872
0.713945
0.70647
0.696656
0.684708
0.670837
0.655257
0.638188
0.619857
0.600498
0.580353
0.55967
0.538698
0.51769
0.496892
0.476543
0.456872
0.438086
0.420375
0.403901
0.388799
0.375177
0.363114
0.352662
0.343851
0.33669
0.331179
0.327307
0.325068
0.324462
0.325507
0.32825
0.332777
0.339223
0.34778
0.358703
0.372317
0.389053
0.409569
0.434952
0.467028
0.508538
0.562638
0.631328
0.713713
0.805767
0.901903
0.996943
1.08722
1.1707
1.24655
1.31472
1.37555
1.42958
1.47738
1.51955
1.55663
1.58913
1.61753
1.64227
1.66372
1.68226
1.69818
1.71184
1.72416
0.302068
0.298485
0.294927
0.291386
0.287861
0.284373
0.280953
0.277631
0.274444
0.27144
0.268677
0.266231
0.264192
0.262673
0.261808
0.261755
0.262688
0.264794
0.268255
0.273233
0.27985
0.288163
0.298147
0.309681
0.322548
0.336444
0.350993
0.365779
0.380376
0.394372
0.407399
0.419145
0.429368
0.437894
0.444612
0.449474
0.45248
0.45367
0.45312
0.45093
0.447222
0.442138
0.435828
0.428457
0.420196
0.411224
0.401721
0.391869
0.381847
0.371832
0.361988
0.352475
0.343435
0.334998
0.327278
0.32037
0.314356
0.309299
0.305252
0.302255
0.300339
0.299533
0.299865
0.30137
0.304093
0.308098
0.313476
0.320356
0.328909
0.339363
0.352001
0.367174
0.385342
0.407178
0.433756
0.466813
0.50893
0.563104
0.631312
0.712843
0.803948
0.89926
0.993697
1.0836
1.16687
1.24266
1.31089
1.37187
1.42612
1.47422
1.51674
1.55423
1.58719
1.61609
1.64135
1.66336
1.68246
1.69897
1.71322
1.72617
0.282192
0.280071
0.277923
0.275739
0.273512
0.271243
0.268942
0.266623
0.264301
0.261992
0.259714
0.257489
0.255341
0.253296
0.25139
0.249663
0.248163
0.246947
0.246079
0.24563
0.245673
0.246277
0.247508
0.249412
0.252017
0.255322
0.259293
0.263861
0.268927
0.27436
0.280009
0.285711
0.291298
0.296609
0.301497
0.305836
0.309524
0.312485
0.314674
0.316068
0.316673
0.316515
0.315641
0.314113
0.31201
0.309419
0.306438
0.303167
0.299714
0.296183
0.292679
0.289302
0.286149
0.283309
0.280863
0.278886
0.277446
0.276602
0.276408
0.276915
0.27817
0.28022
0.283119
0.286923
0.291703
0.29755
0.304577
0.312934
0.322813
0.334456
0.348159
0.364288
0.383317
0.405924
0.433147
0.46661
0.508691
0.562181
0.629034
0.708777
0.798051
0.891808
0.985107
1.07428
1.15717
1.23284
1.30114
1.36234
1.41692
1.46543
1.50845
1.54649
1.58005
1.60959
1.63552
1.65821
1.67802
1.69524
1.7102
1.72393
0.263376
0.262234
0.261048
0.259814
0.258525
0.257178
0.255777
0.254327
0.252837
0.251315
0.24977
0.248211
0.246647
0.245089
0.243546
0.242032
0.240559
0.239146
0.237812
0.23658
0.235477
0.234531
0.233775
0.233238
0.23295
0.232937
0.233217
0.233799
0.234682
0.235853
0.237285
0.238942
0.240774
0.242725
0.244734
0.246738
0.248675
0.250488
0.252127
0.253554
0.254739
0.255665
0.256328
0.256734
0.256901
0.256859
0.256644
0.2563
0.255877
0.255431
0.255019
0.2547
0.254534
0.254578
0.254892
0.255532
0.25655
0.257999
0.259931
0.262396
0.265444
0.269132
0.273517
0.278669
0.284667
0.291611
0.299625
0.308865
0.319528
0.331861
0.346161
0.362798
0.382251
0.405195
0.43262
0.466022
0.507552
0.559764
0.624567
0.701757
0.788437
0.879965
0.9716
1.05968
1.14197
1.21741
1.28575
1.3472
1.40217
1.4512
1.49481
1.53352
1.5678
1.5981
1.62482
1.64832
1.66895
1.68699
1.70279
1.71742
0.247983
0.247421
0.246817
0.246168
0.245468
0.244715
0.243909
0.243052
0.242149
0.241204
0.240222
0.239209
0.238171
0.237112
0.236036
0.23495
0.233858
0.232766
0.231681
0.230611
0.229566
0.228556
0.227595
0.226698
0.225878
0.225153
0.224537
0.224045
0.223688
0.223474
0.223409
0.223491
0.223716
0.224074
0.224552
0.225131
0.22579
0.22651
0.227267
0.228042
0.228817
0.229579
0.230318
0.23103
0.231717
0.232386
0.233051
0.233729
0.234444
0.235225
0.236102
0.237111
0.238288
0.239672
0.241304
0.243224
0.245476
0.248102
0.251146
0.254656
0.258679
0.263269
0.268486
0.274398
0.281088
0.288656
0.297226
0.306953
0.318032
0.330703
0.345261
0.362071
0.381612
0.404543
0.431806
0.464764
0.505329
0.555804
0.618022
0.692043
0.775479
0.864164
0.953621
1.04023
1.12165
1.19671
1.26502
1.3267
1.3821
1.4317
1.47598
1.51544
1.55054
1.5817
1.60931
1.63372
1.65527
1.67424
1.69096
1.70662
0.236137
0.235899
0.235625
0.235315
0.234963
0.234568
0.234128
0.233643
0.233117
0.232551
0.231949
0.231315
0.230651
0.229962
0.229249
0.228517
0.227768
0.227004
0.226229
0.225446
0.224658
0.223871
0.22309
0.222321
0.221573
0.220853
0.22017
0.219534
0.218954
0.218439
0.217998
0.217639
0.217366
0.217183
0.217093
0.217096
0.217191
0.217374
0.217642
0.21799
0.218415
0.218913
0.219483
0.220124
0.220839
0.221634
0.222516
0.223496
0.224591
0.225816
0.227192
0.228743
0.230495
0.232476
0.234716
0.237246
0.240102
0.243318
0.246934
0.250989
0.25553
0.260604
0.266271
0.272594
0.279655
0.287549
0.296397
0.306348
0.317589
0.330352
0.344919
0.361649
0.381011
0.403648
0.430446
0.462638
0.501909
0.550294
0.609528
0.679908
0.759561
0.844853
0.931633
1.01636
1.09662
1.17109
1.23926
1.30111
1.35693
1.40711
1.45212
1.49239
1.52837
1.56046
1.58905
1.61445
1.63701
1.65699
1.67474
1.69152
0.227207
0.227143
0.227052
0.226932
0.22678
0.226593
0.226371
0.226113
0.22582
0.225494
0.225136
0.224749
0.224336
0.223899
0.223441
0.222962
0.222466
0.221954
0.221429
0.22089
0.220342
0.219786
0.219225
0.218662
0.218102
0.217547
0.217005
0.21648
0.215978
0.215508
0.215074
0.214686
0.214349
0.214071
0.213857
0.213713
0.213645
0.213657
0.213754
0.213938
0.214214
0.214586
0.215058
0.215635
0.216324
0.217133
0.21807
0.219146
0.220375
0.221772
0.223353
0.225138
0.227147
0.229404
0.231934
0.234762
0.237919
0.241436
0.245346
0.249685
0.254495
0.259821
0.265717
0.272245
0.279479
0.287512
0.296455
0.306453
0.317679
0.330353
0.344745
0.361199
0.380172
0.402281
0.428359
0.459518
0.497227
0.543264
0.599234
0.665626
0.741066
0.822484
0.906111
0.988542
1.06731
1.14095
1.20881
1.27073
1.32691
1.37766
1.42339
1.4645
1.50141
1.53449
1.5641
1.59057
1.61421
1.63527
1.65411
1.67213
0.22048
0.220508
0.220514
0.220499
0.220459
0.220393
0.220299
0.220177
0.220027
0.21985
0.219647
0.21942
0.219171
0.218901
0.218614
0.21831
0.217991
0.217659
0.217315
0.21696
0.216597
0.216226
0.21585
0.21547
0.215088
0.214708
0.214332
0.213965
0.21361
0.213273
0.212958
0.212671
0.212419
0.212208
0.212044
0.211935
0.211886
0.211906
0.212001
0.212179
0.212445
0.212809
0.213278
0.213861
0.214566
0.215404
0.216386
0.217524
0.21883
0.220321
0.222012
0.223921
0.226067
0.228471
0.231154
0.234142
0.23746
0.241136
0.2452
0.249686
0.254631
0.260077
0.266074
0.27268
0.279963
0.288011
0.296928
0.306846
0.31793
0.330382
0.344457
0.360483
0.378897
0.400287
0.425432
0.455334
0.491269
0.534769
0.587292
0.649467
0.720373
0.79751
0.877543
0.957255
1.03417
1.1067
1.17403
1.23588
1.29231
1.34358
1.39
1.43195
1.4698
1.5039
1.53458
1.56215
1.58691
1.60912
1.6291
1.64843
0.215371
0.215444
0.215502
0.215543
0.215565
0.215567
0.215548
0.215506
0.215443
0.215358
0.215253
0.215129
0.214987
0.214828
0.214655
0.21447
0.214273
0.214066
0.213851
0.213629
0.213401
0.213168
0.212933
0.212696
0.212459
0.212225
0.211995
0.211772
0.21156
0.211362
0.211181
0.211024
0.210894
0.210798
0.210741
0.21073
0.210772
0.210874
0.211044
0.21129
0.211621
0.212045
0.212572
0.213213
0.213977
0.214876
0.215923
0.21713
0.218511
0.220082
0.221858
0.223857
0.226096
0.228596
0.231377
0.234462
0.237874
0.241638
0.245784
0.250342
0.255345
0.260834
0.266853
0.273456
0.280707
0.288685
0.297488
0.307236
0.318081
0.330209
0.343858
0.359335
0.377052
0.397567
0.421602
0.450062
0.484053
0.524887
0.573862
0.63169
0.697845
0.770376
0.846416
0.922996
0.997672
1.06876
1.13531
1.1969
1.25345
1.30513
1.35219
1.39494
1.4337
1.46881
1.50057
1.52927
1.55518
1.57856
1.59974
1.62044
0.211447
0.21154
0.211622
0.211691
0.211746
0.211785
0.211809
0.211815
0.211804
0.211777
0.211734
0.211675
0.211603
0.211518
0.211422
0.211317
0.211204
0.211084
0.210959
0.210831
0.2107
0.210569
0.210438
0.210308
0.210183
0.210062
0.209948
0.209844
0.209752
0.209675
0.209616
0.20958
0.20957
0.209592
0.20965
0.209752
0.209903
0.21011
0.210382
0.210726
0.21115
0.211665
0.21228
0.213006
0.213854
0.214836
0.215964
0.217253
0.218715
0.220366
0.222222
0.2243
0.226617
0.229191
0.232044
0.235195
0.238666
0.242482
0.246668
0.251253
0.256267
0.261748
0.267736
0.27428
0.28144
0.289286
0.297909
0.307418
0.317949
0.329673
0.342809
0.35764
0.374552
0.394064
0.416846
0.443714
0.475632
0.513716
0.559104
0.612543
0.673826
0.74151
0.813215
0.886269
0.958318
1.02762
1.09309
1.15417
1.21066
1.26261
1.3102
1.35367
1.3933
1.42939
1.46221
1.49203
1.51911
1.54368
1.56607
1.5882
0.208398
0.208498
0.208588
0.208669
0.208739
0.208798
0.208845
0.208878
0.208899
0.208906
0.208902
0.208886
0.208859
0.208823
0.208779
0.208729
0.208673
0.208615
0.208554
0.208492
0.208431
0.208373
0.208318
0.208269
0.208226
0.208192
0.208168
0.208157
0.208161
0.208183
0.208225
0.208291
0.208386
0.208513
0.208678
0.208885
0.209142
0.209454
0.209829
0.210275
0.210801
0.211414
0.212126
0.212947
0.213887
0.21496
0.216176
0.21755
0.219095
0.220827
0.22276
0.22491
0.227296
0.229933
0.232841
0.236039
0.239548
0.24339
0.247588
0.252169
0.257161
0.262596
0.268513
0.274957
0.281979
0.289645
0.298036
0.307249
0.317407
0.328664
0.341217
0.355327
0.371348
0.389758
0.411174
0.436334
0.466082
0.501369
0.543181
0.592258
0.648634
0.711319
0.77841
0.847578
0.916611
0.983755
1.04782
1.10811
1.16431
1.21635
1.26432
1.3084
1.34883
1.38583
1.41967
1.45059
1.47881
1.50456
1.52816
1.55175
0.206007
0.206104
0.206195
0.206278
0.206353
0.20642
0.206478
0.206526
0.206564
0.206593
0.206612
0.206623
0.206626
0.206623
0.206614
0.206601
0.206586
0.206569
0.206553
0.206539
0.206528
0.206523
0.206524
0.206533
0.206553
0.206584
0.206629
0.206689
0.206768
0.206868
0.206991
0.207141
0.207322
0.207538
0.207793
0.208093
0.208443
0.20885
0.20932
0.209862
0.210482
0.21119
0.211995
0.212908
0.213938
0.215099
0.216401
0.217858
0.219483
0.22129
0.223293
0.225509
0.227953
0.230641
0.23359
0.23682
0.240348
0.244195
0.248383
0.252934
0.257875
0.263236
0.269049
0.275355
0.282202
0.289648
0.297762
0.306633
0.316369
0.327107
0.339024
0.352354
0.367419
0.384654
0.404622
0.427989
0.455501
0.487975
0.526259
0.571053
0.622564
0.68018
0.742452
0.807418
0.873062
0.937664
0.999965
1.05915
1.11479
1.1667
1.21487
1.25942
1.30052
1.33835
1.37313
1.40508
1.43441
1.46131
1.4861
1.51117
0.20412
0.20421
0.204294
0.204374
0.204449
0.204517
0.204578
0.204633
0.20468
0.20472
0.204754
0.204781
0.204804
0.204821
0.204836
0.204849
0.204861
0.204874
0.20489
0.204909
0.204935
0.204968
0.20501
0.205062
0.205128
0.205207
0.205304
0.205419
0.205556
0.205716
0.205903
0.206119
0.20637
0.206658
0.206987
0.207364
0.207793
0.20828
0.208832
0.209456
0.21016
0.210951
0.21184
0.212835
0.213948
0.215188
0.216567
0.218098
0.219794
0.221666
0.22373
0.225999
0.228489
0.231214
0.234191
0.237435
0.240964
0.244797
0.248952
0.25345
0.258315
0.263573
0.269253
0.275391
0.282029
0.289217
0.297018
0.305508
0.314782
0.324961
0.336199
0.348705
0.362768
0.378779
0.397244
0.418765
0.444007
0.473676
0.508503
0.549133
0.595882
0.648438
0.705763
0.76627
0.82818
0.889863
0.950027
1.00777
1.06254
1.11406
1.16222
1.20705
1.24866
1.28719
1.32281
1.35571
1.38607
1.41407
1.44002
1.46655
0.202626
0.202705
0.202782
0.202854
0.202924
0.202989
0.203049
0.203105
0.203156
0.203201
0.203243
0.20328
0.203314
0.203345
0.203375
0.203405
0.203436
0.20347
0.203508
0.203552
0.203603
0.203663
0.203735
0.203819
0.203918
0.204034
0.204169
0.204325
0.204505
0.204711
0.204947
0.205216
0.20552
0.205865
0.206254
0.206693
0.207185
0.207738
0.208358
0.209051
0.209824
0.210686
0.211645
0.21271
0.213891
0.215198
0.216642
0.218234
0.219987
0.221912
0.224022
0.226331
0.228852
0.231598
0.234584
0.237825
0.241336
0.245133
0.249233
0.253655
0.258419
0.263548
0.269067
0.275007
0.281406
0.288306
0.295761
0.303837
0.312616
0.322202
0.332731
0.344384
0.357416
0.372174
0.389109
0.408762
0.431726
0.458622
0.490084
0.526697
0.568831
0.616404
0.66873
0.724586
0.782464
0.840865
0.898514
0.95445
1.00803
1.05885
1.10674
1.15163
1.19356
1.23263
1.26896
1.3027
1.334
1.36302
1.39004
1.41801
0.201445
0.201513
0.201579
0.201642
0.201704
0.201763
0.20182
0.201873
0.201924
0.201971
0.202016
0.202058
0.202099
0.202138
0.202178
0.20222
0.202263
0.202311
0.202364
0.202425
0.202494
0.202574
0.202666
0.202773
0.202896
0.203038
0.203201
0.203388
0.2036
0.203841
0.204113
0.20442
0.204766
0.205155
0.20559
0.206076
0.206618
0.207223
0.207895
0.208642
0.209471
0.210388
0.211403
0.212523
0.213758
0.215117
0.216611
0.21825
0.220044
0.222006
0.224147
0.226478
0.229012
0.231761
0.234738
0.237955
0.241428
0.245168
0.249191
0.253513
0.258151
0.263125
0.268456
0.274172
0.280303
0.286885
0.293966
0.301601
0.309858
0.318828
0.328626
0.339409
0.351397
0.364894
0.380296
0.398085
0.418793
0.442971
0.471176
0.503933
0.541634
0.584358
0.631707
0.682793
0.736392
0.79118
0.845943
0.899696
0.951717
1.00153
1.04885
1.09355
1.13559
1.175
1.21187
1.2463
1.27842
1.30834
1.33635
1.3657
0.200518
0.200573
0.200628
0.200682
0.200735
0.200787
0.200838
0.200887
0.200935
0.200981
0.201026
0.20107
0.201114
0.201158
0.201204
0.201252
0.201304
0.201361
0.201424
0.201496
0.201577
0.201671
0.201777
0.2019
0.20204
0.202201
0.202383
0.202591
0.202826
0.203091
0.20339
0.203725
0.204101
0.204521
0.204989
0.20551
0.20609
0.206732
0.207444
0.208231
0.2091
0.210058
0.211113
0.212273
0.213547
0.214942
0.21647
0.218138
0.219958
0.221939
0.224091
0.226427
0.228955
0.231687
0.234635
0.237808
0.24122
0.244881
0.248804
0.253002
0.25749
0.262284
0.267402
0.272867
0.278704
0.284944
0.291626
0.298796
0.306512
0.314848
0.323903
0.333809
0.344755
0.357
0.37089
0.386847
0.405347
0.426883
0.451952
0.481027
0.514499
0.552551
0.595008
0.641276
0.690415
0.741304
0.792831
0.844024
0.894121
0.942571
0.989011
1.03323
1.07511
1.11465
1.15186
1.18681
1.21958
1.25028
1.27916
1.30981
0.199801
0.199844
0.199887
0.199931
0.199976
0.20002
0.200064
0.200107
0.200151
0.200194
0.200237
0.200281
0.200326
0.200372
0.200421
0.200473
0.200529
0.200592
0.200662
0.200741
0.20083
0.200932
0.201048
0.201181
0.201332
0.201504
0.201699
0.201921
0.20217
0.202452
0.202768
0.203122
0.203518
0.203959
0.204449
0.204994
0.205598
0.206266
0.207004
0.207817
0.208713
0.209698
0.210779
0.211963
0.213259
0.214674
0.216218
0.217899
0.219726
0.221708
0.223854
0.226173
0.228676
0.231371
0.234268
0.237376
0.240704
0.244263
0.248062
0.252113
0.256426
0.261016
0.265897
0.271087
0.276608
0.282483
0.288745
0.295432
0.302591
0.310283
0.318591
0.327624
0.337541
0.34856
0.360977
0.375158
0.391523
0.410518
0.432586
0.458161
0.48762
0.521208
0.558913
0.600387
0.644954
0.691711
0.739684
0.787956
0.835752
0.882472
0.927683
0.9711
1.01255
1.05195
1.08927
1.12453
1.15779
1.1891
1.21869
1.25055
0.199259
0.199291
0.199324
0.199359