/*--------------------------------*- C++ -*----------------------------------*\
| =========                 |                                                 |
| \\      /  F ield         | OpenFOAM: The Open Source CFD Toolbox           |
|  \\    /   O peration     | Version:  4.1                                   |
|   \\  /    A nd           | Web:      www.OpenFOAM.org                      |
|    \\/     M anipulation  |                                                 |
\*---------------------------------------------------------------------------*/
FoamFile
{
    version     2.0;
    format      ascii;
    class       volScalarField;
    location    "500";
    object      nut;
}
// * * * * * * * * * * * * * * * * * * * * * * * * * * * * * * * * * * * * * //

dimensions      [0 2 -1 0 0 0 0];

internalField   nonuniform List<scalar> 
6820
(
3.5437e-05
5.0672e-05
6.21565e-05
6.89859e-05
7.29393e-05
7.51484e-05
7.62609e-05
7.66562e-05
7.65744e-05
7.61757e-05
7.55694e-05
7.48314e-05
7.40149e-05
7.31571e-05
7.22844e-05
7.14149e-05
7.05608e-05
6.97306e-05
6.89296e-05
6.81608e-05
6.74262e-05
6.67262e-05
6.60608e-05
6.54293e-05
6.48307e-05
6.42638e-05
6.37271e-05
6.32194e-05
6.27376e-05
6.22877e-05
6.18314e-05
6.15457e-05
6.06443e-05
0.00135033
0.000930454
0.000725657
0.000569942
0.000453329
0.00037222
0.000316226
0.000276491
0.000247306
0.000225199
0.000208011
0.000194353
0.000183301
0.00017422
0.000166666
0.000160314
0.000154926
0.00015032
0.000146357
0.000142928
0.000139947
0.000137343
0.00013506
0.000133053
0.000131282
0.000129716
0.000128327
0.000127091
0.000125988
0.000125005
0.000124105
0.000123345
0.000122471
0.0034439
0.00180034
0.00133708
0.00108081
0.00091241
0.000791563
0.000700949
0.000630992
0.000575614
0.000530792
0.00049381
0.000462789
0.0004364
0.00041368
0.000393917
0.000376576
0.000361245
0.000347601
0.00033539
0.000324407
0.000314484
0.000305485
0.000297295
0.000289818
0.000282972
0.000276689
0.000270908
0.000265577
0.00026065
0.00025609
0.000251852
0.000247921
0.000244213
0.00637392
0.00310291
0.00217848
0.00173334
0.00146616
0.00128428
0.00115082
0.00104807
0.00096626
0.000899461
0.000843828
0.000796736
0.000756333
0.000721265
0.000690527
0.00066335
0.00063914
0.000617429
0.000597844
0.000580083
0.000563902
0.000549097
0.000535499
0.000522966
0.000511379
0.000500635
0.000490646
0.000481337
0.000472639
0.000464496
0.000456852
0.000449665
0.000442871
0.00899737
0.00527271
0.00366202
0.00284163
0.00235737
0.00203856
0.00181195
0.00164188
0.00150907
0.0014022
0.0013142
0.0012404
0.00117754
0.00112333
0.00107607
0.00103448
0.000997588
0.00096463
0.000934998
0.000908207
0.000883862
0.000861639
0.000841269
0.000822528
0.000805225
0.000789199
0.000774313
0.000760448
0.0007475
0.000735377
0.000723999
0.000713297
0.000703188
0.0103765
0.00752965
0.00561349
0.00443387
0.0036773
0.00316203
0.0027917
0.00251364
0.00229741
0.00212448
0.00198302
0.00186515
0.00176539
0.00167987
0.00160572
0.00154083
0.00148355
0.00143262
0.00138704
0.001346
0.00130886
0.0012751
0.00124426
0.00121599
0.00118998
0.00116597
0.00114374
0.00112309
0.00110387
0.00108592
0.00106913
0.00105337
0.00103855
0.0109773
0.00922098
0.00752198
0.0062241
0.00528073
0.00458894
0.00406898
0.00366762
0.00335006
0.00309333
0.00288188
0.00270496
0.00255489
0.00242608
0.00231439
0.00221666
0.00213046
0.00205391
0.00198548
0.00192397
0.0018684
0.00181797
0.00177199
0.00172992
0.00169129
0.00165569
0.0016228
0.00159232
0.001564
0.00153762
0.00151298
0.00148993
0.00146831
0.0112223
0.01026
0.00902119
0.0078621
0.00689743
0.00612297
0.00550367
0.00500434
0.00459667
0.00425936
0.00397668
0.00373698
0.00353155
0.0033538
0.00319867
0.00306225
0.00294144
0.00283379
0.00273732
0.00265043
0.00257181
0.00250036
0.00243517
0.00237548
0.00232064
0.00227011
0.00222341
0.00218014
0.00213995
0.00210253
0.00206761
0.00203497
0.0020044
0.0113196
0.0108286
0.0100355
0.0091472
0.00830322
0.0075576
0.00691831
0.00637542
0.00591438
0.00552108
0.00518342
0.00489149
0.0046373
0.00441447
0.00421788
0.00404339
0.00388767
0.00374798
0.00362209
0.00350814
0.00340458
0.00331011
0.00322365
0.00314426
0.00307114
0.00300362
0.0029411
0.00288308
0.00282912
0.00277881
0.00273184
0.0026879
0.00264672
0.0113579
0.0111187
0.0106546
0.0100468
0.00939297
0.0087575
0.0081715
0.00764512
0.00717798
0.00676526
0.0064007
0.00607805
0.0057916
0.00553632
0.00530793
0.00510276
0.00491774
0.00475026
0.0045981
0.0044594
0.00433256
0.00421621
0.00410918
0.00401047
0.00391919
0.00383459
0.00375601
0.00368287
0.00361465
0.00355092
0.00349128
0.00343538
0.00338291
0.0113728
0.01126
0.0110057
0.0106242
0.0101642
0.00967404
0.0091876
0.00872442
0.00829369
0.00789836
0.00753806
0.00721073
0.00691362
0.00664382
0.00639847
0.00617495
0.00597087
0.00578411
0.00561279
0.00545527
0.0053101
0.00517602
0.0050519
0.00493676
0.00482975
0.00473009
0.00463713
0.00455025
0.00446894
0.00439273
0.00432118
0.00425394
0.00419067
0.0113787
0.0113266
0.011194
0.0109703
0.0106711
0.0103231
0.0099519
0.009577
0.00921104
0.00886145
0.00853198
0.0082241
0.00793784
0.00767244
0.00742671
0.00719929
0.00698875
0.00679369
0.00661279
0.00644481
0.00628862
0.00614319
0.00600758
0.00588095
0.00576253
0.00565164
0.00554767
0.00545004
0.00535827
0.0052719
0.00519052
0.00511377
0.00504132
0.0113809
0.0113572
0.0112906
0.0111664
0.010984
0.0107537
0.0104905
0.0102084
0.00991921
0.00963127
0.00935023
0.00907964
0.0088215
0.00857678
0.00834576
0.00812826
0.00792382
0.00773184
0.00755163
0.00738245
0.0072236
0.00707435
0.00693405
0.00680205
0.00667777
0.00656065
0.00645019
0.00634592
0.00624741
0.00615427
0.00606613
0.00598267
0.00590358
0.0113818
0.0113708
0.0113383
0.0112723
0.0111671
0.0110237
0.0108485
0.0106497
0.0104356
0.0102132
0.0099881
0.00976455
0.00954545
0.00933279
0.00912782
0.00893128
0.00874351
0.0085646
0.00839443
0.00823279
0.00807937
0.00793382
0.00779576
0.0076648
0.00754057
0.00742268
0.00731078
0.00720452
0.00710357
0.00700763
0.0069164
0.00682962
0.00674704
0.0113822
0.0113768
0.0113611
0.0113273
0.0112692
0.0111846
0.0110744
0.0109422
0.0107927
0.0106308
0.0104607
0.0102863
0.0101105
0.00993562
0.00976333
0.00959488
0.00943114
0.00927268
0.00911984
0.0089728
0.00883161
0.00869625
0.00856661
0.00844255
0.00832389
0.00821043
0.00810198
0.00799833
0.00789926
0.00780457
0.00771405
0.00762751
0.00754477
0.0113823
0.0113794
0.0113717
0.0113547
0.0113238
0.011276
0.0112101
0.0111268
0.0110279
0.0109162
0.0107945
0.0106656
0.0105317
0.0103952
0.0102575
0.0101202
0.00998425
0.0098505
0.00971956
0.00959187
0.00946775
0.0093474
0.00923094
0.00911842
0.00900985
0.0089052
0.00880441
0.00870739
0.00861405
0.00852428
0.00843798
0.00835503
0.0082753
0.0113824
0.0113805
0.0113765
0.0113679
0.0113519
0.0113259
0.0112881
0.0112379
0.0111757
0.0111025
0.0110197
0.010929
0.0108321
0.0107306
0.0106258
0.0105191
0.0104114
0.0103036
0.0101964
0.0100903
0.00998587
0.00988338
0.00978309
0.00968522
0.00958989
0.00949719
0.00940718
0.00931988
0.00923531
0.00915342
0.00907421
0.00899762
0.0089236
0.0113824
0.0113809
0.0113786
0.0113741
0.0113658
0.0113519
0.011331
0.0113021
0.0112646
0.0112187
0.011165
0.0111042
0.0110373
0.0109653
0.0108892
0.0108099
0.0107283
0.0106452
0.0105612
0.0104768
0.0103925
0.0103088
0.0102259
0.0101441
0.0100637
0.00998473
0.00990738
0.00983176
0.00975794
0.00968595
0.00961585
0.00954763
0.00948131
0.0113824
0.0113811
0.0113795
0.0113768
0.0113724
0.0113651
0.0113537
0.0113375
0.0113157
0.0112882
0.0112548
0.0112158
0.0111716
0.0111227
0.0110699
0.0110135
0.0109544
0.010893
0.0108298
0.0107654
0.0107002
0.0106345
0.0105686
0.0105029
0.0104376
0.0103728
0.0103087
0.0102456
0.0101834
0.0101223
0.0100624
0.0100037
0.00994624
0.0113824
0.0113812
0.0113798
0.0113781
0.0113755
0.0113714
0.0113652
0.0113563
0.011344
0.011328
0.011308
0.0112839
0.0112559
0.0112241
0.0111889
0.0111505
0.0111094
0.0110658
0.0110203
0.010973
0.0109245
0.0108748
0.0108245
0.0107736
0.0107224
0.0106711
0.0106199
0.0105689
0.0105183
0.0104682
0.0104186
0.0103696
0.0103214
0.0113824
0.0113812
0.01138
0.0113786
0.0113768
0.0113744
0.0113709
0.0113659
0.011359
0.0113499
0.0113382
0.0113239
0.0113067
0.0112868
0.0112642
0.011239
0.0112114
0.0111817
0.01115
0.0111166
0.0110817
0.0110455
0.0110083
0.0109702
0.0109314
0.0108921
0.0108524
0.0108125
0.0107725
0.0107325
0.0106927
0.010653
0.0106136
0.0113824
0.0113812
0.01138
0.0113788
0.0113774
0.0113757
0.0113735
0.0113706
0.0113666
0.0113614
0.0113547
0.0113463
0.011336
0.0113239
0.0113098
0.0112937
0.0112758
0.0112561
0.0112347
0.0112118
0.0111874
0.0111618
0.011135
0.0111071
0.0110785
0.011049
0.011019
0.0109885
0.0109575
0.0109263
0.0108948
0.0108633
0.0108317
0.0113824
0.0113812
0.01138
0.0113789
0.0113776
0.0113763
0.0113747
0.0113728
0.0113703
0.0113672
0.0113632
0.0113582
0.0113521
0.0113447
0.011336
0.0113259
0.0113144
0.0113014
0.0112872
0.0112716
0.0112547
0.0112367
0.0112175
0.0111974
0.0111763
0.0111544
0.0111318
0.0111085
0.0110846
0.0110603
0.0110356
0.0110105
0.0109852
0.0113824
0.0113812
0.01138
0.0113789
0.0113777
0.0113765
0.0113752
0.0113737
0.011372
0.0113699
0.0113673
0.0113642
0.0113603
0.0113555
0.0113499
0.0113432
0.0113355
0.0113267
0.0113168
0.0113058
0.0112937
0.0112806
0.0112664
0.0112513
0.0112353
0.0112184
0.0112008
0.0111825
0.0111635
0.011144
0.0111239
0.0111034
0.0110825
0.0113824
0.0113812
0.01138
0.0113789
0.0113777
0.0113766
0.0113753
0.011374
0.0113726
0.0113709
0.0113689
0.0113665
0.0113635
0.0113599
0.0113556
0.0113505
0.0113445
0.0113376
0.0113297
0.0113209
0.0113111
0.0113003
0.0112886
0.011276
0.0112625
0.0112482
0.0112331
0.0112173
0.0112008
0.0111838
0.0111661
0.011148
0.0111294
0.0113824
0.0113812
0.01138
0.0113789
0.0113777
0.0113765
0.0113753
0.011374
0.0113725
0.0113707
0.0113686
0.0113661
0.011363
0.0113593
0.0113549
0.0113496
0.0113435
0.0113364
0.0113284
0.0113195
0.0113096
0.0112987
0.0112869
0.0112742
0.0112607
0.0112463
0.0112312
0.0112154
0.0111989
0.0111818
0.0111642
0.011146
0.0111275
0.0113824
0.0113812
0.01138
0.0113789
0.0113777
0.0113764
0.011375
0.0113734
0.0113715
0.0113691
0.0113662
0.0113626
0.0113583
0.011353
0.0113468
0.0113395
0.0113312
0.0113218
0.0113114
0.0112998
0.0112872
0.0112736
0.011259
0.0112435
0.0112271
0.01121
0.0111921
0.0111735
0.0111543
0.0111345
0.0111143
0.0110936
0.0110726
0.0113824
0.0113812
0.01138
0.0113788
0.0113775
0.011376
0.0113742
0.0113718
0.0113688
0.0113648
0.0113599
0.0113537
0.0113462
0.0113373
0.011327
0.0113153
0.0113021
0.0112875
0.0112716
0.0112544
0.011236
0.0112165
0.0111959
0.0111744
0.0111521
0.0111291
0.0111053
0.011081
0.0110562
0.011031
0.0110054
0.0109795
0.0109534
0.0113824
0.0113812
0.01138
0.0113787
0.011377
0.0113748
0.0113718
0.0113676
0.0113618
0.0113544
0.0113449
0.0113334
0.0113196
0.0113037
0.0112857
0.0112656
0.0112436
0.0112198
0.0111944
0.0111675
0.0111393
0.01111
0.0110797
0.0110486
0.0110167
0.0109843
0.0109514
0.0109181
0.0108846
0.0108509
0.0108172
0.0107834
0.0107496
0.0113824
0.0113813
0.0113799
0.0113781
0.0113755
0.0113714
0.0113652
0.0113564
0.0113447
0.0113295
0.0113109
0.0112889
0.0112634
0.0112347
0.0112031
0.0111689
0.0111324
0.0110938
0.0110535
0.0110117
0.0109688
0.010925
0.0108805
0.0108354
0.0107901
0.0107446
0.0106991
0.0106536
0.0106084
0.0105634
0.0105189
0.0104747
0.010431
0.0113825
0.0113812
0.0113794
0.0113761
0.0113704
0.0113611
0.0113472
0.0113279
0.0113028
0.011272
0.0112356
0.011194
0.0111477
0.0110974
0.0110437
0.0109871
0.0109282
0.0108677
0.0108058
0.0107431
0.0106799
0.0106165
0.0105531
0.0104901
0.0104275
0.0103656
0.0103045
0.0102441
0.0101848
0.0101264
0.0100691
0.0100129
0.00995785
0.0113825
0.0113808
0.011377
0.0113691
0.0113545
0.0113315
0.0112988
0.011256
0.0112036
0.0111424
0.0110735
0.0109982
0.0109178
0.0108336
0.0107465
0.0106576
0.0105676
0.0104773
0.0103872
0.0102978
0.0102093
0.0101222
0.0100366
0.0099527
0.00987059
0.00979039
0.00971213
0.00963586
0.00956159
0.0094893
0.009419
0.00935065
0.00928422
0.0113825
0.0113787
0.0113679
0.0113447
0.0113054
0.011248
0.0111728
0.0110817
0.0109771
0.0108621
0.0107396
0.0106119
0.0104814
0.0103497
0.0102183
0.0100881
0.00996008
0.00983475
0.00971252
0.00959367
0.00947838
0.00936674
0.00925877
0.00915447
0.00905379
0.00895666
0.00886299
0.00877267
0.00868559
0.00860165
0.00852073
0.0084427
0.00836746
0.011382
0.0113691
0.0113325
0.0112633
0.0111588
0.0110222
0.0108602
0.0106799
0.0104883
0.010291
0.0100925
0.00989595
0.0097036
0.00951698
0.00933703
0.00916423
0.0089988
0.00884075
0.00868996
0.00854621
0.00840924
0.00827875
0.00815442
0.00803595
0.00792301
0.0078153
0.00771254
0.00761443
0.00752072
0.00743116
0.00734551
0.00726355
0.00718507
0.0113786
0.0113249
0.0111997
0.0110009
0.0107443
0.0104511
0.0101407
0.00982717
0.00952001
0.00922486
0.00894476
0.00868108
0.00843411
0.00820339
0.00798811
0.00778725
0.00759976
0.00742462
0.00726083
0.00710747
0.00696368
0.00682869
0.00670177
0.00658228
0.00646965
0.00636332
0.00626282
0.00616772
0.00607761
0.00599214
0.00591097
0.00583381
0.00576037
0.0113536
0.011126
0.0107259
0.0102229
0.00968833
0.00916705
0.00868064
0.00823687
0.00783644
0.00747674
0.00715403
0.0068644
0.00660372
0.00636823
0.0061547
0.00596034
0.00578279
0.00562003
0.00547034
0.00533225
0.00520449
0.00508598
0.00497577
0.00487304
0.00477706
0.00468721
0.00460294
0.00452374
0.00444919
0.0043789
0.00431253
0.00424976
0.00419031
0.0111683
0.0102731
0.00924317
0.00829367
0.00748992
0.00682636
0.00627846
0.00582283
0.00544039
0.00511623
0.00483928
0.00459995
0.00439098
0.00420686
0.00404336
0.00389716
0.00376563
0.00364665
0.00353849
0.00343973
0.00334919
0.00326588
0.00318897
0.00311775
0.00305161
0.00299002
0.00293253
0.00287875
0.00282833
0.00278097
0.00273639
0.00269437
0.00265469
0.00982658
0.00723889
0.00577405
0.0048695
0.00424872
0.00378753
0.00342698
0.00314022
0.00290886
0.00271813
0.00255776
0.00242093
0.00230279
0.00219974
0.00210907
0.00202866
0.00195683
0.00189227
0.0018339
0.00178087
0.00173244
0.00168804
0.00164717
0.00160942
0.00157443
0.0015419
0.00151157
0.00148323
0.00145669
0.00143176
0.00140831
0.00138621
0.00136533
0.00414167
0.00254161
0.00204418
0.00174836
0.00154033
0.00137826
0.00124766
0.00114132
0.00105374
0.000980873
0.0009196
0.000867512
0.000822765
0.000783957
0.000750009
0.000720085
0.000693527
0.000669811
0.000648517
0.000629304
0.000611889
0.000596042
0.000581567
0.0005683
0.000556104
0.00054486
0.000534465
0.000524833
0.000515887
0.00050756
0.000499794
0.000492538
0.000485739
0.000119434
0.000124352
0.000129424
0.000134072
0.000138235
0.000142037
0.000145561
0.000148848
0.000151923
0.000154806
0.000157512
0.000160054
0.000162443
0.000164691
0.000166805
0.000168794
0.000170666
0.000172428
0.000174086
0.000175647
0.000177117
0.000178501
0.000179805
0.000181032
0.000182187
0.000183276
0.000184301
0.000185267
0.000186177
0.000187034
0.000187841
0.000188602
0.000189319
6.60174e-05
7.80157e-05
9.75882e-05
0.000123647
0.000155319
0.000191371
0.000230542
0.000271522
0.000312996
0.000353796
0.000393078
0.000430409
0.000465751
0.000499348
0.000531591
0.000562891
0.00059359
0.00062392
0.000654003
0.000683871
0.000713508
0.000742883
0.000771974
0.000800784
0.000829339
0.000857679
0.000885854
0.000913913
0.000941899
0.000969844
0.000997773
0.0010257
0.00105363
0.00108158
0.00110953
0.00113748
0.00116544
0.00119339
0.00122133
0.00124928
0.00127723
0.00130521
0.00133323
0.00136136
0.00138963
0.00141813
0.00144694
0.00147621
0.00150607
0.00153672
0.0015684
0.00160139
0.00163605
0.00167279
0.00171211
0.00175459
0.00180093
0.00185192
0.00190848
0.00197161
0.00204245
0.00212222
0.00221223
0.00231386
0.00242853
0.00255773
0.00270302
0.00286608
0.00304878
0.00325332
0.00348228
0.00373883
0.004027
0.00435242
0.00472374
0.00515469
0.00566441
0.00627017
0.00697021
0.00773055
0.00849371
0.00920384
0.00982577
0.0103477
0.0107739
0.0111169
0.0113909
0.01161
0.0117858
0.0119282
0.0120451
0.0121427
0.0122259
0.0122987
0.012364
0.012424
0.0124804
0.0125339
0.0125855
0.0126405
0.000121972
0.000121814
0.000123675
0.000128581
0.000136333
0.000146954
0.00016058
0.000177282
0.000197097
0.00022001
0.000245927
0.000274646
0.000305844
0.000339085
0.000373845
0.000409557
0.000445666
0.000481682
0.000517223
0.000552043
0.00058602
0.000619145
0.000651477
0.000683115
0.000714168
0.000744738
0.000774912
0.000804764
0.000834356
0.000863741
0.000892968
0.000922077
0.000951106
0.000980086
0.00100905
0.00103801
0.001067
0.00109603
0.00112514
0.00115434
0.00118367
0.00121318
0.00124291
0.00127294
0.00130336
0.00133427
0.00136582
0.00139817
0.00143154
0.00146619
0.00150244
0.00154066
0.00158131
0.00162492
0.00167211
0.0017236
0.00178023
0.00184289
0.00191262
0.00199051
0.00207771
0.00217545
0.00228496
0.00240749
0.0025443
0.00269668
0.00286596
0.00305361
0.00326134
0.00349117
0.00374555
0.00402755
0.00434117
0.00469222
0.00508977
0.0055482
0.0060871
0.00672266
0.0074497
0.00822962
0.00900198
0.00971115
0.0103244
0.0108327
0.0112431
0.0115694
0.0118272
0.0120307
0.0121922
0.0123215
0.0124267
0.0125139
0.0125879
0.0126527
0.0127111
0.0127651
0.0128163
0.0128655
0.0129133
0.012964
0.000240221
0.000235646
0.000230905
0.000226577
0.000223275
0.000221507
0.000221356
0.000222998
0.000226676
0.000232658
0.000241206
0.00025255
0.000266849
0.000284172
0.000304479
0.00032762
0.000353343
0.000381314
0.000411139
0.000442397
0.000474665
0.00050755
0.000540709
0.000573866
0.000606822
0.000639452
0.000671698
0.000703552
0.000735041
0.000766214
0.000797132
0.000827854
0.00085844
0.000888946
0.000919425
0.000949926
0.000980501
0.0010112
0.00104207
0.00107319
0.00110461
0.00113642
0.00116871
0.0012016
0.00123522
0.00126975
0.00130538
0.00134237
0.00138099
0.00142161
0.00146464
0.00151056
0.00155992
0.00161338
0.00167165
0.00173555
0.00180597
0.00188384
0.00197017
0.002066
0.00217236
0.0022903
0.00242085
0.002565
0.00272377
0.00289817
0.00308932
0.00329849
0.00352721
0.00377738
0.00405135
0.00435212
0.00468372
0.00505208
0.00546655
0.00594183
0.00649746
0.00714884
0.00788899
0.00867728
0.00945215
0.0101583
0.0107641
0.0112624
0.0116611
0.0119752
0.0122208
0.0124125
0.0125629
0.012682
0.0127777
0.0128564
0.0129229
0.012981
0.0130336
0.0130825
0.0131293
0.0131747
0.0132192
0.013266
0.000435426
0.000427233
0.000419201
0.000411432
0.000404064
0.000397201
0.000390929
0.000385379
0.000380564
0.000376519
0.000373341
0.000371206
0.00037037
0.000371159
0.000373934
0.000379055
0.00038683
0.000397473
0.000411078
0.00042761
0.000446912
0.000468735
0.000492767
0.000518667
0.000546091
0.000574717
0.000604257
0.00063447
0.000665165
0.0006962
0.000727477
0.00075894
0.000790565
0.000822357
0.000854339
0.000886554
0.000919056
0.000951912
0.000985201
0.00101901
0.00105346
0.00108865
0.00112475
0.00116192
0.00120036
0.00124031
0.00128205
0.0013259
0.00137223
0.00142149
0.00147416
0.0015308
0.00159205
0.00165858
0.00173114
0.00181051
0.00189754
0.00199306
0.00209793
0.002213
0.00233909
0.00247699
0.00262747
0.00279129
0.00296922
0.00316208
0.00337082
0.00359657
0.00384076
0.00410521
0.0043922
0.0047047
0.00504678
0.0054245
0.00584735
0.00632992
0.00689139
0.00754653
0.00828796
0.00907514
0.00984691
0.0105483
0.0111482
0.0116394
0.0120303
0.0123362
0.0125733
0.0127567
0.012899
0.0130104
0.0130989
0.0131709
0.0132314
0.013284
0.0133316
0.0133763
0.0134193
0.0134614
0.0135031
0.0135466
0.000692104
0.000679956
0.000668201
0.00065699
0.000646419
0.000636486
0.000627136
0.000618394
0.000610222
0.000602541
0.00059528
0.000588396
0.000581887
0.000575809
0.000570275
0.000565467
0.000561629
0.000559056
0.000558076
0.000559024
0.000562204
0.000567863
0.000576169
0.000587193
0.000600916
0.000617235
0.000635989
0.000656975
0.000679973
0.000704763
0.000731142
0.000758931
0.000787981
0.00081818
0.000849449
0.000881744
0.000915055
0.000949403
0.00098484
0.00102145
0.00105934
0.00109865
0.00113956
0.00118227
0.00122703
0.00127412
0.00132387
0.00137664
0.00143286
0.00149298
0.00155753
0.00162707
0.00170218
0.00178351
0.00187171
0.00196747
0.00207145
0.00218433
0.00230678
0.00243941
0.00258283
0.00273764
0.00290438
0.00308364
0.00327602
0.00348222
0.00370308
0.00393966
0.00419331
0.00446578
0.00475931
0.00507685
0.00542252
0.00580247
0.00622614
0.00670777
0.00726581
0.00791455
0.00864726
0.00942524
0.010189
0.0108843
0.0114792
0.0119661
0.0123527
0.0126539
0.0128861
0.0130643
0.0132013
0.0133073
0.0133906
0.0134576
0.0135134
0.0135617
0.0136054
0.0136465
0.0136863
0.0137256
0.0137648
0.0138053
0.00102234
0.00100469
0.000987718
0.000971571
0.000956358
0.000942089
0.000928698
0.00091614
0.000904345
0.000893217
0.000882657
0.000872586
0.000862945
0.000853703
0.00084486
0.000836449
0.000828538
0.000821233
0.000814673
0.000809034
0.00080452
0.000801359
0.00079979
0.00080005
0.000802361
0.000806915
0.000813865
0.000823316
0.000835323
0.000849898
0.000867015
0.000886621
0.000908646
0.000933017
0.000959663
0.000988529
0.00101958
0.0010528
0.00108821
0.00112587
0.00116584
0.00120827
0.00125329
0.00130111
0.00135196
0.0014061
0.00146387
0.00152559
0.00159167
0.00166252
0.0017386
0.0018204
0.00190842
0.00200318
0.00210521
0.00221504
0.00233318
0.00246014
0.0025964
0.00274242
0.00289864
0.0030655
0.0032434
0.00343281
0.00363423
0.00384826
0.00407566
0.00431741
0.00457481
0.00484954
0.00514378
0.00546046
0.00580373
0.00617975
0.00659782
0.0070716
0.00761854
0.00825248
0.00896812
0.00972992
0.0104813
0.0111687
0.0117596
0.0122443
0.0126296
0.0129295
0.0131599
0.0133358
0.01347
0.0135729
0.0136529
0.0137166
0.013769
0.013814
0.0138546
0.0138928
0.01393
0.0139669
0.0140039
0.0140419
0.00144474
0.00141918
0.00139471
0.00137144
0.00134946
0.00132878
0.00130932
0.00129104
0.00127384
0.00125761
0.00124226
0.00122769
0.00121385
0.00120069
0.0011882
0.00117638
0.00116528
0.00115493
0.00114542
0.00113681
0.00112922
0.00112276
0.00111756
0.00111375
0.0011115
0.00111095
0.00111228
0.00111565
0.00112122
0.00112914
0.00113954
0.00115254
0.00116824
0.00118672
0.00120807
0.00123234
0.00125959
0.0012899
0.00132334
0.00135998
0.00139994
0.00144334
0.00149033
0.00154108
0.00159582
0.00165476
0.00171819
0.00178639
0.00185969
0.00193844
0.002023
0.00211376
0.00221111
0.00231545
0.0024272
0.00254673
0.00267444
0.00281069
0.00295582
0.00311018
0.00327407
0.0034478
0.00363169
0.0038261
0.00403143
0.0042482
0.0044771
0.00471903
0.00497522
0.00524725
0.00553725
0.0058481
0.00618394
0.00655092
0.00695808
0.00741832
0.00794795
0.00856033
0.00925201
0.00999158
0.0107264
0.0114041
0.0119911
0.0124755
0.012862
0.0131633
0.0133948
0.0135712
0.0137051
0.013807
0.0138856
0.0139474
0.0139977
0.0140406
0.0140789
0.0141149
0.0141499
0.0141848
0.01422
0.0142558
0.00197109
0.00193505
0.00190061
0.00186783
0.00183676
0.00180738
0.00177965
0.00175347
0.00172876
0.0017054
0.00168329
0.00166234
0.00164247
0.00162366
0.00160589
0.00158916
0.00157351
0.00155899
0.00154566
0.00153359
0.00152284
0.00151351
0.00150567
0.00149941
0.00149483
0.00149201
0.00149106
0.00149209
0.00149522
0.00150058
0.0015083
0.00151852
0.00153138
0.00154703
0.00156561
0.00158727
0.00161216
0.00164042
0.00167221
0.00170767
0.00174698
0.0017903
0.00183781
0.00188971
0.0019462
0.00200752
0.00207391
0.00214561
0.00222292
0.0023061
0.00239546
0.0024913
0.00259392
0.00270364
0.00282075
0.00294554
0.00307828
0.00321924
0.00336865
0.00352674
0.00369371
0.00386979
0.00405519
0.00425017
0.00445506
0.00467029
0.00489648
0.00513443
0.00538528
0.00565054
0.00593223
0.00623318
0.00655752
0.0069113
0.00730323
0.00774538
0.00825278
0.00883829
0.00950043
0.0102125
0.0109267
0.0115926
0.0121753
0.0126605
0.0130502
0.0133555
0.0135907
0.01377
0.0139059
0.014009
0.0140879
0.0141494
0.0141989
0.0142406
0.0142775
0.0143119
0.0143454
0.0143786
0.0144122
0.0144462
0.00260184
0.00255326
0.00250681
0.00246251
0.00242036
0.00238035
0.00234238
0.00230639
0.00227227
0.00223992
0.00220921
0.00218006
0.00215241
0.0021262
0.00210143
0.00207811
0.00205627
0.00203596
0.00201725
0.0020002
0.0019849
0.00197142
0.00195983
0.00195022
0.00194264
0.00193717
0.00193388
0.00193285
0.00193416
0.00193788
0.00194413
0.00195299
0.0019646
0.00197908
0.00199656
0.00201719
0.00204115
0.00206858
0.00209967
0.0021346
0.00217356
0.00221675
0.00226438
0.00231666
0.0023738
0.00243604
0.00250361
0.00257676
0.00265572
0.00274075
0.00283209
0.00293001
0.00303473
0.0031465
0.00326554
0.00339205
0.00352624
0.00366826
0.00381828
0.00397643
0.00414282
0.0043176
0.00450089
0.00469287
0.00489379
0.00510401
0.00532405
0.00555464
0.00579682
0.00605201
0.00632213
0.00660995
0.00691952
0.00725677
0.00763003
0.0080505
0.00853192
0.00908649
0.00971473
0.0103949
0.0110846
0.0117361
0.0123135
0.0127999
0.0131944
0.0135058
0.013747
0.0139315
0.0140717
0.0141779
0.0142589
0.0143216
0.0143716
0.0144131
0.0144494
0.014483
0.0145153
0.0145474
0.0145798
0.0146122
0.00332562
0.0032635
0.00320398
0.00314702
0.00309264
0.00304076
0.00299132
0.00294424
0.00289942
0.00285675
0.00281611
0.00277742
0.00274061
0.00270565
0.00267251
0.00264121
0.00261178
0.00258427
0.00255876
0.0025353
0.00251399
0.00249491
0.00247813
0.00246372
0.00245176
0.00244232
0.00243545
0.00243121
0.00242968
0.0024309
0.00243496
0.00244193
0.00245189
0.00246495
0.00248121
0.0025008
0.00252385
0.00255051
0.00258095
0.00261533
0.00265383
0.00269666
0.00274401
0.00279609
0.00285311
0.00291531
0.00298289
0.00305609
0.00313513
0.00322022
0.0033116
0.00340946
0.003514
0.00362541
0.00374385
0.00386947
0.00400238
0.0041427
0.0042905
0.00444585
0.00460879
0.00477937
0.00495767
0.00514379
0.0053379
0.00554029
0.00575141
0.00597191
0.00620274
0.00644521
0.00670117
0.00697329
0.00726554
0.00758365
0.00793556
0.00833159
0.00878421
0.00930492
0.00989593
0.0105405
0.0112019
0.0118361
0.0124066
0.012894
0.0132942
0.0136133
0.0138625
0.0140545
0.0142009
0.0143122
0.014397
0.0144625
0.0145142
0.0145567
0.0145934
0.0146268
0.0146586
0.0146899
0.0147214
0.0147526
0.00412139
0.00404605
0.00397362
0.00390407
0.00383736
0.00377346
0.00371228
0.00365375
0.00359778
0.00354427
0.00349311
0.00344424
0.00339759
0.00335312
0.00331082
0.0032707
0.00323279
0.00319715
0.00316384
0.00313295
0.00310454
0.00307871
0.00305554
0.00303511
0.00301748
0.00300274
0.00299095
0.00298216
0.00297643
0.00297382
0.00297438
0.00297819
0.00298531
0.0029958
0.00300977
0.00302731
0.00304852
0.00307352
0.00310246
0.00313547
0.00317271
0.00321435
0.00326057
0.00331156
0.0033675
0.00342861
0.00349506
0.00356707
0.00364483
0.00372853
0.00381836
0.00391447
0.00401704
0.00412619
0.00424204
0.00436468
0.00449417
0.00463057
0.00477389
0.00492412
0.00508126
0.0052453
0.00541625
0.00559415
0.00577911
0.00597137
0.0061713
0.00637949
0.00659679
0.00682444
0.00706419
0.00731862
0.00759155
0.00788852
0.00821701
0.00858656
0.00900839
0.00949323
0.0100447
0.0106506
0.0112804
0.0118939
0.0124555
0.012943
0.013349
0.013677
0.0139359
0.0141371
0.0142918
0.0144101
0.0145005
0.0145702
0.0146251
0.0146698
0.0147077
0.0147418
0.0147737
0.0148048
0.0148358
0.0148661
0.0049617
0.00487481
0.00479093
0.00471006
0.00463215
0.00455716
0.00448504
0.00441572
0.00434913
0.00428519
0.00422381
0.00416495
0.00410854
0.00405457
0.00400301
0.0039539
0.00390727
0.00386316
0.00382165
0.00378282
0.00374675
0.00371353
0.00368324
0.00365598
0.00363181
0.00361081
0.00359306
0.00357862
0.00356754
0.00355989
0.00355572
0.00355509
0.00355805
0.00356468
0.00357505
0.00358923
0.0036073
0.00362938
0.00365556
0.00368596
0.00372072
0.00375997
0.00380385
0.00385253
0.00390616
0.00396492
0.00402896
0.00409845
0.00417355
0.00425442
0.0043412
0.00443401
0.00453297
0.00463817
0.00474967
0.00486753
0.00499174
0.0051223
0.00525918
0.00540232
0.00555166
0.00570715
0.00586873
0.00603642
0.00621027
0.00639046
0.00657732
0.00677137
0.0069734
0.00718456
0.0074065
0.00764168
0.00789379
0.00816811
0.00847168
0.00881327
0.00920299
0.00965073
0.0101611
0.0107261
0.0113212
0.0119108
0.0124606
0.0129465
0.0133581
0.0136954
0.0139653
0.0141775
0.0143423
0.0144693
0.014567
0.0146427
0.0147021
0.0147501
0.0147905
0.014826
0.0148588
0.0148902
0.0149211
0.014951
0.00581633
0.00572069
0.00562795
0.00553811
0.00545116
0.00536705
0.00528578
0.0052073
0.00513156
0.0050585
0.00498807
0.00492024
0.00485497
0.00479226
0.0047321
0.00467453
0.00461959
0.00456734
0.00451784
0.00447119
0.00442746
0.00438676
0.00434917
0.00431478
0.00428367
0.00425594
0.00423166
0.00421089
0.00419371
0.00418017
0.00417034
0.00416428
0.00416204
0.00416368
0.00416928
0.00417889
0.00419259
0.00421046
0.0042326
0.00425909
0.00429004
0.00432556
0.00436577
0.00441079
0.00446075
0.00451578
0.00457601
0.00464157
0.00471257
0.00478914
0.00487136
0.00495933
0.00505311
0.00515275
0.00525825
0.00536963
0.00548684
0.00560982
0.00573849
0.00587277
0.00601253
0.00615769
0.00630816
0.0064639
0.00662495
0.00679144
0.00696366
0.00714208
0.00732742
0.00752075
0.00772364
0.00793843
0.00816861
0.00841919
0.00869679
0.00900944
0.00936627
0.00977632
0.0102449
0.0107674
0.0113251
0.0118874
0.0124222
0.0129043
0.0133202
0.013667
0.0139487
0.0141732
0.0143496
0.0144871
0.0145939
0.0146771
0.0147426
0.0147953
0.0148391
0.0148771
0.0149116
0.014944
0.0149754
0.0150053
0.00665552
0.00655472
0.00645648
0.00636084
0.00626779
0.00617735
0.00608952
0.00600428
0.00592162
0.00584151
0.00576394
0.0056889
0.00561637
0.00554638
0.00547895
0.00541411
0.00535192
0.00529245
0.00523578
0.005182
0.00513119
0.00508346
0.00503891
0.00499764
0.00495973
0.00492528
0.00489436
0.00486707
0.00484348
0.00482365
0.00480765
0.00479555
0.00478741
0.00478328
0.00478325
0.00478735
0.00479568
0.00480829
0.00482526
0.00484667
0.0048726
0.00490315
0.0049384
0.00497846
0.00502341
0.00507335
0.00512839
0.00518859
0.00525406
0.00532486
0.00540104
0.00548265
0.00556971
0.00566222
0.00576014
0.00586344
0.00597202
0.0060858
0.00620465
0.00632843
0.00645701
0.00659025
0.00672805
0.00687034
0.00701714
0.00716855
0.00732482
0.00748638
0.0076539
0.00782838
0.0080113
0.00820487
0.00841237
0.00863851
0.00888946
0.00917261
0.00949622
0.00986851
0.0102952
0.0107744
0.0112924
0.0118242
0.0123405
0.0128158
0.0132343
0.0135898
0.0138835
0.0141213
0.0143108
0.0144605
0.014578
0.0146703
0.0147434
0.0148022
0.0148509
0.0148924
0.0149295
0.0149636
0.0149961
0.0150268
0.00745264
0.00735061