/*--------------------------------*- C++ -*----------------------------------*\
| =========                 |                                                 |
| \\      /  F ield         | OpenFOAM: The Open Source CFD Toolbox           |
|  \\    /   O peration     | Version:  4.1                                   |
|   \\  /    A nd           | Web:      www.OpenFOAM.org                      |
|    \\/     M anipulation  |                                                 |
\*---------------------------------------------------------------------------*/
FoamFile
{
    version     2.0;
    format      ascii;
    class       volScalarField;
    location    "500";
    object      omega;
}
// * * * * * * * * * * * * * * * * * * * * * * * * * * * * * * * * * * * * * //

dimensions      [0 0 -1 0 0 0 0];

internalField   nonuniform List<scalar> 
6820
(
7254.63
8569.06
9629.25
10283
10668.4
10885.8
10995.8
11035
11026.9
10987.4
10927.4
10854.5
10774.1
10689.8
10604.2
10519.2
10436
10355.2
10277.6
10203.2
10132.3
10065
10001.1
9940.59
9883.38
9829.31
9778.22
9730
9684.31
9641.74
9598.59
9571.02
9479.18
600.799
1554.22
2092.91
2435.19
2698.33
2895.11
3033.34
3126.94
3188.93
3228.96
3253.88
3268.57
3276.46
3279.93
3280.58
3279.52
3277.5
3275.02
3272.41
3269.89
3267.59
3265.59
3263.91
3262.57
3261.58
3260.93
3260.61
3260.64
3261.05
3261.89
3263.31
3265.22
3269.85
107.108
368.908
596.394
767.386
894.979
993.331
1070.56
1131.53
1179.68
1217.63
1247.44
1270.77
1288.98
1303.15
1314.14
1322.64
1329.21
1334.28
1338.2
1341.23
1343.61
1345.48
1347
1348.27
1349.36
1350.35
1351.28
1352.21
1353.15
1354.15
1355.25
1356.46
1357.99
37.6577
108.378
189.201
265.511
332.23
389.332
437.979
479.458
514.903
545.237
571.216
593.473
612.547
628.901
642.93
654.974
665.323
674.226
681.896
688.514
694.235
699.191
703.496
707.246
710.523
713.398
715.932
718.177
720.179
721.979
723.615
725.117
726.533
23.8008
47.537
77.7007
109.824
141.236
170.722
197.835
222.515
244.871
265.068
283.283
299.695
314.472
327.773
339.745
350.523
360.229
368.975
376.861
383.977
390.406
396.219
401.482
406.253
410.583
414.521
418.106
421.377
424.367
427.108
429.629
431.955
434.121
19.8177
29.4751
42.5078
57.2095
72.4551
87.5715
102.186
116.106
129.247
141.579
153.105
163.847
173.838
183.116
191.724
199.704
207.098
213.948
220.294
226.173
231.621
236.672
241.357
245.704
249.741
253.492
256.981
260.228
263.254
266.078
268.716
271.185
273.503
18.4341
22.8151
29.1684
36.6488
44.6824
52.9061
61.0974
69.1221
76.9
84.3833
91.5452
98.3727
104.862
111.017
116.844
122.353
127.556
132.467
137.098
141.465
145.581
149.461
153.118
156.564
159.813
162.877
165.767
168.494
171.069
173.501
175.8
177.975
180.035
17.9115
19.9902
23.3042
27.4133
31.9741
36.7596
41.6264
46.4838
51.2737
55.958
60.5113
64.9176
69.167
73.2541
77.1768
80.9353
84.5316
87.9689
91.2513
94.3836
97.3711
100.219
102.934
105.52
107.984
110.332
112.569
114.7
116.73
118.666
120.511
122.27
123.949
17.7059
18.7013
20.4733
22.8215
25.537
28.4653
31.5037
34.5851
37.6654
40.7146
43.7122
46.6439
49.5001
52.2743
54.9623
57.5618
60.0716
62.4917
64.8228
67.0663
69.2237
71.2972
73.2891
75.2017
77.0378
78.7999
80.4908
82.113
83.6694
85.1624
86.5948
87.9688
89.2871
17.6233
18.0951
19.0401
20.3949
22.0448
23.8869
25.845
27.8666
29.9159
31.9679
34.0054
36.016
37.9908
39.9237
41.8101
43.6471
45.4327
47.1658
48.8457
50.4725
52.0464
53.568
55.0382
56.4579
57.8283
59.1506
60.4262
61.6563
62.8423
63.9856
65.0876
66.1495
67.1728
17.5896
17.8082
18.3024
19.0753
20.0762
21.2429
22.5217
23.8717
25.2635
26.6756
28.0929
29.5042
30.9014
32.2787
33.6316
34.957
36.2526
37.5168
38.7485
39.9472
41.1124
42.2441
43.3424
44.4077
45.4404
46.441
47.4101
48.3483
49.2564
50.1351
50.9851
51.8071
52.6019
17.5758
17.6732
17.9239
18.3539
18.9503
19.6819
20.5145
21.4185
22.3702
23.3518
24.35
25.3545
26.358
27.3548
28.3406
29.3122
30.2671
31.2037
32.1205
33.0166
33.8913
34.7443
35.5754
36.3843
37.1714
37.9365
38.6801
39.4023
40.1035
40.784
41.4443
42.0847
42.7055
17.5702
17.6104
17.7324
17.9633
18.3084
18.7567
19.29
19.8889
20.5361
21.2174
21.9214
22.6394
23.3645
24.0913
24.8158
25.5347
26.2457
26.9466
27.6362
28.3132
28.9769
29.6266
30.2619
30.8825
31.4882
32.0789
32.6546
33.2155
33.7615
34.2929
34.8098
35.3124
35.8008
17.5678
17.5817
17.6374
17.7558
17.9479
18.2137
18.5461
18.9343
19.3671
19.8342
20.3266
20.837
21.3594
21.889
22.4219
22.9551
23.4861
24.013
24.5343
25.0486
25.5552
26.0531
26.5419
27.0211
27.4903
27.9495
28.3983
28.8367
29.2648
29.6824
30.0896
30.4865
30.8731
17.5669
17.5687
17.5913
17.6483
17.7501
17.9011
18.1008
18.3448
18.6267
18.9401
19.2784
19.6361
20.0082
20.3906
20.78
21.1735
21.5688
21.964
22.3576
22.7484
23.1352
23.5173
23.8941
24.265
24.6295
24.9874
25.3385
25.6824
26.0191
26.3485
26.6706
26.9853
27.2925
17.5665
17.563
17.5695
17.5941
17.6444
17.7258
17.8404
17.9877
18.1651
18.3689
18.5954
18.8404
19.1003
19.372
19.6525
19.9394
20.2307
20.5246
20.8197
21.1148
21.4088
21.7009
21.9905
22.2768
22.5595
22.8382
23.1125
23.3822
23.6471
23.9071
24.162
24.4117
24.6561
17.5663
17.5605
17.5594
17.5675
17.5897
17.6303
17.6923
17.7769
17.8836
18.0113
18.1576
18.3204
18.4971
18.6855
18.8832
19.0885
19.2996
19.515
19.7333
19.9535
20.1747
20.3959
20.6166
20.8361
21.0539
21.2697
21.483
21.6936
21.9012
22.1057
22.3068
22.5045
22.6986
17.5662
17.5595
17.5549
17.5548
17.5621
17.5799
17.6107
17.6561
17.7168
17.7929
17.8835
17.9875
18.1035
18.2301
18.3656
18.5087
18.6581
18.8126
18.971
19.1325
19.2962
19.4613
19.6273
19.7935
19.9595
20.1249
20.2892
20.4523
20.6138
20.7735
20.9312
21.0868
21.2401
17.5662
17.559
17.5529
17.5489
17.5487
17.5542
17.5672
17.5891
17.621
17.6635
17.7166
17.7799
17.8528
17.9344
18.024
18.1206
18.2232
18.3309
18.443
18.5587
18.6773
18.7981
18.9206
19.0444
19.1689
19.2939
19.4188
19.5436
19.6678
19.7912
19.9137
20.0351
20.1552
17.5662
17.5588
17.552
17.5462
17.5424
17.5415
17.5447
17.5532
17.5679
17.5894
17.6181
17.6542
17.6975
17.7476
17.8042
17.8667
17.9346
18.0072
18.0841
18.1646
18.2482
18.3345
18.4229
18.5132
18.6048
18.6975
18.791
18.8849
18.9791
19.0733
19.1673
19.261
19.3542
17.5662
17.5588
17.5516
17.5451
17.5394
17.5354
17.5335
17.5346
17.5394
17.5483
17.562
17.5806
17.6044
17.6332
17.6669
17.7054
17.7483
17.7953
17.8461
17.9003
17.9575
18.0173
18.0796
18.1438
18.2098
18.2773
18.346
18.4156
18.486
18.5569
18.6282
18.6998
18.7714
17.5662
17.5587
17.5515
17.5445
17.5381
17.5325
17.5281
17.5253
17.5246
17.5265
17.5312
17.5392
17.5506
17.5656
17.5843
17.6065
17.6322
17.6612
17.6934
17.7286
17.7665
17.807
17.8497
17.8945
17.9412
17.9895
18.0392
18.0902
18.1423
18.1953
18.249
18.3033
18.3581
17.5662
17.5587
17.5514
17.5443
17.5376
17.5313
17.5256
17.5209
17.5174
17.5153
17.5151
17.5169
17.5211
17.5277
17.5369
17.5487
17.5632
17.5804
17.6002
17.6225
17.6471
17.6741
17.7032
17.7342
17.7671
17.8017
17.8378
17.8753
17.914
17.9538
17.9946
18.0362
18.0786
17.5662
17.5587
17.5514
17.5442
17.5373
17.5307
17.5245
17.5189
17.514
17.5101
17.5074
17.506
17.5063
17.5083
17.5122
17.5181
17.5262
17.5363
17.5486
17.5631
17.5796
17.5981
17.6186
17.641
17.6651
17.6908
17.7181
17.7468
17.7769
17.8081
17.8404
17.8736
17.9078
17.5662
17.5587
17.5514
17.5442
17.5372
17.5306
17.5242
17.5183
17.513
17.5084
17.5048
17.5023
17.501
17.5012
17.503
17.5065
17.5118
17.5189
17.528
17.539
17.5518
17.5665
17.5831
17.6014
17.6213
17.6429
17.666
17.6905
17.7163
17.7433
17.7714
17.8006
17.8307
17.5662
17.5587
17.5514
17.5442
17.5373
17.5307
17.5244
17.5187
17.5136
17.5094
17.5062
17.5042
17.5035
17.5043
17.5067
17.5109
17.5168
17.5247
17.5344
17.546
17.5595
17.5748
17.5918
17.6106
17.6311
17.6531
17.6765
17.7014
17.7275
17.7548
17.7831
17.8125
17.8428
17.5662
17.5587
17.5514
17.5443
17.5376
17.5312
17.5255
17.5206
17.5166
17.5139
17.5127
17.5131
17.5153
17.5194
17.5256
17.5339
17.5443
17.5569
17.5715
17.5882
17.607
17.6276
17.6501
17.6743
17.7001
17.7275
17.7562
17.7863
17.8175
17.8499
17.8832
17.9175
17.9525
17.5662
17.5587
17.5515
17.5446
17.5383
17.5328
17.5283
17.5254
17.5242
17.5251
17.5285
17.5344
17.543
17.5545
17.5688
17.5859
17.6058
17.6282
17.6533
17.6807
17.7103
17.742
17.7756
17.811
17.8479
17.8863
17.9261
17.9669
18.0089
18.0517
18.0953
18.1396
18.1845
17.5662
17.5588
17.5518
17.5455
17.5403
17.5368
17.5355
17.5371
17.542
17.5507
17.5634
17.5804
17.6015
17.6268
17.6561
17.6892
17.7258
17.7657
17.8086
17.8542
17.9023
17.9525
18.0046
18.0584
18.1136
18.1701
18.2277
18.2861
18.3452
18.4048
18.465
18.5254
18.586
17.5662
17.5591
17.5527
17.548
17.5458
17.5473
17.5536
17.5654
17.5834
17.608
17.6393
17.6771
17.7212
17.7711
17.8265
17.8866
17.9511
18.0195
18.0911
18.1655
18.2423
18.3211
18.4016
18.4833
18.5661
18.6496
18.7337
18.818
18.9025
18.987
19.0713
19.1553
19.2389
17.5663
17.5598
17.5555
17.5552
17.5611
17.5752
17.5989
17.6332
17.6786
17.7349
17.8016
17.8777
17.9625
18.0548
18.1537
18.2581
18.3671
18.4799
18.5958
18.714
18.834
18.9553
19.0775
19.2
19.3226
19.4451
19.5671
19.6885
19.809
19.9285
20.047
20.1642
20.2801
17.5666
17.5622
17.5642
17.5767
17.6039
17.6487
17.7124
17.7952
17.896
18.0133
18.1451
18.2891
18.4435
18.6062
18.7756
18.95
19.1282
19.3091
19.4917
19.6751
19.8588
20.0421
20.2245
20.4057
20.5854
20.7632
20.939
21.1125
21.2838
21.4525
21.6187
21.7823
21.9432
17.5674
17.5706
17.5924
17.6418
17.7246
17.8428
17.995
18.1779
18.3869
18.6173
18.8648
19.1252
19.3953
19.6722
19.9533
20.2369
20.5213
20.8052
21.0877
21.368
21.6454
21.9194
22.1897
22.4559
22.7178
22.9753
23.2282
23.4764
23.72
23.9589
24.1931
24.4226
24.6474
17.5706
17.6016
17.687
17.8408
18.065
18.3528
18.6934
19.0752
19.4876
19.9215
20.3695
20.826
21.2864
21.7472
22.2058
22.6603
23.1093
23.5518
23.987
24.4143
24.8334
25.2441
25.6462
26.0396
26.4245
26.8007
27.1684
27.5277
27.8788
28.2216
28.5565
28.8836
29.203
17.5854
17.7219
18.0121
18.4558
19.027
19.6921
20.4207
21.1886
21.9781
22.7764
23.5745
24.366
25.1463
25.9125
26.6629
27.3966
28.1128
28.8114
29.4923
30.1557
30.8018
31.4308
32.0433
32.6395
33.2198
33.7847
34.3346
34.8699
35.3911
35.8985
36.3925
36.8736
37.3421
17.6614
18.2163
19.1616
20.3925
21.7984
23.2956
24.8287
26.3636
27.8798
29.3649
30.8115
32.2145
33.573
34.8873
36.1587
37.3884
38.5781
39.7293
40.8435
41.9222
42.9668
43.9786
44.959
45.909
46.83
47.723
48.589
49.4291
50.2442
51.0352
51.8031
52.5487
53.2727
18.1027
20.3856
23.4854
26.9262
30.4415
33.9037
37.2586
40.4822
43.5653
46.5065
49.3039
51.9692
54.5139
56.9478
59.2793
61.5155
63.6625
65.7257
67.71
69.6196
71.4584
73.23
74.9376
76.5844
78.1732
79.7066
81.1872
82.6173
83.9992
85.3349
86.6265
87.8758
89.0848
21.2182
31.4407
42.486
53.1246
62.973
72.0355
80.4375
88.1944
95.3423
101.98
108.198
114.054
119.588
124.831
129.808
134.539
139.042
143.332
147.424
151.33
155.061
158.629
162.042
165.312
168.444
171.449
174.333
177.103
179.765
182.325
184.79
187.163
189.452
59.9537
123.961
170.318
207.141
238.337
266.973
293.912
319.092
342.462
364.014
383.822
402.013
418.737
434.146
448.385
461.581
473.851
485.294
495.999
506.044
515.496
524.414
532.849
540.846
548.444
555.679
562.582
569.179
575.496
581.553
587.371
592.966
598.359
1719.4
1778.23
1839.24
1895.41
1945.93
1992.23
2035.28
2075.52
2113.26
2148.7
2182.03
2213.4
2242.93
2270.74
2296.93
2321.6
2344.84
2366.73
2387.36
2406.79
2425.1
2442.35
2458.61
2473.92
2488.35
2501.94
2514.76
2526.83
2538.21
2548.93
2559.03
2568.55
2577.54
9375.18
8894.39
8343.16
7780.24
7243.66
6747.93
6298.95
5895.12
5531.41
5201.88
4901.27
4625.48
4371.53
4137.19
3920.73
3720.65
3535.58
3364.24
3205.44
3058.1
2921.22
2793.89
2675.26
2564.51
2460.83
2363.48
2271.73
2184.9
2102.36
2023.54
1947.94
1875.08
1804.56
1736
1669.09
1603.55
1539.12
1475.6
1412.83
1350.68
1289.05
1227.88
1167.15
1106.86
1047.07
987.84
929.296
871.576
814.849
759.31
705.171
652.657
601.996
553.414
507.122
463.312
422.143
383.738
348.179
315.499
285.686
258.683
234.391
212.677
193.383
176.332
161.336
148.212
136.778
126.867
118.327
111.014
104.804
99.5949
95.3267
92.0051
89.7072
88.5552
88.6401
89.93
92.2397
95.2844
98.7673
102.44
106.121
109.688
113.065
116.206
119.084
121.686
124.009
126.055
127.831
129.348
130.618
131.658
132.485
133.12
133.585
133.903
3269.92
3314.21
3370.72
3426.02
3486.61
3550.08
3609.08
3655.53
3683.07
3687.85
3668.59
3626.1
3562.67
3481.5
3386.23
3280.6
3168.16
3052.09
2935.05
2819.08
2705.63
2595.64
2489.59
2387.69
2289.93
2196.18
2106.25
2019.92
1936.92
1857
1779.89
1705.31
1633.01
1562.74
1494.29
1427.46
1362.09
1298.01
1235.14
1173.37
1112.66
1052.98
994.331
936.744
880.279
825.018
771.068
718.555
667.621
618.42
571.11
525.847
482.783
442.053
403.771
368.025
334.873
304.335
276.398
251.01
228.089
207.521
189.169
172.882
158.494
145.84
134.756
125.087
116.692
109.443
103.226
97.9371
93.4871
89.8063
86.8645
84.6897
83.3761
83.0573
83.8311
85.6725
88.4068
91.7668
95.4778
99.3136
103.112
106.768
110.214
113.413
116.343
118.995
121.366
123.46
125.284
126.849
128.167
129.255
130.131
130.813
131.327
131.702
1359.91
1364.61
1372.96
1383.73
1396.3
1410.62
1427.63
1449.14
1476.45
1510.29
1550.71
1596.93
1647.28
1699.33
1750.08
1796.3
1834.92
1863.43
1880.15
1884.37
1876.32
1856.98
1827.86
1790.7
1747.24
1699.07
1647.55
1593.74
1538.48
1482.39
1425.92
1369.41
1313.08
1257.12
1201.64
1146.75
1092.5
1038.96
986.182
934.222
883.138
832.995
783.867
735.84
689.007
643.473
599.35
556.753
515.801
476.609
439.288
403.936
370.637
339.456
310.435
283.592
258.917
236.374
215.901
197.416
180.814
165.979
152.782
141.091
130.775
121.705
113.761
106.834
100.827
95.6531
91.239
87.5172
84.4291
81.9326
80.0189
78.7301
78.1678
78.4693
79.7378
81.9582
84.9721
88.5321
92.3835
96.3178
100.187
103.896
107.387
110.627
113.596
116.289
118.702
120.841
122.711
124.324
125.692
126.831
127.758
128.493
129.059
129.496
728.089
729.893
731.783
733.662
735.512
737.447
739.647
742.036
745.044
749.227
755.168
763.433
774.521
788.811
806.5
827.536
851.562
877.889
905.502
933.127
959.346
982.738
1002.04
1016.25
1024.73
1027.22
1023.78
1014.76
1000.66
982.109
959.752
934.215
906.075
875.847
843.98
810.86
776.824
742.159
707.121
671.932
636.796
601.896
567.402
533.475
500.263
467.908
436.542
406.289
377.261
349.557
323.265
298.452
275.171
253.455
233.315
214.745
197.718
182.189
168.1
155.378
143.941
133.702
124.571
116.458
109.275
102.941
97.3801
92.5263
88.3217
84.7168
81.6683
79.1372
77.0895
75.5035
74.3845
73.7809
73.7932
74.5558
76.1741
78.6449
81.8294
85.5019
89.4264
93.4088
97.3121
101.048
104.564
107.829
110.829
113.554
116.006
118.187
120.103
121.766
123.186
124.378
125.361
126.152
126.774
127.276
436.449
438.977
441.375
443.516
445.317
446.785
447.994
448.955
449.745
450.492
451.346
452.469
454.026
456.18
459.091
462.9
467.726
473.645
480.677
488.768
497.774
507.452
517.464
527.392
536.761
545.081
551.884
556.763
559.399
559.581
557.209
552.284
544.897
535.204
523.413
509.756
494.484
477.848
460.095
441.461
422.172
402.437
382.453
362.402
342.45
322.752
303.446
284.656
266.494
249.053
232.411
216.632
201.762
187.831
174.855
162.834
151.756
141.599
132.329
123.905
116.283
109.413
103.246
97.7319
92.8238
88.4774
84.6528
81.3156
78.4366
75.9919
73.9604
72.3231
71.0632
70.1733
69.6669
69.5928
70.0445
71.1479
73.0072
75.6313
78.9032
82.6202
86.5647
90.5553
94.4627
98.2039
101.729
105.009
108.029
110.783
113.269
115.49
117.453
119.166
120.64
121.889
122.93
123.781
124.464
125.036
276.025
278.763
281.379
283.808
285.994
287.917
289.591
291.029
292.257
293.313
294.242
295.088
295.895
296.703
297.553
298.48
299.519
300.703
302.059
303.609
305.365
307.324
309.466
311.746
314.095
316.418
318.594
320.486
321.944
322.815
322.957
322.247
320.584
317.903
314.17
309.385
303.58
296.814
289.166
280.734
271.626
261.958
251.85
241.42
230.784
220.054
209.335
198.721
188.302
178.153
168.342
158.922
149.94
141.43
133.413
125.906
118.913
112.433
106.458
100.975
95.9655
91.4111
87.2906
83.5823
80.2654
77.3206
74.7308
72.4819
70.5632
68.9665
67.6855
66.7138
66.0467
65.6862
65.6501
65.9837
66.7702
68.1227
70.1411
72.8452
76.1405
79.8486
83.7707
87.7368
91.6238
95.3516
98.8718
102.156
105.191
107.967
110.485
112.746
114.754
116.518
118.048
119.357
120.461
121.375
122.123
122.77
182.3
184.779
187.17
189.446
191.576
193.545
195.35
196.994
198.485
199.835
201.061
202.177
203.194
204.124
204.971
205.742
206.44
207.065
207.621
208.108
208.529
208.887
209.183
209.416
209.583
209.674
209.674
209.562
209.309
208.878
208.229
207.318
206.101
204.534
202.584
200.22
197.425
194.191
190.524
186.44
181.964
177.135
171.994
166.593
160.984
155.224
149.369
143.473
137.591
131.772
126.06
120.496
115.116
109.947
105.015
100.337
95.9267
91.7923
87.9387
84.3668
81.0749
78.059
75.314
72.8337
70.612
68.6435
66.9239
65.4508
64.224
63.2447
62.515
62.0369
61.8136
61.8531
62.1752
62.8205
63.8595
65.3905
67.5061
70.2348
73.5045
77.1618
81.027
84.9413
88.7868
92.4854
95.9889
99.2692
102.311
105.106
107.652
109.95
112.004
113.82
115.408
116.779
117.947
118.929
119.746
120.471
125.81
127.863
129.862
131.793
133.642
135.397
137.055
138.612
140.071
141.435
142.71
143.9
145.008
146.035
146.982
147.846
148.622
149.305
149.891
150.373
150.748
151.01
151.158
151.191
151.107
150.906
150.589
150.155
149.602
148.925
148.119
147.177
146.088
144.842
143.428
141.835
140.055
138.08
135.909
133.54
130.979
128.235
125.322
122.257
119.061
115.758
112.373
108.933
105.467
102.001
98.5626
95.1757
91.8639
88.6478
85.5459
82.5737
79.7444
77.0684
74.554
72.2071
70.0321
68.0318
66.2079
64.5617
63.0942
61.8068
60.702
59.7832
59.0558
58.526
58.2009
58.0877
58.1945
58.5336
59.1254
60.0053
61.2314
62.8859
65.0519
67.764
70.9709
74.5443
78.3243
82.1636
85.9492
89.6041
93.0797
96.347
99.3895
102.198
104.769
107.103
109.201
111.07
112.716
114.151
115.387
116.439
117.328
118.136
90.7577
92.3911
93.9939
95.5589
97.0777
98.5436
99.953
101.303
102.592
103.821
104.992
106.105
107.16
108.156
109.092
109.964
110.768
111.497
112.147
112.711
113.184
113.558
113.831
113.998
114.058
114.008
113.848
113.58
113.204
112.72
112.132
111.438
110.641
109.74
108.734
107.623
106.406
105.084
103.655
102.122
100.487
98.754
96.9285
95.0181
93.032
90.9812
88.8779
86.7356
84.5687
82.3919
80.2205
78.0692
75.9525
73.884
71.8766
69.9418
68.0901
66.3307
64.6715
63.1193
61.6801
60.3587
59.1596
58.087
57.1449
56.3379
55.6713
55.1517
54.7868
54.5855
54.5575
54.7129
55.0633
55.6236
56.4147
57.467
58.8272
60.5618
62.7427
65.4078
68.524
71.9878
75.6595
79.4039
83.1129
86.7106
90.1476
93.3935
96.43
99.2471
101.839
104.206
106.347
108.267
109.973
111.473
112.778
113.903
114.867
115.761
68.32
69.601
70.8657
72.1099
73.3289
74.5185
75.6759
76.7983
77.8845
78.9338
79.9458
80.9203
81.8563
82.7526
83.6071
84.4168
85.1781
85.8866
86.5376
87.1259
87.6463
88.0939
88.4641
88.7529
88.957
89.0741
89.1026
89.0418
88.8918
88.6533
88.3277
87.9167
87.422
86.846
86.1906
85.458
84.6505
83.7703
82.8198
81.8016
80.7187
79.5746
78.3736
77.1203
75.8203
74.4801
73.1068
71.7081
70.2924
68.8685
67.4457
66.0333
64.6406
63.2767
61.9506
60.6705
59.4445
58.2799
57.1834
56.1614
55.2195
54.3631
53.5972
52.9269
52.3575
51.8946
51.5448
51.3157
51.2159
51.2556
51.4455
51.7975
52.3254
53.0458
53.9797
55.1538
56.6047
58.3847
60.5536
63.1496
66.1552
69.4897
73.0343
76.6665
80.2839
83.8117
87.1994
90.4149
93.4384
96.258
98.867
101.262
103.444
105.415
107.179
108.744
110.12
111.319
112.361
113.345
53.4964
54.4995
55.4947
56.4793
57.4507
58.4061
59.3433
60.2605
61.1562
62.0296
62.8799
63.7063
64.5077
65.2829
66.0302
66.7472
67.4312
68.079
68.687
69.2513
69.7679
70.2328
70.6422
70.9925
71.2806
71.5039
71.6603
71.7484
71.7673
71.7168
71.5973
71.4096
71.1549
70.8351
70.4519
70.0077
69.5047
68.9457
68.3333
67.6705
66.9603
66.206
65.4113
64.5801
63.7167
62.8256
61.9119
60.981
60.0386
59.0906
58.1434
57.2034
56.277
55.3709
54.4914
53.6448
52.8373
52.0747
51.3627
50.7066
50.1117
49.5828
49.1251
48.7437
48.444
48.232
48.1144
48.0989
48.1946
48.4116
48.761
49.2557
49.9104
50.743
51.7746
53.0288
54.5346
56.3317
58.468
60.9795
63.8607
67.0518
70.4543
73.9594
77.4713
80.9168
84.2445
87.4206
90.4233
93.2389
95.8592
98.2795
100.498
102.517
104.338
105.968
107.414
108.689
109.809
110.885
43.4066
44.1955
44.9812
45.7622
46.5367
47.3029
48.0593
48.8043
49.537
50.2565
50.9618
51.6522
52.3267
52.9843
53.6235
54.2426
54.8396
55.4122
55.9577
56.4734
56.9562
57.4031
57.8112
58.1776
58.4995
58.7747
59.0011
59.177
59.3013
59.3731
59.392
59.3583
59.2724
59.1351
58.9477
58.7118
58.4292
58.102
57.7324
57.3229
56.8763
56.3955
55.8835
55.3436
54.7793
54.1944
53.5928
52.9786
52.3562
51.7302
51.1053
50.4863
49.8781
49.2858
48.7143
48.1686
47.6535
47.1738
46.7344
46.3397
45.9944
45.703
45.4703
45.301
45.2005
45.1744
45.2294
45.3728
45.6134
45.961
46.4265
47.023
47.7657
48.6731
49.7661
51.0664
52.5974
54.3884
56.4762
58.8928
61.6408
64.6788
67.9276
71.293
74.6868
78.0381
81.2951
84.4222
87.3957
90.2001
92.8253
95.2652
97.5168
99.5795
101.455
103.148
104.664
106.014
107.213
108.384
36.3539
36.9781
37.602
38.2244
38.8442
39.4603
40.0714
40.6765
41.2749
41.8656
42.448
43.0213
43.5847
44.1374
44.6783
45.206
45.7191
46.216
46.6947
47.1533
47.5894
48.001
48.3858
48.7414
49.0659
49.3573
49.6137
49.8337
50.0159
50.1594
50.2635
50.328
50.3527
50.3381
50.2846
50.1933
50.0652
49.902
49.7051
49.4767
49.2188
48.9336
48.6239
48.2921
47.9413
47.5745
47.1949
46.8058
46.4109
46.0137
45.618
45.2278
44.8469
44.4795
44.1294
43.8009
43.498
43.2246
42.9848
42.7827
42.6222
42.5075
42.4428
42.4326
42.4818
42.5957
42.7806
43.0432
43.3917
43.8352
44.3844
45.0517
45.8526
46.8055
47.931
49.2499
50.7813
52.5469
54.5738
56.8885
59.4987
62.3777
65.4647
68.6802
71.9445
75.1901
78.3655
81.4336
84.3689
87.1539
89.7768
92.2301
94.5089
96.6114
98.5377
100.29
101.875
103.298
104.576
105.843
31.312
31.8088
32.3068
32.8053
33.3035
33.8006
34.2957
34.7882
35.2773
35.7624
36.2429
36.7181
37.1875
37.6503
38.1057
38.5527
38.9904
39.4174
39.8324
40.2339
40.6204
40.9903
41.3418
41.6734
41.9833
42.2701
42.5322
42.7685
42.9776
43.1587
43.3111
43.4343
43.5279
43.592
43.6268
43.6327
43.6105
43.5611
43.4856
43.3856
43.2624
43.1181
42.9544
42.7737
42.5781
42.3703
42.1528
41.9285
41.7002
41.4709
41.2438
41.0222
40.8092
40.6083
40.4228
40.2561
40.1117
39.9931
39.9037
39.847
39.8266
39.8462
39.9096
40.0208
40.1843
40.405
40.6885
41.041
41.4699
41.9836
42.5919
43.3068
44.143
45.1187
46.2542
47.5692
49.0807
50.8049
52.7609
54.9692
57.4399
60.1577
63.0778
66.1352
69.26
72.3893
75.4722
78.471
81.3584
84.1151
86.7278
89.187
91.4867
93.6232
95.5953
97.4041
99.0532
100.548
101.904
103.266
27.6422
28.0391
28.4381
28.8389
29.2407
29.6431
30.0454
30.447
30.8475
31.2463
31.6429
32.0369
32.4277
32.8148
33.1975
33.5752
33.947
34.3121
34.6695
35.0182
35.3569
35.6847
36.0001
36.3021
36.5893
36.8606
37.1148
37.3509
37.568
37.7652
37.9419
38.0975
38.2317
38.3443
38.4353
38.5049
38.5536
38.5819
38.5906
38.5808
38.5535
38.5102
38.4524
38.3817
38.3001
38.2095
38.1122
38.0104
37.9065
37.8031
37.7027
37.6081
37.522
37.4473
37.3869
37.3437
37.3207
37.3207
37.347
37.4025
37.4903
37.6139
37.7764
37.9817
38.2336
38.5366
38.8956
39.3161
39.8048
40.3692
41.0182
41.7629
42.6171
43.5983
44.7261
46.0197
47.4949
49.1643
51.0412
53.1406
55.4723
58.0292
60.78
63.6738
66.6508
69.6536
72.6336
75.5525
78.3819
81.1008
83.6942
86.1512
88.4641
90.6279
92.6399
94.4996
96.2091
97.772
99.2024
100.659
24.9351
25.2526
25.573
25.8957
26.2204
26.5466
26.874
27.202
27.5303
27.8584
28.1861
28.5128
28.8382
29.1619
29.4833
29.802
30.1174
30.4288
30.7356
31.037
31.3321
31.6202
31.9003
32.1716
32.4331
32.684
32.9233
33.1504
33.3644
33.5647
33.7507
33.922
34.0782
34.2191
34.3446
34.4549
34.5501
34.6306
34.6971
34.7501
34.7906
34.8197
34.8384
34.8482
34.8505
34.847
34.8394
34.8297
34.8198
34.8118
34.808
34.8107
34.8221
34.8448
34.8812
34.9338
35.0052
35.0979
35.2146
35.3579
35.5308
35.7359
35.9763
36.2553
36.5763
36.9431
37.3602
37.8323
38.3653
38.9656
39.6414
40.4025
41.2619
42.2356
43.3424
44.6012
46.0271
47.631
49.4221
51.4109
53.6056
56.004
58.5858
61.3126
64.1353
67.0029
69.8698
72.6983
75.4591
78.1301
80.6946
83.1402
85.4578
87.6411
89.6859
91.5902
93.3545
94.9809
96.4822
98.0324
22.9208
23.1746
23.4315
23.6912
23.9534
24.2179
24.4842
24.7521
25.0213
25.2913
25.562
25.833
26.1039
26.3746
26.6445
26.9134
27.1807
27.4461
27.709
27.9689
28.2253
28.4774
28.7248
28.9666
29.2024
29.4313
29.6529
29.8665
30.0715
30.2675
30.4539
30.6305
30.7969
30.953
31.0987
31.2341
31.3592
31.4743
31.5799
31.6765
31.7647
31.8454
31.9196
31.9882
32.0526
32.114
32.1739
32.2338
32.2956
32.3608
32.4314
32.5094
32.5967
32.6954
32.8077
32.9356
33.0815
33.2475
33.4359
33.6491
33.8894
34.1594
34.4616
34.799
35.1743
35.5911
36.0531
36.5643
37.1297
37.755
38.4471
39.2149
40.0698
41.0267
42.1031
43.3172
44.684
46.2139
47.9141
49.7911
51.8514
54.0952
56.5104
59.0693
61.733
64.458
67.2025
69.9304
72.612
75.2244
77.7497
80.174
82.487
84.6809
86.7503
88.6918
90.5043
92.1883
93.7554
95.3962
21.4163
21.6183
21.8235
22.0319
22.2432
22.4571
22.6735
22.8919
23.1123
23.3343
23.5578
23.7824
24.008
24.2343
24.461
24.6878
24.9144
25.1406
25.3659
25.59
25.8124
26.0328
26.2506
26.4655
26.677
26.8845
27.0877
27.2862
27.4795
27.6673
27.8492
28.0251
28.1946
28.3577
28.5143
28.6644
28.8082
28.946
29.0779
29.2045
29.3264
29.4441
29.5584
29.6703
29.7808
29.8909
30.0018
30.115
30.2317
30.3536
30.4822
30.6191
30.766
30.9248
31.0973
31.2852
31.4906
31.7153
31.9612
32.2305
32.5251
32.8472
33.1991
33.5831
34.0017
34.4579
34.9546
35.4954
36.0845
36.7264
37.4273
38.1946
39.0385
39.9721
41.0118
42.1745
43.4755
44.9253
46.5304
48.2951
50.2239
52.318
54.5705
56.9626
59.4649
62.0414
64.6553
67.2726
69.8647
72.4077
74.8829
77.2754
79.5736
81.7685
83.8533
85.8234
87.6763
89.411
91.0375
92.765
20.2939
20.4536
20.6167
20.7831
20.9526
21.125
21.3001
21.4778
21.6579
21.8401
22.0244
22.2105
22.3983
22.5875
22.778
22.9695
23.1618
23.3548
23.5481
23.7415
23.9347
24.1275
24.3194
24.5103
24.6998
24.8875
25.0733
25.2567
25.4376
25.6156
25.7907
25.9625
26.131
26.2962
26.458
26.6165
26.7718
26.9242
27.0739
27.2213
27.3669
27.5113
27.6551
27.7991
27.9441
28.0911
28.2412
28.3954
28.5549
28.7211
28.8953
29.0789
29.2734
29.4803
29.7011
29.9374
30.1909
30.4632
30.756
31.0709
31.4098
31.7744
32.1665
32.5883
33.0417
33.5292
34.0531
34.6165
35.2226
35.8752
36.5794
37.3414
38.1699
39.0764
40.0755
41.1832
42.4144
43.7803
45.2875
46.9399
48.7401
50.6894
52.7842
55.0125
57.3529
59.7769
62.2533
64.7513
67.2434
69.7062
72.1203
74.47
76.7426
78.9279
81.0182
83.0075
84.8919
86.6691
88.3475
90.1567
19.4624
19.5876
19.7163
19.8484
19.9836
20.122
20.2633
20.4075
20.5544
20.7038
20.8557
21.0099
21.1663
21.3248
21.4851
21.6472
21.8109
21.976
22.1425
22.31
22.4785
22.6477
22.8175
22.9876
23.1578
23.328
23.498
23.6675
23.8365
24.0047
24.1722
24.3387
24.5043
24.669
24.8328
24.9958
25.1581
25.3201
25.482
25.6441
25.8069
25.9709
26.1367
26.305
26.4765
26.6521
26.8326
27.0191
27.2125
27.414
27.6247
27.846
28.0789
28.3249
28.5853
28.8613
29.1544
29.466
29.7975
30.1503
30.5258
30.9255
31.3509
31.8038
32.2856
32.7984
33.344
33.9247
34.5432
35.2024
35.9062
36.6599
37.4707
38.3483
39.3054
40.3568
41.5167
42.797
44.2053
45.7456
47.42
49.2296
51.1724
53.2411
55.4209
57.6904
60.0239
62.3947
64.7774
67.1495
69.4914
71.7869
74.0225
76.1872
78.2721
80.2701
82.1762
83.9867
85.7083
87.5933
18.855
18.9526
19.0536
19.1579
19.2654
19.3762
19.4901
19.607
19.7269
19.8496
19.9751
20.1032
20.234
20.3672
20.5028
20.6408
20.781
20.9233
21.0675
21.2137
21.3617
21.5114
21.6627
21.8154
21.9694
22.1247
22.2812
22.4387
22.5972
22.7566
22.917
23.0782
23.2404
23.4036
23.5679
23.7335
23.9005
24.0692
24.2399
24.413
24.5888
24.7679
24.9508
25.1382
25.3307
25.529
25.734
25.9465
26.1674
26.3978
26.6387
26.891
27.1559
27.4345
27.7279
28.0373
28.3638
28.7085
29.0727
29.4575
29.8641
30.2936
30.7473
31.2264
31.7321
32.2659
32.8293
33.4238
34.0516
34.7147
35.4162
36.1602
36.9524
37.8009
38.7166
39.7125
40.802
41.9974
43.3073
44.7367
46.2882
47.9627
49.7593
51.6735
53.6956
55.8102
57.9973
60.2345
62.4992
64.7704
67.0291
69.2589
71.4459
73.5783
75.6463
77.6419
79.5591
81.3928
83.1475
85.1012
18.4226
18.4985
18.5777
18.6602
18.7459
18.8349
18.9271
19.0224
19.1209
19.2224
19.3269
19.4344
19.5448
19.658
19.774
19.8928
20.0142
20.1383
20.265
20.3942
20.5259
20.66
20.7965
20.9353
21.0764
21.2198
21.3654
21.5133
21.6634
21.8157
21.9703
22.1273
22.2867
22.4487
22.6134
22.781
22.9517
23.1259
23.3038
23.4858
23.6724
23.8639
24.061
24.2642
24.4742
24.6916
24.9172
25.1517
25.396
25.6509
25.9174
26.1964
26.4887
26.7954
27.1174
27.4557
27.8112
28.1849
28.5777
28.9906
29.4244
29.8801
30.3584
30.8605
31.3871
31.9392
32.5179
33.1242
33.7595
34.4254
35.1239
35.858
36.6323
37.4531
38.3295
39.2725
40.2946
41.4078
42.6217
43.9427
45.3744
46.9182
48.574
50.3392
52.2076
54.1686
56.2074
58.3061
60.4455
62.6065
64.7714
66.9242
69.0506
71.1386
73.1777
75.1592
77.0758
78.9216
80.6984
82.7129
18.129
18.1887
18.2517
18.3179
18.3873
18.46
18.536
18.6151
18.6975
18.7831
18.8718
18.9638
19.0588
19.157
19.2583
19.3627
19.4701
19.5806
19.6941
19.8106
19.9302
20.0528
20.1784
20.3071
20.4388
20.5735
20.7114
20.8524
20.9967
21.1442
21.2951
21.4496
21.6077
21.7697
21.9356
22.1059
22.2807
22.4603
22.6452
22.8356
23.032
23.2349
23.4449
23.6624
23.888
24.1225
24.3665
24.6207
24.8859
25.1629
25.4524
25.7552
26.0723
26.4043
26.7522
27.1166
27.4985
27.8985
28.3175
28.756
29.2147
29.6944
30.1955
30.7188
31.2646
31.8337
32.4266
33.044
33.6865
34.3551
35.0511
35.7765
36.5347
37.3305
38.171
39.0655
40.0249
41.0607
42.1828
43.3992
44.7149
46.1324
47.6526
49.2742
50.9935
52.8036
54.6938
56.6507
58.6587
60.7013
62.7624
64.8269
66.881
68.9123
70.91
72.8648
74.7688
76.6147
78.4015
80.4678
17.9487
17.9978
18.05
18.1053
18.1638
18.2256
18.2906
18.3588
18.4304
18.5053
18.5834
18.6649
18.7497
18.8379
18.9293
19.0242
19.1223
19.2239
19.3288
19.4372
19.549
19.6643
19.7831
19.9055
20.0316
20.1613
20.2949
20.4324
20.5739
20.7195
20.8694
21.0238
21.1829
21.3468
21.5159
21.6903
21.8705
22.0567
22.2493
22.4488
22.6555
22.87
23.0928
23.3244
23.5654
23.8165
24.0783
24.3514
24.6366
24.9346
25.246
25.5717
25.9122
26.2684
26.641
27.0305
27.4376
27.8629
28.3069
28.7701
29.253
29.756
30.2794
30.8234
31.3884
31.9745
32.5818
33.2107
33.8612
34.5338