/*--------------------------------*- C++ -*----------------------------------*\
| =========                 |                                                 |
| \\      /  F ield         | OpenFOAM: The Open Source CFD Toolbox           |
|  \\    /   O peration     | Version:  4.1                                   |
|   \\  /    A nd           | Web:      www.OpenFOAM.org                      |
|    \\/     M anipulation  |                                                 |
\*---------------------------------------------------------------------------*/
FoamFile
{
    version     2.0;
    format      ascii;
    class       volScalarField;
    location    "500";
    object      p;
}
// * * * * * * * * * * * * * * * * * * * * * * * * * * * * * * * * * * * * * //

dimensions      [0 2 -2 0 0 0 0];

internalField   nonuniform List<scalar> 
6820
(
7.39835
-3.30057
-6.82721
-7.57246
-7.96509
-8.29638
-8.48479
-8.57817
-8.64115
-8.69391
-8.73708
-8.77224
-8.80255
-8.8299
-8.85494
-8.87808
-8.89972
-8.92018
-8.93969
-8.9584
-8.97644
-8.99394
-9.01097
-9.02759
-9.04385
-9.05976
-9.07529
-9.09039
-9.10489
-9.11871
-9.1308
-9.14297
-9.14183
-14.3209
-10.7737
-9.97184
-9.1675
-8.78439
-8.70223
-8.68836
-8.68354
-8.69562
-8.72079
-8.74899
-8.77614
-8.80216
-8.82723
-8.85113
-8.87376
-8.89525
-8.91576
-8.93541
-8.95431
-8.97256
-8.99027
-9.00751
-9.02433
-9.04079
-9.05692
-9.07271
-9.08816
-9.10315
-9.11783
-9.13137
-9.14585
-9.15378
-12.1304
-8.62249
-8.36041
-8.35018
-8.33752
-8.42809
-8.52133
-8.58362
-8.63432
-8.68157
-8.72314
-8.75871
-8.79002
-8.8184
-8.84438
-8.86835
-8.8907
-8.91176
-8.93177
-8.9509
-8.96932
-8.98714
-9.00446
-9.02136
-9.0379
-9.05412
-9.07005
-9.08572
-9.10107
-9.11627
-9.13092
-9.1465
-9.15946
-9.70356
-8.23263
-8.38311
-8.49345
-8.47359
-8.52274
-8.58691
-8.63056
-8.66684
-8.70297
-8.73674
-8.76706
-8.79478
-8.82062
-8.84483
-8.86759
-8.88911
-8.90961
-8.92924
-8.94813
-8.9664
-8.98414
-9.00143
-9.01836
-9.03497
-9.0513
-9.06741
-9.08334
-9.09911
-9.11489
-9.1306
-9.14712
-9.16317
-9.25124
-8.53669
-8.57535
-8.58627
-8.5368
-8.55874
-8.60527
-8.64156
-8.674
-8.70725
-8.73913
-8.76836
-8.7954
-8.82073
-8.84456
-8.86702
-8.88831
-8.90861
-8.92808
-8.94683
-8.96499
-8.98263
-8.99986
-9.01673
-9.03332
-9.04968
-9.06587
-9.08196
-9.09801
-9.1142
-9.1306
-9.14781
-9.16561
-9.17057
-8.69085
-8.64282
-8.61685
-8.57301
-8.58634
-8.62288
-8.65497
-8.68497
-8.71571
-8.74545
-8.77313
-8.79897
-8.82333
-8.84636
-8.86818
-8.88895
-8.90883
-8.92794
-8.94641
-8.96433
-8.98179
-8.99886
-9.01563
-9.03214
-9.04848
-9.0647
-9.0809
-9.09715
-9.11364
-9.13051
-9.14824
-9.16703
-9.04758
-8.72121
-8.66693
-8.64149
-8.6083
-8.61635
-8.64424
-8.67156
-8.69838
-8.72612
-8.75338
-8.77921
-8.80366
-8.8269
-8.84902
-8.87012
-8.89032
-8.90972
-8.92845
-8.9466
-8.96425
-8.98149
-8.99838
-9.015
-9.03142
-9.04769
-9.0639
-9.08014
-9.0965
-9.11315
-9.13028
-9.14825
-9.1674
-8.93864
-8.73317
-8.68848
-8.66626
-8.6404
-8.64469
-8.66567
-8.68855
-8.71223
-8.73714
-8.76203
-8.78606
-8.8091
-8.8312
-8.8524
-8.87275
-8.89233
-8.91122
-8.92952
-8.94731
-8.96465
-8.98163
-8.99831
-9.01475
-9.03102
-9.04719
-9.06333
-9.07953
-9.09591
-9.1126
-9.12979
-9.14776
-9.16682
-8.86763
-8.74395
-8.70643
-8.68654
-8.66672
-8.66921
-8.6854
-8.70476
-8.72576
-8.7482
-8.77097
-8.7933
-8.81498
-8.83596
-8.85624
-8.87583
-8.89477
-8.91313
-8.93097
-8.94837
-8.96539
-8.98208
-8.99852
-9.01475
-9.03084
-9.04686
-9.06288
-9.07898
-9.09527
-9.11188
-9.12896
-9.14672
-9.16541
-8.82328
-8.75056
-8.71942
-8.70241
-8.68793
-8.68993
-8.70298
-8.7197
-8.73849
-8.75883
-8.77974
-8.80053
-8.82094
-8.84087
-8.86025
-8.87909
-8.8974
-8.91522
-8.93261
-8.94962
-8.96629
-8.98268
-8.99885
-9.01484
-9.03073
-9.04656
-9.0624
-9.07834
-9.09446
-9.11087
-9.12771
-9.14511
-9.16324
-8.79556
-8.75391
-8.72922
-8.71538
-8.70525
-8.70737
-8.71837
-8.73311
-8.75012
-8.7687
-8.78801
-8.80744
-8.82669
-8.84563
-8.86418
-8.88231
-8.90001
-8.91731
-8.93425
-8.95086
-8.96718
-8.98326
-8.99914
-9.01488
-9.03053
-9.04614
-9.06176
-9.07747
-9.09335
-9.10948
-9.12596
-9.14288
-9.16034
-8.77903
-8.75598
-8.73728
-8.72643
-8.71965
-8.7221
-8.73174
-8.74499
-8.76053
-8.77765
-8.79559
-8.81381
-8.83203
-8.85007
-8.86785
-8.8853
-8.90243
-8.91923
-8.93572
-8.95194
-8.96791
-8.98367
-8.99926
-9.01473
-9.03011
-9.04546
-9.06082
-9.07626
-9.09183
-9.1076
-9.12363
-9.13999
-9.15672
-8.77016
-8.75794
-8.74432
-8.73612
-8.73188
-8.73471
-8.7434
-8.75547
-8.76979
-8.78565
-8.8024
-8.81955
-8.83683
-8.85405
-8.87111
-8.88794
-8.90452
-8.92083
-8.93689
-8.95272
-8.96834
-8.98378
-8.99907
-9.01425
-9.02935
-9.04441
-9.05947
-9.07458
-9.08979
-9.10514
-9.12067
-9.13642
-9.15239
-8.7664
-8.76027
-8.75072
-8.74482
-8.7425
-8.74566
-8.75365
-8.76476
-8.77801
-8.79278
-8.80847
-8.82466
-8.84107
-8.85753
-8.87391
-8.89015
-8.9062
-8.92204
-8.93769
-8.95313
-8.9684
-8.98351
-8.99848
-9.01335
-9.02814
-9.04289
-9.05762
-9.07237
-9.08717
-9.10205
-9.11704
-9.13214
-9.14735
-8.76599
-8.76315
-8.75673
-8.75276
-8.75189
-8.75534
-8.76278
-8.77305
-8.78536
-8.79913
-8.81385
-8.82915
-8.84476
-8.86049
-8.87623
-8.89189
-8.90743
-8.92282
-8.93804
-8.95311
-8.96802
-8.98279
-8.99743
-9.01198
-9.02644
-9.04084
-9.05521
-9.06956
-9.08392
-9.09831
-9.11273
-9.12718
-9.14164
-8.76775
-8.76661
-8.76252
-8.7601
-8.76032
-8.76399
-8.77099
-8.78052
-8.79196
-8.80481
-8.81864
-8.8331
-8.84793
-8.86297
-8.87808
-8.89319
-8.90822
-8.92315
-8.93796
-8.95263
-8.96718
-8.98159
-8.9959
-9.01009
-9.0242
-9.03824
-9.05222
-9.06615
-9.08004
-9.09391
-9.10775
-9.12154
-9.13527
-8.77088
-8.77057
-8.76815
-8.76695
-8.76798
-8.7718
-8.77841
-8.78728
-8.79792
-8.80992
-8.8229
-8.83656
-8.85065
-8.86501
-8.87951
-8.89406
-8.90858
-8.92305
-8.93743
-8.95171
-8.96587
-8.97992
-8.99386
-9.0077
-9.02144
-9.03508
-9.04865
-9.06213
-9.07555
-9.08888
-9.10213
-9.11528
-9.12829
-8.77486
-8.77492
-8.77367
-8.7734
-8.77499
-8.77889
-8.78514
-8.79341
-8.80332
-8.81452
-8.8267
-8.83958
-8.85296
-8.86665
-8.88054
-8.89453
-8.90855
-8.92255
-8.9365
-8.95036
-8.96413
-8.9778
-8.99136
-9.00481
-9.01816
-9.03139
-9.04453
-9.05755
-9.07047
-9.08326
-9.09593
-9.10844
-9.12077
-8.77934
-8.77954
-8.77909
-8.77947
-8.78144
-8.78535
-8.79126
-8.79896
-8.80818
-8.81864
-8.83006
-8.8422
-8.85488
-8.86792
-8.88121
-8.89465
-8.90815
-8.92168
-8.93518
-8.94862
-8.96198
-8.97525
-8.98841
-9.00147
-9.0144
-9.02721
-9.0399
-9.05245
-9.06486
-9.07711
-9.08919
-9.10109
-9.11277
-8.78412
-8.78435
-8.78441
-8.78522
-8.7874
-8.79123
-8.7968
-8.80397
-8.81254
-8.82229
-8.83299
-8.84443
-8.85643
-8.86884
-8.88153
-8.89442
-8.90741
-8.92046
-8.9335
-8.94651
-8.95945
-8.97231
-8.98507
-8.9977
-9.01021
-9.02259
-9.03481
-9.04688
-9.05878
-9.07049
-9.082
-9.09329
-9.10434
-8.78903
-8.78925
-8.78961
-8.79067
-8.79291
-8.79659
-8.80179
-8.80844
-8.8164
-8.82548
-8.8355
-8.84626
-8.85761
-8.8694
-8.88152
-8.89386
-8.90635
-8.91891
-8.9315
-8.94407
-8.95658
-8.96902
-8.98135
-8.99356
-9.00564
-9.01756
-9.02932
-9.0409
-9.05229
-9.06347
-9.07442
-9.08513
-9.09557
-8.79399
-8.79419
-8.79468
-8.79583
-8.79801
-8.80146
-8.80626
-8.81239
-8.81975
-8.82819
-8.83755
-8.84767
-8.8584
-8.8696
-8.88115
-8.89297
-8.90495
-8.91704
-8.92917
-8.9413
-8.95338
-8.96539
-8.9773
-8.98908
-9.00072
-9.01219
-9.02348
-9.03457
-9.04546
-9.05611
-9.06651
-9.07665
-9.08651
-8.79896
-8.79914
-8.79964
-8.80072
-8.80272
-8.80584
-8.8102
-8.8158
-8.82257
-8.8304
-8.83913
-8.84864
-8.85877
-8.86941
-8.88042
-8.89173
-8.90323
-8.91485
-8.92653
-8.93823
-8.94988
-8.96147
-8.97295
-8.9843
-8.99549
-9.00651
-9.01734
-9.02795
-9.03833
-9.04847
-9.05834
-9.06793
-9.07723
-8.80392
-8.80407
-8.80447
-8.80536
-8.80704
-8.80976
-8.81362
-8.81867
-8.82484
-8.83206
-8.8402
-8.84912
-8.85869
-8.86879
-8.8793
-8.89012
-8.90115
-8.91233
-8.92358
-8.93484
-8.94608
-8.95725
-8.96831
-8.97923
-8.98999
-9.00056
-9.01093
-9.02107
-9.03096
-9.0406
-9.04995
-9.05901
-9.06777
-8.8089
-8.80902
-8.80922
-8.80976
-8.81101
-8.8132
-8.8165
-8.82095
-8.82653
-8.83315
-8.84071
-8.84907
-8.85812
-8.86771
-8.87774
-8.8881
-8.8987
-8.90945
-8.92029
-8.93115
-8.94198
-8.95274
-8.96339
-8.9739
-8.98424
-8.99437
-9.00429
-9.01397
-9.0234
-9.03254
-9.0414
-9.04995
-9.05819
-8.81394
-8.81404
-8.81393
-8.81396
-8.8146
-8.81616
-8.81881
-8.82262
-8.82757
-8.8336
-8.8406
-8.84845
-8.857
-8.86612
-8.87571
-8.88565
-8.89584
-8.9062
-8.91665
-8.92713
-8.93758
-8.94795
-8.95821
-8.96832
-8.97824
-8.98796
-8.99745
-9.00669
-9.01565
-9.02433
-9.03271
-9.04078
-9.04852
-8.81916
-8.81923
-8.81866
-8.81797
-8.81783
-8.81861
-8.8205
-8.8236
-8.82791
-8.83335
-8.83982
-8.84717
-8.85526
-8.86397
-8.87316
-8.88272
-8.89254
-8.90254
-8.91264
-8.92276
-8.93285
-8.94286
-8.95275
-8.96248
-8.97202
-8.98134
-8.99042
-8.99923
-9.00776
-9.01599
-9.02391
-9.03151
-9.03879
-8.82473
-8.82477
-8.82353
-8.82184
-8.82067
-8.82048
-8.82149
-8.82381
-8.82745
-8.83231
-8.83827
-8.84516
-8.85285
-8.86119
-8.87003
-8.87926
-8.88876
-8.89844
-8.90821
-8.91802
-8.92778
-8.93746
-8.94701
-8.95639
-8.96556
-8.9745
-8.98319
-8.9916
-8.99971
-9.00752
-9.01501
-9.02217
-9.029
-8.83093
-8.83091
-8.82868
-8.8256
-8.82309
-8.82169
-8.82167
-8.82314
-8.82607
-8.83036
-8.83584
-8.84233
-8.84967
-8.85769
-8.86624
-8.87519
-8.88442
-8.89383
-8.90333
-8.91285
-8.92233
-8.93171
-8.94094
-8.94999
-8.95883
-8.96742
-8.97574
-8.98378
-8.99151
-8.99893
-9.00601
-9.01276
-9.01917
-8.83822
-8.83808
-8.83434
-8.82928
-8.825
-8.82211
-8.82087
-8.82139
-8.82361
-8.82735
-8.83239
-8.83855
-8.8456
-8.85337
-8.8617
-8.87043
-8.87945
-8.88864
-8.89791
-8.9072
-8.91642
-8.92554
-8.93449
-8.94325
-8.95178
-8.96005
-8.96805
-8.97574
-8.98312
-8.99016
-8.99687
-9.00324
-9.00926
-8.84738
-8.84694
-8.84078
-8.83287
-8.82624
-8.82148
-8.81883
-8.81833
-8.81983
-8.82306
-8.82775
-8.83363
-8.84049
-8.84809
-8.85626
-8.86484
-8.87371
-8.88274
-8.89184
-8.90093
-8.90995
-8.91884
-8.92756
-8.93607
-8.94433
-8.95232
-8.96002
-8.96741
-8.97447
-8.98119
-8.98756
-8.99358
-8.99925
-8.85977
-8.8585
-8.84833
-8.83627
-8.82654
-8.81947
-8.81517
-8.8136
-8.81441
-8.8172
-8.82161
-8.82734
-8.83408
-8.8416
-8.84971
-8.85822
-8.867
-8.87593
-8.88492
-8.89388
-8.90275
-8.91147
-8.92
-8.92831
-8.93635
-8.94411
-8.95156
-8.95868
-8.96547
-8.97191
-8.978
-8.98372
-8.98909
-8.87801
-8.87423
-8.85705
-8.83906
-8.82538
-8.81551
-8.80937
-8.80673
-8.80692
-8.80936
-8.8136
-8.81926
-8.82601
-8.83355
-8.84169
-8.85022
-8.85901
-8.86793
-8.87689
-8.8858
-8.89459
-8.90322
-8.91164
-8.91981
-8.9277
-8.93528
-8.94255
-8.94948
-8.95606
-8.96228
-8.96813
-8.97362
-8.97873
-8.90835
-8.89709
-8.86649
-8.83974
-8.82122
-8.80817
-8.80021
-8.7967
-8.79648
-8.79876
-8.80302
-8.80878
-8.81567
-8.82336
-8.83164
-8.8403
-8.8492
-8.8582
-8.86722
-8.87617
-8.88498
-8.8936
-8.902
-8.91012
-8.91795
-8.92547
-8.93265
-8.93948
-8.94595
-8.95204
-8.95776
-8.96311
-8.96807
-8.96327
-8.9349
-8.87981
-8.83895
-8.81274
-8.79503
-8.78508
-8.78109
-8.78095
-8.78364
-8.78853
-8.79501
-8.80259
-8.81092
-8.81977
-8.82892
-8.83823
-8.84758
-8.85687
-8.86603
-8.87499
-8.88372
-8.89217
-8.90032
-8.90814
-8.91561
-8.92272
-8.92946
-8.93582
-8.9418
-8.94738
-8.95258
-8.95739
-9.04627
-8.98317
-8.8986
-8.8451
-8.80636
-8.77824
-8.76304
-8.75646
-8.75465
-8.75648
-8.76133
-8.7683
-8.77669
-8.78602
-8.79597
-8.80628
-8.81674
-8.82721
-8.83757
-8.84774
-8.85765
-8.86725
-8.87651
-8.8854
-8.89389
-8.90197
-8.90964
-8.91687
-8.92367
-8.93003
-8.93595
-8.94143
-8.94645
-9.19645
-8.96294
-8.83353
-8.82022
-8.80543
-8.78791
-8.78197
-8.78144
-8.78163
-8.78305
-8.78622
-8.79076
-8.79628
-8.8026
-8.8096
-8.8171
-8.82495
-8.83303
-8.84121
-8.84942
-8.85758
-8.86561
-8.87347
-8.88111
-8.88849
-8.89559
-8.90237
-8.90882
-8.91493
-8.92069
-8.92609
-8.93114
-8.93586
-10.1528
-8.92952
-8.33921
-8.25991
-8.27302
-8.3106
-8.36605
-8.42194
-8.47255
-8.51916
-8.56207
-8.6008
-8.63543
-8.66647
-8.6944
-8.71959
-8.74238
-8.76306
-8.78191
-8.79913
-8.81492
-8.82942
-8.84278
-8.85509
-8.86644
-8.87693
-8.88659
-8.8955
-8.90369
-8.9112
-8.91804
-8.92422
-8.92971
-13.9218
-11.719
-10.6878
-10.0514
-9.62426
-9.3735
-9.21151
-9.08834
-8.99602
-8.93162
-8.88795
-8.85835
-8.83886
-8.82702
-8.82088
-8.81888
-8.81987
-8.82302
-8.82773
-8.83351
-8.84002
-8.84699
-8.8542
-8.86151
-8.86878
-8.87592
-8.88287
-8.88957
-8.89598
-8.90208
-8.90787
-8.91335
-8.91853
-0.00813524
-4.10079
-6.22459
-6.99708
-7.43587
-7.79954
-8.06566
-8.24186
-8.36587
-8.46168
-8.53711
-8.59599
-8.64261
-8.68066
-8.71247
-8.73946
-8.76269
-8.78297
-8.80092
-8.81696
-8.83143
-8.84456
-8.85654
-8.86752
-8.87759
-8.88686
-8.89539
-8.90324
-8.91044
-8.91703
-8.92304
-8.92848
-8.9334
-9.12951
-8.91514
-9.20615
-9.47987
-9.58894
-9.62408
-9.63526
-9.62965
-9.61388
-9.5981
-9.5899
-9.59351
-9.61096
-9.64253
-9.68704
-9.74224
-9.80531
-9.87319
-9.94284
-10.0114
-10.0764
-10.1357
-10.1875
-10.2307
-10.2644
-10.2878
-10.3009
-10.3033
-10.2951
-10.2763
-10.247
-10.2071
-10.1569
-10.096
-10.0246
-9.94237
-9.84919
-9.74482
-9.62902
-9.50148
-9.36192
-9.21
-9.04541
-8.86784
-8.67702
-8.47271
-8.25475
-8.02307
-7.77767
-7.51871
-7.24645
-6.96132
-6.66393
-6.35503
-6.03558
-5.70674
-5.36983
-5.02636
-4.67802
-4.32666
-3.97425
-3.62287
-3.27469
-2.93194
-2.59685
-2.27166
-1.9586
-1.65983
-1.3775
-1.1137
-0.870536
-0.650205
-0.455155
-0.28825
-0.152616
-0.0507725
0.0170433
0.0545755
0.0697402
0.0723026
0.0704835
0.0690151
0.0694511
0.0715008
0.0742184
0.0766419
0.0780523
0.0779992
0.0762792
0.072849
0.0678157
0.0613109
0.0536282
0.0448769
0.0356603
0.0257272
0.0167534
0.0068999
0.00221408
-0.00735924
-9.1749
-9.17622
-9.37219
-9.52074
-9.55683
-9.55338
-9.54552
-9.53345
-9.51939
-9.51037
-9.51135
-9.52435
-9.54995
-9.58777
-9.63655
-9.69427
-9.75852
-9.82664
-9.89594
-9.96384
-10.028
-10.0865
-10.1376
-10.1801
-10.2133
-10.2363
-10.2491
-10.2513
-10.243
-10.2241
-10.1947
-10.1549
-10.1046
-10.0437
-9.97226
-9.89003
-9.79686
-9.69254
-9.57681
-9.44942
-9.31005
-9.15843
-8.99424
-8.8172
-8.62705
-8.42359
-8.20668
-7.97624
-7.73232
-7.47507
-7.20476
-6.92184
-6.62689
-6.32067
-6.00412
-5.67835
-5.34466
-5.00454
-4.65961
-4.31168
-3.96266
-3.61459
-3.26958
-2.9298
-2.59745
-2.27471
-1.96375
-1.66672
-1.38569
-1.12275
-0.879967
-0.659558
-0.463965
-0.295952
-0.158346
-0.0532232
0.0194572
0.0631089
0.0845721
0.0922857
0.0936364
0.0933025
0.0932967
0.0939175
0.0947118
0.0950564
0.0944338
0.0925006
0.0890989
0.0841945
0.0778851
0.0702775
0.0616485
0.0520561
0.0421237
0.0314469
0.0219161
0.0110471
0.0059493
-0.00596217
-9.18572
-9.20253
-9.29149
-9.39566
-9.45569
-9.48647
-9.50544
-9.5132
-9.51212
-9.50907
-9.51005
-9.51875
-9.53735
-9.56697
-9.60752
-9.65781
-9.71585
-9.7791
-9.84476
-9.91006
-9.97242
-10.0296
-10.0799
-10.1219
-10.1547
-10.1776
-10.1903
-10.1925
-10.1843
-10.1656
-10.1364
-10.0967
-10.0465
-9.98581
-9.91449
-9.83242
-9.73942
-9.6353
-9.51982
-9.39271
-9.25372
-9.10255
-8.93892
-8.76258
-8.57328
-8.37084
-8.15513
-7.92611
-7.68382
-7.42842
-7.16021
-6.87961
-6.58721
-6.28375
-5.97016
-5.64752
-5.3171
-4.98034
-4.63885
-4.29436
-3.94877
-3.60405
-3.26228
-2.92556
-2.59605
-2.27589
-1.9672
-1.67206
-1.39252
-1.1306
-0.888388
-0.668075
-0.472102
-0.303125
-0.16368
-0.0554149
0.0219756
0.0715875
0.0992268
0.112043
0.116591
0.117466
0.117105
0.116372
0.115298
0.113598
0.11096
0.107154
0.10207
0.095687
0.0880947
0.0793763
0.0697913
0.0593479
0.0486858
0.0372493
0.0271335
0.0152215
0.00962057
-0.00463146
-9.18809
-9.21479
-9.28471
-9.38072
-9.4466
-9.47786
-9.49212
-9.49673
-9.49517
-9.49312
-9.49578
-9.50619
-9.52586
-9.55528
-9.59405
-9.64092
-9.69411
-9.7515
-9.81081
-9.8698
-9.92635
-9.97855
-10.0248
-10.0637
-10.0943
-10.1157
-10.1275
-10.1293
-10.1208
-10.1021
-10.073
-10.0334
-9.98347
-9.923
-9.85192
-9.77012
-9.67741
-9.5736
-9.45848
-9.33179
-9.19329
-9.0427
-8.87976
-8.70424
-8.51591
-8.3146
-8.10021
-7.87269
-7.63213
-7.37867
-7.11262
-6.8344
-6.5446
-6.24393
-5.93332
-5.61383
-5.28671
-4.95335
-4.61533
-4.27436
-3.93227
-3.59101
-3.2526
-2.91909
-2.5926
-2.2752
-1.96897
-1.67594
-1.39809
-1.13743
-0.895988
-0.675971
-0.479793
-0.310007
-0.168905
-0.0577988
0.0237947
0.0786713
0.111756
0.12911
0.136575
0.138652
0.138118
0.136311
0.133678
0.130234
0.125857
0.120419
0.113862
0.106178
0.097452
0.0877483
0.0773118
0.0661032
0.0547803
0.0426374
0.031973
0.0190392
0.0129293
-0.00365969
-9.19084
-9.22386
-9.28186
-9.35604
-9.41066
-9.43989
-9.4566
-9.46691
-9.47251
-9.4769
-9.48416
-9.49702
-9.51701
-9.54488
-9.58059
-9.62336
-9.67182
-9.7242
-9.77848
-9.83259
-9.88453
-9.93246
-9.97481
-10.0103
-10.0378
-10.0568
-10.0665
-10.0667
-10.057
-10.0374
-10.0077
-9.96783
-9.91768
-9.85715
-9.78612
-9.70444
-9.61193
-9.50839
-9.39361
-9.26734
-9.12935
-8.97937
-8.81716
-8.64249
-8.45517
-8.25503
-8.042
-7.81604
-7.57724
-7.32576
-7.0619
-6.7861
-6.49892
-6.2011
-5.89353
-5.57725
-5.25349
-4.92363
-4.5892
-4.25188
-3.91346
-3.57584
-3.24098
-2.9109
-2.58764
-2.27324
-1.9697
-1.67899
-1.40307
-1.14387
-0.903419
-0.683887
-0.487654
-0.317167
-0.174502
-0.0607165
0.0247666
0.0844303
0.122426
0.143892
0.154063
0.157347
0.156797
0.154153
0.150223
0.145291
0.139405
0.132539
0.124682
0.115844
0.10611
0.0955254
0.0843237
0.072421
0.0604933
0.0476873
0.0365026
0.0225614
0.0159497
-0.0029938
-9.19239
-9.22643
-9.27501
-9.33393
-9.38251
-9.41373
-9.43402
-9.44784
-9.45694
-9.46429
-9.4735
-9.48715
-9.50675
-9.53309
-9.5662
-9.60548
-9.64973
-9.69742
-9.74679
-9.79597
-9.84317
-9.88671
-9.92511
-9.95712
-9.98174
-9.99817
-10.0058
-10.0043
-9.99326
-9.97252
-9.94192
-9.90133
-9.85065
-9.78973
-9.71844
-9.63662
-9.54408
-9.44062
-9.32602
-9.20004
-9.06245
-8.913
-8.75146
-8.57762
-8.39127
-8.1923
-7.98062
-7.75622
-7.51919
-7.26971
-7.00809
-6.73475
-6.45027
-6.15536
-5.85092
-5.53797
-5.21772
-4.89151
-4.56085
-4.22737
-3.89283
-3.55906
-3.22798
-2.90156
-2.58177
-2.27058
-1.96996
-1.6818
-1.40801
-1.15048
-0.91121
-0.692338
-0.49619
-0.3251
-0.180956
-0.0646222
0.0245074
0.0885971
0.131114
0.156403
0.169167
0.173717
0.173329
0.170082
0.165105
0.15892
0.151739
0.143629
0.134631
0.124773
0.114142
0.10277
0.0908801
0.0783469
0.0658644
0.0524344
0.0407545
0.025821
0.0187259
-0.00259667
-9.19235
-9.22538
-9.26756
-9.31647
-9.35961
-9.39046
-9.41196
-9.42763
-9.43933
-9.44944
-9.46081
-9.47566
-9.49534
-9.52058
-9.55148
-9.58759
-9.62793
-9.67119
-9.71584
-9.76024
-9.80277
-9.84189
-9.87623
-9.9046
-9.92601
-9.93968
-9.945
-9.94149
-9.92883
-9.90675
-9.87506
-9.83359
-9.78219
-9.72071
-9.649
-9.56688
-9.47416
-9.37063
-9.25609
-9.13029
-8.993
-8.844
-8.68305
-8.50997
-8.32457
-8.12674
-7.9164
-7.69357
-7.45834
-7.21091
-6.95157
-6.68078
-6.39909
-6.10722
-5.80605
-5.49658
-5.18
-4.85762
-4.53092
-4.20149
-3.87102
-3.54131
-3.21423
-2.89167
-2.57555
-2.26778
-1.97025
-1.68483
-1.41336
-1.15769
-0.919778
-0.701725
-0.505793
-0.3342
-0.188673
-0.0699343
0.0226014
0.0907897
0.1375
0.166396
0.181709
0.187634
0.187618
0.184024
0.17826
0.171069
0.162811
0.153648
0.143671
0.13293
0.121517
0.109454
0.0969556
0.0838586
0.0708732
0.0568623
0.0447151
0.0288104
0.0212651
-0.00246097
-9.19103
-9.2224
-9.25981
-9.30143
-9.33956
-9.36915
-9.39129
-9.40846
-9.42227
-9.43458
-9.44764
-9.46333
-9.48289
-9.50699
-9.5358
-9.56897
-9.60569
-9.64486
-9.68512
-9.72503
-9.76311
-9.79797
-9.82833
-9.85305
-9.87118
-9.88195
-9.88473
-9.87904
-9.8645
-9.84083
-9.8078
-9.76521
-9.71288
-9.65065
-9.57833
-9.49574
-9.40269
-9.29897
-9.18436
-9.05864
-8.92157
-8.77295
-8.61255
-8.44019
-8.25571
-8.05901
-7.85003
-7.6288
-7.39542
-7.1501
-6.89314
-6.62498
-6.34619
-6.05749
-5.75972
-5.45388
-5.14113
-4.82275
-4.50018
-4.17495
-3.84874
-3.52326
-3.20033
-2.8818
-2.5695
-2.26531
-1.97104
-1.68851
-1.41951
-1.16586
-0.929462
-0.712373
-0.516781
-0.344786
-0.197979
-0.0769886
0.0187183
0.0907052
0.141328
0.173669
0.191534
0.198979
0.199566
0.195894
0.189616
0.181672
0.172563
0.162543
0.151754
0.140272
0.128196
0.115542
0.102519
0.0889276
0.0754946
0.0609498
0.0483674
0.0315197
0.0235703
-0.00258276
-9.18868
-9.21817
-9.25174
-9.2879
-9.32182
-9.34985
-9.37213
-9.39024
-9.40549
-9.41936
-9.43365
-9.4499
-9.46922
-9.49222
-9.51907
-9.54951
-9.58288
-9.61821
-9.65435
-9.69
-9.72384
-9.7546
-9.78107
-9.80221
-9.81708
-9.82492
-9.82511
-9.81715
-9.80063
-9.77525
-9.74073
-9.69687
-9.64345
-9.58031
-9.50724
-9.42405
-9.33054
-9.2265
-9.11173
-8.98599
-8.84907
-8.70076
-8.54086
-8.3692
-8.18563
-7.99007
-7.78247
-7.56287
-7.33138
-7.08822
-6.8337
-6.56827
-6.29248
-6.00704
-5.71278
-5.41069
-5.10188
-4.78763
-4.4693
-4.14842
-3.82657
-3.50545
-3.1868
-2.87241
-2.56406
-2.26356
-1.97267
-1.69316
-1.42677
-1.17527
-0.940528
-0.724539
-0.529405
-0.357115
-0.209143
-0.0860567
0.0125968
0.0881135
0.142412
0.178084
0.19854
0.207677
0.209116
0.205645
0.199128
0.190687
0.180956
0.170277
0.158846
0.146767
0.134151
0.121008
0.107545
0.0935323
0.079709
0.0646811
0.0516987
0.0339432
0.0256463
-0.0029548
-9.18546
-9.21305
-9.24343
-9.27539
-9.30584
-9.33219
-9.35418
-9.37274
-9.3889
-9.40383
-9.41895
-9.43552
-9.45446
-9.47634
-9.50132
-9.52919
-9.5594
-9.59113
-9.62337
-9.65498
-9.68476
-9.71156
-9.73426
-9.75188
-9.76352
-9.76845
-9.76603
-9.75576
-9.7372
-9.71004
-9.67397
-9.62876
-9.57419
-9.51006
-9.43616
-9.35229
-9.25826
-9.15385
-9.03885
-8.91305
-8.77624
-8.62822
-8.4688
-8.29782
-8.11516
-7.92074
-7.71454
-7.49659
-7.26704
-7.02609
-6.77407
-6.51143
-6.2387
-5.9566
-5.66593
-5.36767
-5.0629
-4.75284
-4.43885
-4.12239
-3.805
-3.48832
-3.17403
-2.86386
-2.55955
-2.26283
-1.97542
-1.69904
-1.43537
-1.18614
-0.953181
-0.738416
-0.54386
-0.371388
-0.222375
-0.0973581
0.00402646
0.0828321
0.14061
0.179533
0.202652
0.213673
0.216226
0.213242
0.206766
0.198086
0.187962
0.176824
0.164922
0.152391
0.139356
0.12583
0.112014
0.0976537
0.0834997
0.068043
0.0546989
0.0360776
0.0274979
-0.00356834
-9.18146
-9.20722
-9.23491
-9.26355
-9.29111
-9.31579
-9.33719
-9.35583
-9.37246
-9.38803
-9.40362
-9.42025
-9.43869
-9.45941
-9.48256
-9.50799
-9.53522
-9.56356
-9.59211
-9.61986
-9.64576
-9.66874
-9.68778
-9.70195
-9.71041
-9.71244
-9.7074
-9.6948
-9.67418
-9.64519
-9.60753
-9.56094
-9.50517
-9.44001
-9.36526
-9.28069
-9.18611
-9.08131
-8.96608
-8.84021
-8.7035
-8.55576
-8.39683
-8.22656
-8.04483
-7.85158
-7.6468
-7.43055
-7.20297
-6.96428
-6.71481
-6.45499
-6.18539
-5.90668
-5.61967
-5.32528
-5.0246
-4.71881
-4.40922
-4.09723
-3.78436
-3.47217
-3.16231
-2.85643
-2.55621
-2.26334
-1.97949
-1.70632
-1.44547
-1.19863
-0.967567
-0.754148
-0.560288
-0.387757
-0.23784
-0.111062
-0.00715553
0.0747202
0.13581
0.177934
0.203807
0.216919
0.22086
0.218655
0.212503
0.203843
0.193556
0.182158
0.169957
0.157121
0.143792
0.129987
0.115906
0.101275
0.0868516
0.071024
0.0573596
0.0379216
0.0291292
-0.00441247
-9.17673
-9.20078
-9.22617
-9.25211
-9.27724
-9.30032
-9.32093
-9.33936
-9.35613
-9.37197
-9.38772
-9.40417
-9.42196
-9.44148
-9.46285
-9.48593
-9.51034
-9.53546
-9.56051
-9.5846
-9.60677
-9.62608
-9.64157
-9.65238
-9.65771
-9.65686
-9.64921
-9.63426
-9.61156
-9.58073
-9.54145
-9.49344
-9.43646
-9.37026
-9.29463
-9.20936
-9.11423
-9.00904
-8.89358
-8.76766
-8.63108
-8.48366
-8.32524
-8.1557
-7.97494
-7.7829
-7.57959
-7.36508
-7.13952
-6.90313
-6.65626
-6.39934
-6.1329
-5.85763
-5.57432
-5.28387
-4.98732
-4.68583
-4.38068
-4.07321
-3.76489
-3.45724
-3.15184
-2.85029
-2.55422
-2.26527
-1.98504
-1.71515
-1.4572
-1.21285
-0.983794
-0.771835
-0.578791
-0.406327
-0.255654
-0.127291
-0.0210662
0.0636776
0.127934
0.173225
0.201956
0.217376
0.222983
0.221855
0.216315
0.207936
0.197716
0.186259
0.173931
0.160937
0.147439
0.133461
0.119206
0.104382
0.0897517
0.0736142
0.0596738
0.0394754
0.0305437
-0.00547522
-9.17131
-9.19378
-9.21717
-9.24086
-9.26393
-9.2855
-9.30522
-9.3232
-9.33983
-9.35564
-9.37128
-9.38735
-9.40436
-9.42262
-9.44223
-9.46306
-9.48477
-9.50683
-9.52856
-9.54916
-9.56778
-9.58355
-9.59561
-9.60314
-9.60541
-9.60172
-9.59149
-9.5742
-9.5494
-9.51671
-9.47579
-9.42636
-9.36814
-9.30089
-9.22439
-9.13841
-9.04274
-8.93718
-8.82152
-8.69557
-8.55915
-8.41208
-8.25423
-8.08547
-7.90572
-7.71494
-7.51315
-7.30043
-7.07694
-6.84292
-6.59869
-6.3447
-6.08149
-5.8097
-5.53012
-5.24364
-4.95127
-4.65412
-4.35343
-4.05051
-3.74678
-3.44369
-3.14278
-2.8456
-2.55372
-2.26872
-1.99216
-1.72562
-1.47066
-1.22888
-1.00193
-0.791543
-0.599434
-0.42717
-0.275892
-0.146124
-0.0377797
0.0496426
0.116934
0.165366
0.197059
0.215003
0.222561
0.222813
0.218174
0.210341
0.200423
0.189109
0.176826
0.163822
0.15028
0.136238
0.121898
0.10696
0.0921884
0.0758056
0.061636
0.0407415
0.0317449
-0.00674178
-9.16523
-9.18624
-9.20787
-9.22966
-9.25094
-9.2711
-9.28986
-9.30724
-9.3235
-9.33904
-9.35433
-9.36984
-9.38595
-9.4029
-9.42077
-9.43942
-9.45856
-9.47771
-9.49628
-9.51356
-9.52879
-9.54117
-9.54992
-9.55428
-9.55354
-9.54707
-9.53428
-9.51467
-9.48779
-9.45324
-9.41068
-9.35981
-9.30035
-9.23205
-9.15468
-9.068
-8.97181
-8.86589
-8.75006
-8.62411
-8.48788
-8.34121
-8.18397
-8.01604
-7.83735
-7.64789
-7.44768
-7.23681
-7.01545
-6.78383
-6.54231
-6.2913
-6.03134
-5.76308
-5.48728
-5.2048
-4.91663
-4.62385
-4.32764
-4.0293
-3.73016
-3.43166
-3.13526
-2.84247
-2.55481
-2.2738
-2.00096
-1.73783
-1.48592
-1.24678
-1.02203
-0.813313
-0.622252
-0.450319
-0.298593
-0.1676
-0.0573297
0.0325905
0.102791
0.154338
0.189089
0.209768
0.219557
0.221494
0.218053
0.211035
0.201654
0.190687
0.178625
0.165759
0.152301
0.138302
0.123969
0.108999
0.0941524
0.0775919
0.0632427
0.0417238
0.0327358
-0.008196
-9.15851
-9.17818
-9.19826
-9.21839
-9.2381
-9.25695
-9.27471
-9.29137
-9.30709
-9.32216
-9.33691
-9.3517
-9.3668
-9.38241
-9.39854
-9.41508
-9.43175
-9.44814
-9.46371
-9.47784
-9.48983
-9.49897
-9.50453
-9.50583
-9.50218
-9.49299
-9.47769
-9.45579
-9.42683
-9.39043
-9.34624
-9.29394
-9.23324
-9.1639
-9.08566
-8.9983
-8.9016
-8.79535
-8.67937
-8.55347
-8.41748
-8.27125
-8.11466
-7.94761
-7.77004
-7.58195
-7.38337
-7.1744
-6.95522
-6.72607
-6.48729
-6.2393
-5.98265
-5.71795
-5.44596
-5.16751
-4.88356
-4.59516
-4.30346
-4.00969
-3.71517
-3.42127
-3.1294
-2.84101
-2.55758
-2.28059
-2.01151
-1.75182
-1.50301
-1.2666
-1.04412
-0.837162
-0.647257
-0.475783
-0.323761
-0.19172
-0.0797126
0.0125314
0.0855171
0.140145
0.178036
0.201642
0.213934
0.217859
0.215915
0.209987
0.201385
0.190973
0.17931
0.166734
0.153487
0.139641
0.125409
0.110489
0.0956358
0.0789688
0.0644919
0.0424286
0.0335201
-0.00981819
-9.15119
-9.16962
-9.18832
-9.20698
-9.22529
-9.24291
-9.25967
-9.27552
-9.29056
-9.30499
-9.31905
-9.33299
-9.34701
-9.36123
-9.37564
-9.39013
-9.40444
-9.41819
-9.43092
-9.44204
-9.45096
-9.457
-9.45952
-9.45787
-9.45141
-9.43957
-9.42182
-9.39767
-9.36668
-9.32845
-9.28263
-9.22891
-9.16699
-9.09661
-9.01752
-8.92949
-8.83231
-8.72577
-8.60967
-8.48385
-8.34813
-8.20239
-8.0465
-7.88038
-7.70399
-7.51732
-7.32042
-7.11341
-6.89645
-6.66981
-6.43382
-6.1889
-5.93558
-5.67448
-5.40632
-5.13192
-4.85221
-4.5682
-4.28101
-3.99183
-3.70193
-3.41262
-3.12527
-2.8413
-2.56212
-2.28916
-2.02386
-1.76765
-1.522
-1.28835
-1.06822
-0.863091
-0.674437
-0.503542
-0.351371
-0.218452
-0.104889
-0.0104901
0.0651557
0.122816
0.163904
0.190605
0.205654
0.211865
0.21172
0.20716
0.199585
0.189942
0.17886
0.166728
0.153823
0.140243
0.126207
0.111421
0.096632
0.0799329
0.0653832
0.0428635
0.0341014
-0.0115869
-9.14332
-9.16061
-9.17804
-9.1954
-9.21243
-9.22889
-9.24464
-9.25962
-9.27389
-9.28756
-9.30081
-9.3138
-9.32666
-9.33946
-9.35217
-9.36467
-9.37671
-9.38796
-9.39798
-9.40626
-9.41225
-9.41536
-9.41496
-9.41048
-9.40131
-9.38692
-9.36679
-9.34044
-9.30746
-9.26743
-9.22002
-9.1649
-9.10178
-9.03039
-8.95047
-8.8618
-8.76416
-8.65735
-8.54118
-8.41547
-8.28007
-8.13486
-7.97972
-7.81458
-7.63941
-7.45421
-7.25905
-7.05403
-6.83935
-6.61526
-6.3821
-6.14028
-5.89033
-5.63284
-5.36853
-5.09819
-4.82272
-4.54311
-4.26043
-3.97583
-3.69053
-3.40581
-3.12299
-2.84343
-2.56849
-2.29957
-2.03806
-1.78537
-1.54289
-1.31205
-1.09431
-0.891083
-0.703761
-0.533553
-0.38137
-0.247734
-0.132787
-0.0363963
0.0417802
0.102408
0.14672
0.176651
0.194684
0.203465
0.205416
0.20251
0.196217
0.187564
0.177251
0.165723
0.153295
0.140094
0.126351
0.111787
0.0971358
0.0804827
0.0659177
0.0430385
0.0344848
-0.0134765
-9.13495
-9.15117
-9.16745
-9.18361
-9.19947
-9.21483
-9.22957
-9.24364
-9.25706
-9.26988
-9.28222
-9.29418
-9.30584
-9.3172
-9.32824
-9.3388
-9.34867
-9.35753
-9.36499
-9.37058
-9.3738
-9.37411
-9.37095
-9.36376
-9.352
-9.33515
-9.31272
-9.28425
-9.24932
-9.20755
-9.15858
-9.1021
-9.0378
-8.96543
-8.88471
-8.79543
-8.69737
-8.59032
-8.47411
-8.34855
-8.21352
-8.06888
-7.91454
-7.75043
-7.57653
-7.39285
-7.19946
-6.99649
-6.78413
-6.56262
-6.33232
-6.09363
-5.84706
-5.59321
-5.33275
-5.06648
-4.79525
-4.52002
-4.24184
-3.96181
-3.6811
-3.40095
-3.12264
-2.84747
-2.57677
-2.31188
-2.05417
-1.80499
-1.5657
-1.33771
-1.12238
-0.921105
-0.735182
-0.565752
-0.413678
-0.279471
-0.1633
-0.0650764
0.0154972
0.0790086
0.12654
0.159796
0.181004
0.192614
0.196951
0.195984
0.191233
0.1838
0.174452
0.163693
0.151883
0.13918
0.125832
0.11158
0.0971418
0.0806168
0.0660973
0.042964
0.0346758
-0.0154587
-9.12613
-9.14136
-9.15657
-9.17163
-9.18639
-9.2007
-9.21445
-9.22758
-9.24009
-9.252
-9.26336
-9.27423
-9.28464
-9.29457
-9.30396
-9.31265
-9.32044
-9.32703
-9.33205
-9.3351
-9.3357
-9.33337
-9.32758
-9.31782
-9.30359
-9.28438
-9.25974
-9.22922
-9.19242
-9.14896
-9.09848
-9.04068
-8.97525
-8.90193
-8.82046
-8.7306
-8.63215
-8.52491
-8.40869
-8.28334
-8.14871
-8.00469
-7.85119
-7.68816
-7.51557
-7.33346
-7.14189
-6.94101
-6.73099
-6.5121
-6.28468
-6.04914
-5.80597
-5.55575
-5.29916
-5.03694
-4.76994
-4.49909
-4.22538
-3.94988
-3.67374
-3.39814
-3.1243
-2.85349
-2.58701
-2.32614
-2.07221
-1.82654
-1.59045
-1.3653
-1.15241
-0.95311
-0.768633
-0.600054
-0.448191
-0.313543
-0.196295
-0.0963869
-0.013553
0.0527399
0.103451
0.140081
0.164611
0.179276
0.18627
0.187522
0.184579
0.178602
0.170423
0.160609
0.149562
0.137482
0.124634
0.110788
0.0966443
0.0803337
0.0659248
0.0426523
0.0346817
-0.0175
-9.11694
-9.13122
-9.14544
-9.15947
-9.17319
-9.18649
-9.19926
-9.21144
-9.223
-9.23395
-9.24429
-9.25403
-9.26318
-9.27168
-9.27945
-9.28633
-9.29213
-9.29656