/*--------------------------------*- C++ -*----------------------------------*\
| =========                 |                                                 |
| \\      /  F ield         | OpenFOAM: The Open Source CFD Toolbox           |
|  \\    /   O peration     | Version:  4.1                                   |
|   \\  /    A nd           | Web:      www.OpenFOAM.org                      |
|    \\/     M anipulation  |                                                 |
\*---------------------------------------------------------------------------*/
FoamFile
{
    version     2.0;
    format      ascii;
    class       surfaceScalarField;
    location    "500";
    object      phi;
}
// * * * * * * * * * * * * * * * * * * * * * * * * * * * * * * * * * * * * * //

dimensions      [0 3 -1 0 0 0 0];

internalField   nonuniform List<scalar> 
13452
(
6.28704e-05
-2.60189e-06
6.37403e-05
-8.69985e-07
6.46286e-05
-8.88304e-07
6.41051e-05
5.23529e-07
6.28899e-05
1.21523e-06
6.15447e-05
1.34515e-06
6.02728e-05
1.27191e-06
5.91144e-05
1.15846e-06
5.80693e-05
1.04511e-06
5.71291e-05
9.4013e-07
5.62825e-05
8.46582e-07
5.55175e-05
7.65096e-07
5.4823e-05
6.94446e-07
5.41902e-05
6.32842e-07
5.36114e-05
5.78735e-07
5.30805e-05
5.30926e-07
5.25921e-05
4.88452e-07
5.21415e-05
4.50521e-07
5.1725e-05
4.16486e-07
5.13392e-05
3.85822e-07
5.09811e-05
3.58099e-07
5.06482e-05
3.32965e-07
5.0338e-05
3.10127e-07
5.00487e-05
2.8935e-07
4.97782e-05
2.70452e-07
4.95249e-05
2.53303e-07
4.92871e-05
2.37844e-07
4.9063e-05
2.24076e-07
4.88508e-05
2.12256e-07
4.86485e-05
2.02252e-07
4.84529e-05
1.95621e-07
4.82686e-05
1.84278e-07
1.72154e-07
4.80964e-05
6.30682e-05
-3.67972e-06
6.27994e-05
-6.0121e-07
6.21233e-05
-2.12236e-07
6.23359e-05
3.10906e-07
6.27936e-05
7.5758e-07
6.3193e-05
9.45746e-07
6.34612e-05
1.00366e-06
6.36059e-05
1.01376e-06
6.36528e-05
9.98242e-07
6.36276e-05
9.65308e-07
6.35512e-05
9.23024e-07
6.34388e-05
8.77482e-07
6.33015e-05
8.31751e-07
6.31472e-05
7.87122e-07
6.29817e-05
7.44241e-07
6.28092e-05
7.03478e-07
6.26326e-05
6.64986e-07
6.24544e-05
6.28769e-07
6.22761e-05
5.9476e-07
6.20991e-05
5.62863e-07
6.19242e-05
5.32966e-07
6.17522e-05
5.04957e-07
6.15836e-05
4.7873e-07
6.14188e-05
4.5419e-07
6.1258e-05
4.31264e-07
6.11014e-05
4.09903e-07
6.09491e-05
3.90116e-07
6.08013e-05
3.71899e-07
6.0658e-05
3.55522e-07
6.05197e-05
3.40508e-07
6.03867e-05
3.28629e-07
6.02573e-05
3.13704e-07
3.22439e-07
6.0107e-05
6.23306e-05
-2.24888e-06
6.26619e-05
-9.32575e-07
6.281e-05
-3.60334e-07
6.30955e-05
2.54761e-08
6.34246e-05
4.28403e-07
6.37127e-05
6.57695e-07
6.39518e-05
7.6455e-07
6.41454e-05
8.20202e-07
6.42967e-05
8.46911e-07
6.4411e-05
8.50958e-07
6.44945e-05
8.39563e-07
6.45526e-05
8.19333e-07
6.45902e-05
7.94225e-07
6.46109e-05
7.66354e-07
6.46181e-05
7.37079e-07
6.46142e-05
7.07362e-07
6.46014e-05
6.77839e-07
6.45812e-05
6.48897e-07
6.45552e-05
6.20777e-07
6.45245e-05
5.93625e-07
6.44899e-05
5.6753e-07
6.44523e-05
5.4254e-07
6.44124e-05
5.1868e-07
6.43706e-05
4.95964e-07
6.43274e-05
4.74411e-07
6.42833e-05
4.5405e-07
6.42385e-05
4.34948e-07
6.41932e-05
4.17164e-07
6.41478e-05
4.00952e-07
6.41021e-05
3.86147e-07
6.40567e-05
3.74055e-07
6.40076e-05
3.62787e-07
3.65219e-07
6.39648e-05
6.47767e-05
-1.44248e-06
6.47349e-05
-8.90785e-07
6.47849e-05
-4.10398e-07
6.48932e-05
-8.2744e-08
6.5057e-05
2.64518e-07
6.52216e-05
4.93159e-07
6.53728e-05
6.13301e-07
6.55097e-05
6.83305e-07
6.5631e-05
7.25625e-07
6.57363e-05
7.45726e-07
6.58263e-05
7.49539e-07
6.59026e-05
7.43043e-07
6.59667e-05
7.3006e-07
6.60203e-05
7.12773e-07
6.60647e-05
6.9267e-07
6.61012e-05
6.70865e-07
6.61309e-05
6.48147e-07
6.61548e-05
6.25048e-07
6.61736e-05
6.01938e-07
6.61881e-05
5.79079e-07
6.6199e-05
5.56657e-07
6.62068e-05
5.34805e-07
6.62118e-05
5.13621e-07
6.62146e-05
4.93182e-07
6.62154e-05
4.73561e-07
6.62147e-05
4.5483e-07
6.62125e-05
4.37089e-07
6.62092e-05
4.20438e-07
6.62051e-05
4.05097e-07
6.62001e-05
3.91121e-07
6.61948e-05
3.79398e-07
6.61879e-05
3.69631e-07
3.67337e-07
6.61858e-05
6.70079e-05
-9.93583e-07
6.68589e-05
-7.41825e-07
6.68315e-05
-3.82949e-07
6.68579e-05
-1.09137e-07
6.69423e-05
1.80109e-07
6.70459e-05
3.89563e-07
6.71482e-05
5.11011e-07
6.72453e-05
5.86133e-07
6.73361e-05
6.34826e-07
6.74194e-05
6.6248e-07
6.74947e-05
6.74251e-07
6.75623e-05
6.75417e-07
6.76228e-05
6.69515e-07
6.76769e-05
6.58671e-07
6.77252e-05
6.44374e-07
6.77684e-05
6.27757e-07
6.78069e-05
6.09646e-07
6.78413e-05
5.90624e-07
6.78721e-05
5.71115e-07
6.78997e-05
5.51428e-07
6.79246e-05
5.31796e-07
6.7947e-05
5.12393e-07
6.79673e-05
4.93354e-07
6.79857e-05
4.74787e-07
6.80025e-05
4.56792e-07
6.80178e-05
4.39462e-07
6.8032e-05
4.22904e-07
6.80452e-05
4.07231e-07
6.80577e-05
3.92622e-07
6.80696e-05
3.79205e-07
6.80815e-05
3.67522e-07
6.80935e-05
3.57616e-07
3.51461e-07
6.81094e-05
6.90833e-05
-6.92882e-07
6.89334e-05
-5.91855e-07
6.88863e-05
-3.3591e-07
6.88866e-05
-1.09394e-07
6.89341e-05
1.3256e-07
6.9004e-05
3.19664e-07
6.90773e-05
4.377e-07
6.91492e-05
5.14289e-07
6.92184e-05
5.65592e-07
6.92839e-05
5.97005e-07
6.93449e-05
6.13227e-07
6.94014e-05
6.18914e-07
6.94536e-05
6.17317e-07
6.95018e-05
6.10497e-07
6.95462e-05
5.99919e-07
6.95873e-05
5.86702e-07
6.96253e-05
5.71671e-07
6.96605e-05
5.55428e-07
6.96932e-05
5.38415e-07
6.97236e-05
5.20964e-07
6.97521e-05
5.03328e-07
6.97788e-05
4.85701e-07
6.98039e-05
4.68234e-07
6.98276e-05
4.51051e-07
6.98502e-05
4.34259e-07
6.98717e-05
4.17958e-07
6.98923e-05
4.02248e-07
6.99123e-05
3.87231e-07
6.99319e-05
3.73037e-07
6.99514e-05
3.59774e-07
6.99712e-05
3.47707e-07
6.9992e-05
3.36809e-07
3.275e-07
7.00159e-05
7.11508e-05
-4.77366e-07
7.10202e-05
-4.61261e-07
7.09675e-05
-2.83232e-07
7.09559e-05
-9.77335e-08
7.09832e-05
1.05256e-07
7.10324e-05
2.70474e-07
7.10877e-05
3.82363e-07
7.11438e-05
4.5817e-07
7.11993e-05
5.1017e-07
7.12528e-05
5.43467e-07
7.13037e-05
5.62358e-07
7.13516e-05
5.70938e-07
7.13968e-05
5.72178e-07
7.14392e-05
5.68059e-07
7.14791e-05
5.60019e-07
7.15167e-05
5.49151e-07
7.15521e-05
5.36271e-07
7.15855e-05
5.21985e-07
7.16172e-05
5.06744e-07
7.16473e-05
4.90891e-07
7.16759e-05
4.74689e-07
7.17033e-05
4.5834e-07
7.17295e-05
4.42004e-07
7.17547e-05
4.25811e-07
7.17791e-05
4.09867e-07
7.18028e-05
3.94267e-07
7.1826e-05
3.79098e-07
7.18488e-05
3.64437e-07
7.18714e-05
3.50365e-07
7.18943e-05
3.3693e-07
7.19178e-05
3.24203e-07
7.19425e-05
3.12038e-07
3.00255e-07
7.19698e-05
7.32508e-05
-3.2287e-07
7.31392e-05
-3.49638e-07
7.30845e-05
-2.28532e-07
7.30657e-05
-7.89539e-08
7.30804e-05
9.05477e-08
7.31158e-05
2.35039e-07
7.31591e-05
3.39042e-07
7.32049e-05
4.12386e-07
7.32513e-05
4.63845e-07
7.32968e-05
4.97907e-07
7.33408e-05
5.18415e-07
7.33828e-05
5.28941e-07
7.34228e-05
5.32174e-07
7.34608e-05
5.3e-07
7.3497e-05
5.23811e-07
7.35315e-05
5.14671e-07
7.35644e-05
5.03384e-07
7.35958e-05
4.90552e-07
7.36259e-05
4.76629e-07
7.36549e-05
4.61965e-07
7.36827e-05
4.46827e-07
7.37096e-05
4.31422e-07
7.37357e-05
4.15913e-07
7.37611e-05
4.00428e-07
7.37859e-05
3.85072e-07
7.38102e-05
3.69931e-07
7.38343e-05
3.55072e-07
7.38582e-05
3.40547e-07
7.38821e-05
3.2639e-07
7.39065e-05
3.12592e-07
7.39316e-05
2.99102e-07
7.39579e-05
2.85703e-07
2.72034e-07
7.39861e-05
7.5393e-05
-2.13437e-07
7.52991e-05
-2.5566e-07
7.52451e-05
-1.74567e-07
7.5222e-05
-5.58489e-08
7.52281e-05
8.44421e-08
7.52536e-05
2.09526e-07
7.52881e-05
3.04544e-07
7.53264e-05
3.74107e-07
7.53662e-05
4.24051e-07
7.5406e-05
4.58048e-07
7.5445e-05
4.79413e-07
7.54828e-05
4.91222e-07
7.55191e-05
4.95881e-07
7.55539e-05
4.95154e-07
7.55873e-05
4.90374e-07
7.56194e-05
4.82566e-07
7.56503e-05
4.72514e-07
7.568e-05
4.60812e-07
7.57088e-05
4.47916e-07
7.57366e-05
4.34175e-07
7.57635e-05
4.19858e-07
7.57898e-05
4.05174e-07
7.58154e-05
3.90286e-07
7.58405e-05
3.75321e-07
7.58652e-05
3.60376e-07
7.58896e-05
3.45526e-07
7.59139e-05
3.30823e-07
7.59381e-05
3.16294e-07
7.59626e-05
3.01937e-07
7.59875e-05
2.877e-07
7.60131e-05
2.73472e-07
7.60398e-05
2.59015e-07
2.43959e-07
7.60678e-05
7.75831e-05
-1.36924e-07
7.75059e-05
-1.78518e-07
7.74552e-05
-1.23886e-07
7.743e-05
-3.05751e-08
7.743e-05
8.44586e-08
7.74479e-05
1.91582e-07
7.74754e-05
2.76996e-07
7.75078e-05
3.41767e-07
7.75425e-05
3.89374e-07
7.75779e-05
4.22602e-07
7.76131e-05
4.44194e-07
7.76476e-05
4.5675e-07
7.76811e-05
4.62389e-07
7.77135e-05
4.62731e-07
7.77449e-05
4.59032e-07
7.77752e-05
4.52269e-07
7.78045e-05
4.43199e-07
7.78329e-05
4.32404e-07
7.78605e-05
4.20332e-07
7.78873e-05
4.07331e-07
7.79135e-05
3.93669e-07
7.79391e-05
3.79555e-07
7.79642e-05
3.65149e-07
7.7989e-05
3.50574e-07
7.80135e-05
3.35921e-07
7.80377e-05
3.21256e-07
7.80619e-05
3.06615e-07
7.80862e-05
2.92008e-07
7.81107e-05
2.77408e-07
7.81357e-05
2.62742e-07
7.81613e-05
2.47876e-07
7.81877e-05
2.32587e-07
2.1656e-07
7.82151e-05
7.98256e-05
-8.42128e-08
7.97641e-05
-1.16987e-07
7.97187e-05
-7.84698e-08
7.96931e-05
-5.0471e-09
7.96889e-05
8.86539e-08
7.9701e-05
1.79471e-07
7.97229e-05
2.551e-07
7.97503e-05
3.14366e-07
7.97808e-05
3.58957e-07
7.98126e-05
3.90803e-07
7.98447e-05
4.1207e-07
7.98765e-05
4.24905e-07
7.99078e-05
4.31136e-07
7.99383e-05
4.32227e-07
7.9968e-05
4.29338e-07
7.99969e-05
4.2339e-07
8.0025e-05
4.15103e-07
8.00523e-05
4.05041e-07
8.0079e-05
3.93641e-07
8.01051e-05
3.81245e-07
8.01306e-05
3.68118e-07
8.01557e-05
3.54465e-07
8.01804e-05
3.40443e-07
8.02048e-05
3.26171e-07
8.0229e-05
3.11735e-07
8.02531e-05
2.9719e-07
8.02771e-05
2.82564e-07
8.03013e-05
2.67854e-07
8.03257e-05
2.53021e-07
8.03504e-05
2.37985e-07
8.03757e-05
2.22616e-07
8.04016e-05
2.06726e-07
1.90071e-07
8.04281e-05
8.21247e-05
-4.84921e-08
8.2077e-05
-6.92975e-08
8.20381e-05
-3.95596e-08
8.2014e-05
1.90646e-08
8.20074e-05
9.53026e-08
8.20151e-05
1.71702e-07
8.20325e-05
2.3778e-07
8.20557e-05
2.91138e-07
8.20824e-05
3.32198e-07
8.21111e-05
3.62147e-07
8.21406e-05
3.82606e-07
8.21702e-05
3.953e-07
8.21995e-05
4.01775e-07
8.22284e-05
4.03326e-07
8.22568e-05
4.01007e-07
8.22845e-05
3.95671e-07
8.23116e-05
3.87998e-07
8.23381e-05
3.78524e-07
8.23641e-05
3.67672e-07
8.23895e-05
3.55774e-07
8.24146e-05
3.43088e-07
8.24392e-05
3.29815e-07
8.24636e-05
3.16108e-07
8.24876e-05
3.02081e-07
8.25116e-05
2.87813e-07
8.25354e-05
2.73356e-07
8.25592e-05
2.58729e-07
8.25832e-05
2.43924e-07
8.26073e-05
2.289e-07
8.26317e-05
2.13582e-07
8.26565e-05
1.97857e-07
8.26816e-05
1.81578e-07
1.64572e-07
8.27071e-05
8.4484e-05
-2.4702e-08
8.44481e-05
-3.33796e-08
8.44161e-05
-7.64188e-09
8.43947e-05
4.04696e-08
8.43872e-05
1.02879e-07
8.4392e-05
1.66911e-07
8.44057e-05
2.24037e-07
8.44254e-05
2.71391e-07
8.44491e-05
3.08593e-07
8.4475e-05
3.36243e-07
8.45021e-05
3.55486e-07
8.45297e-05
3.67669e-07
8.45574e-05
3.74074e-07
8.45849e-05
3.7582e-07
8.46121e-05
3.73851e-07
8.46388e-05
3.68944e-07
8.46651e-05
3.61731e-07
8.46909e-05
3.52718e-07
8.47162e-05
3.42307e-07
8.47412e-05
3.30816e-07
8.47658e-05
3.18497e-07
8.47901e-05
3.05541e-07
8.48141e-05
2.92098e-07
8.48379e-05
2.78276e-07
8.48615e-05
2.64151e-07
8.48851e-05
2.49769e-07
8.49087e-05
2.35149e-07
8.49323e-05
2.2028e-07
8.49561e-05
2.05127e-07
8.49801e-05
1.89626e-07
8.50042e-05
1.73687e-07
8.50286e-05
1.57205e-07
1.40068e-07
8.50531e-05
8.69066e-05
-9.1471e-09
8.68803e-05
-7.109e-09
8.68553e-05
1.74323e-08
8.68374e-05
5.83506e-08
8.68301e-05
1.10134e-07
8.68332e-05
1.63871e-07
8.68443e-05
2.12917e-07
8.68612e-05
2.54447e-07
8.68822e-05
2.87659e-07
8.69057e-05
3.12735e-07
8.69307e-05
3.30443e-07
8.69566e-05
3.41805e-07
8.69828e-05
3.47861e-07
8.70091e-05
3.49563e-07
8.70352e-05
3.47742e-07
8.7061e-05
3.43096e-07
8.70865e-05
3.36203e-07
8.71117e-05
3.27534e-07
8.71366e-05
3.17469e-07
8.71611e-05
3.06308e-07
8.71853e-05
2.94291e-07
8.72092e-05
2.81603e-07
8.72329e-05
2.68386e-07
8.72565e-05
2.54745e-07
8.72799e-05
2.40751e-07
8.73032e-05
2.26449e-07
8.73265e-05
2.11858e-07
8.73498e-05
1.96971e-07
8.73731e-05
1.81759e-07
8.73966e-05
1.66174e-07
8.74201e-05
1.50152e-07
8.74437e-05
1.33625e-07
1.1653e-07
8.74672e-05
8.93956e-05
8.12429e-10
8.9377e-05
1.15089e-08
8.93581e-05
3.6262e-08
8.93441e-05
7.23628e-08
8.93381e-05
1.1616e-07
8.93404e-05
1.61546e-07
8.93498e-05
2.03539e-07
8.93646e-05
2.39641e-07
8.93834e-05
2.68908e-07
8.94048e-05
2.91273e-07
8.9428e-05
3.07222e-07
8.94523e-05
3.17516e-07
8.94772e-05
3.22988e-07
8.95023e-05
3.24438e-07
8.95275e-05
3.22583e-07
8.95525e-05
3.18044e-07
8.95774e-05
3.11344e-07
8.9602e-05
3.02915e-07
8.96264e-05
2.93109e-07
8.96505e-05
2.82209e-07
8.96743e-05
2.70441e-07
8.96979e-05
2.5798e-07
8.97214e-05
2.44963e-07
8.97446e-05
2.31488e-07
8.97678e-05
2.17625e-07
8.97908e-05
2.03419e-07
8.98138e-05
1.88889e-07
8.98367e-05
1.74035e-07
8.98596e-05
1.58837e-07
8.98825e-05
1.43264e-07
8.99054e-05
1.27276e-07
8.99282e-05
1.10834e-07
9.39184e-08
8.99508e-05
9.19536e-05
7.02275e-09
9.19409e-05
2.42298e-08
9.19275e-05
4.97016e-08
9.19173e-05
8.25576e-08
9.1913e-05
1.2041e-07
9.19154e-05
1.59144e-07
9.19238e-05
1.95139e-07
9.19371e-05
2.26348e-07
9.19542e-05
2.51861e-07
9.1974e-05
2.71499e-07
9.19956e-05
2.85561e-07
9.20185e-05
2.94612e-07
9.20422e-05
2.99316e-07
9.20663e-05
3.00337e-07
9.20906e-05
2.98292e-07
9.21149e-05
2.93724e-07
9.21391e-05
2.87102e-07
9.21632e-05
2.78818e-07
9.21872e-05
2.69195e-07
9.22109e-05
2.58496e-07
9.22344e-05
2.46931e-07
9.22577e-05
2.34666e-07
9.22808e-05
2.21829e-07
9.23038e-05
2.08515e-07
9.23266e-05
1.94792e-07
9.23493e-05
1.80704e-07
9.2372e-05
1.66273e-07
9.23945e-05
1.51506e-07
9.24169e-05
1.36395e-07
9.24393e-05
1.20922e-07
9.24615e-05
1.05068e-07
9.24835e-05
8.88216e-08
7.21906e-08
9.25052e-05
9.45834e-05
1.07521e-08
9.45751e-05
3.25241e-08
9.45661e-05
5.87001e-08
9.45594e-05
8.92701e-08
9.45572e-05
1.22668e-07
9.45602e-05
1.56143e-07
9.45682e-05
1.87124e-07
9.45805e-05
2.14025e-07
9.45963e-05
2.36074e-07
9.46147e-05
2.53068e-07
9.46351e-05
2.65202e-07
9.46568e-05
2.72903e-07
9.46794e-05
2.76704e-07
9.47026e-05
2.77159e-07
9.47261e-05
2.74792e-07
9.47497e-05
2.7008e-07
9.47734e-05
2.63436e-07
9.4797e-05
2.55214e-07
9.48205e-05
2.45708e-07
9.48438e-05
2.35157e-07
9.4867e-05
2.23758e-07
9.489e-05
2.11665e-07
9.49128e-05
1.98997e-07
9.49355e-05
1.85845e-07
9.4958e-05
1.72276e-07
9.49804e-05
1.58332e-07
9.50026e-05
1.44042e-07
9.50247e-05
1.29417e-07
9.50466e-05
1.1446e-07
9.50684e-05
9.91663e-08
9.50899e-05
8.35342e-08
9.51112e-05
6.75713e-08
5.13086e-08
9.51321e-05
9.72874e-05
1.28596e-08
9.72824e-05
3.75792e-08
9.72769e-05
6.41895e-08
9.72731e-05
9.30064e-08
9.72728e-05
1.22981e-07
9.72767e-05
1.52273e-07
9.72847e-05
1.79089e-07
9.72965e-05
2.02255e-07
9.73114e-05
2.2117e-07
9.73288e-05
2.3567e-07
9.73481e-05
2.459e-07
9.73688e-05
2.52203e-07
9.73905e-05
2.55015e-07
9.74128e-05
2.54801e-07
9.74356e-05
2.52012e-07
9.74586e-05
2.4706e-07
9.74818e-05
2.40312e-07
9.75049e-05
2.32082e-07
9.7528e-05
2.22635e-07
9.75509e-05
2.1219e-07
9.75738e-05
2.00927e-07
9.75964e-05
1.88987e-07
9.7619e-05
1.76482e-07
9.76413e-05
1.63499e-07
9.76635e-05
1.50101e-07
9.76855e-05
1.36333e-07
9.77073e-05
1.22225e-07
9.77289e-05
1.07796e-07
9.77503e-05
9.30549e-08
9.77715e-05
7.80112e-08
9.77923e-05
6.26749e-08
9.78128e-05
4.70691e-08
3.124e-08
9.78329e-05
0.000100068
1.39221e-08
0.000100065
4.03292e-08
0.000100062
6.70214e-08
0.000100061
9.43499e-08
0.000100062
1.21587e-07
0.000100067
1.47488e-07
0.000100076
1.70824e-07
0.000100087
1.90759e-07
0.000100101
2.06869e-07
0.000100118
2.19053e-07
0.000100136
2.27449e-07
0.000100156
2.3235e-07
0.000100177
2.34126e-07
0.000100199
2.33175e-07
0.000100221
2.29887e-07
0.000100243
2.24622e-07
0.000100266
2.17702e-07
0.000100289
2.09406e-07
0.000100311
1.99972e-07
0.000100334
1.89599e-07
0.000100356
1.78447e-07
0.000100379
1.66649e-07
0.000100401
1.54307e-07
0.000100423
1.41503e-07
0.000100445
1.28298e-07
0.000100466
1.14737e-07
0.000100488
1.00852e-07
0.000100509
8.66673e-08
0.00010053
7.22005e-08
0.00010055
5.74679e-08
0.00010057
4.24905e-08
0.00010059
2.73015e-08
1.19578e-08
0.000100609
0.000102928
1.43272e-08
0.000102926
4.14986e-08
0.000102926
6.79413e-08
0.000102926
9.38989e-08
0.000102929
1.18838e-07
0.000102934
1.41911e-07
0.000102943
1.62288e-07
0.000102954
1.79407e-07
0.000102968
1.93004e-07
0.000102984
2.0305e-07
0.000103002
2.097e-07
0.000103021
2.1322e-07
0.000103041
2.13941e-07
0.000103062
2.1221e-07
0.000103084
2.08369e-07
0.000103106
2.02733e-07
0.000103128
1.95588e-07
0.00010315
1.87181e-07
0.000103172
1.77724e-07
0.000103194
1.67393e-07
0.000103216
1.56336e-07
0.000103238
1.44672e-07
0.00010326
1.32497e-07
0.000103282
1.19884e-07
0.000103303
1.06894e-07
0.000103324
9.35704e-08
0.000103345
7.99483e-08
0.000103366
6.60546e-08
0.000103386
5.19123e-08
0.000103406
3.75444e-08
0.000103426
2.29787e-08
0.000103445
8.25576e-09
-6.56184e-09
0.000103463
0.000105869
1.43381e-08
0.000105869
4.16496e-08
0.000105869
6.75896e-08
0.000105871
9.22313e-08
0.000105874
1.15158e-07
0.00010588
1.3579e-07
0.000105889
1.53588e-07
0.0001059
1.68209e-07
0.000105914
1.79527e-07
0.000105929
1.87589e-07
0.000105946
1.92575e-07
0.000105965
1.94747e-07
0.000105984
1.94407e-07
0.000106005
1.91867e-07
0.000106026
1.87433e-07
0.000106047
1.81383e-07
0.000106069
1.73971e-07
0.00010609
1.65414e-07
0.000106112
1.55902e-07
0.000106134
1.45592e-07
0.000106156
1.34617e-07
0.000106177
1.23083e-07
0.000106199
1.11077e-07
0.00010622
9.86701e-08
0.000106241
8.59164e-08
0.000106262
7.286e-08
0.000106282
5.95363e-08
0.000106302
4.59746e-08
0.000106322
3.22013e-08
0.000106341
1.82438e-08
0.00010636
4.1342e-09
0.000106378
-1.00828e-08
-2.43417e-08
0.000106396
0.000108894
1.41402e-08
0.000108894
4.12278e-08
0.000108895
6.65204e-08
0.000108897
8.98956e-08
0.000108902
1.11006e-07
0.000108908
1.29462e-07
0.000108917
1.44947e-07
0.000108927
1.57296e-07
0.00010894
1.66505e-07
0.000108955
1.72697e-07
0.000108972
1.76083e-07
0.00010899
1.76929e-07
0.000109009
1.75522e-07
0.000109028
1.7215e-07
0.000109049
1.67087e-07
0.000109069
1.60585e-07
0.000109091
1.52867e-07
0.000109112
1.44127e-07
0.000109133
1.34532e-07
0.000109155
1.24223e-07
0.000109176
1.13316e-07
0.000109197
1.01907e-07
0.000109218
9.00764e-08
0.000109239
7.78862e-08
0.000109259
6.53885e-08
0.00010928
5.26252e-08
0.000109299
3.96312e-08
0.000109319
2.64369e-08
0.000109338
1.30706e-08
0.000109357
-4.38263e-10
0.000109375
-1.40552e-08
0.000109393
-2.7734e-08
-4.14083e-08
0.00010941
0.000112005
1.38731e-08
0.000112005
4.0605e-08
0.000112007
6.52308e-08
0.000112009
8.74211e-08
0.000112013
1.06869e-07
0.000112019
1.23335e-07
0.000112028
1.36683e-07
0.000112038
1.46906e-07
0.00011205
1.54114e-07
0.000112065
1.58501e-07
0.00011208
1.60318e-07
0.000112098
1.59839e-07
0.000112116
1.57345e-07
0.000112135
1.53108e-07
0.000112154
1.47377e-07
0.000112175
1.4038e-07
0.000112195
1.32315e-07
0.000112216
1.23355e-07
0.000112237
1.13647e-07
0.000112258
1.03315e-07
0.000112279
9.2462e-08
0.000112299
8.11724e-08
0.00011232
6.95165e-08
0.00011234
5.75516e-08
0.00011236
4.53249e-08
0.00011238
3.28755e-08
0.000112399
2.0237e-08
0.000112418
7.43937e-09
0.000112437
-5.48892e-09
0.000112455
-1.85179e-08
0.000112473
-3.16127e-08
0.00011249
-4.47273e-08
-5.77967e-08
0.000112506
0.000115205
1.36552e-08
0.000115205
4.01201e-08
0.000115206
6.42006e-08
0.000115208
8.53456e-08
0.000115212
1.03276e-07
0.000115217
1.17887e-07
0.000115225
1.29208e-07
0.000115234
1.3738e-07
0.000115246
1.42629e-07
0.000115259
1.45224e-07
0.000115274
1.45458e-07
0.00011529
1.43621e-07
0.000115308
1.39995e-07
0.000115326
1.34838e-07
0.000115345
1.28383e-07
0.000115364
1.20835e-07
0.000115384
1.12372e-07
0.000115404
1.03147e-07
0.000115425
9.32876e-08
0.000115445
8.29022e-08
0.000115466
7.20801e-08
0.000115486
6.08954e-08
0.000115506
4.9409e-08
0.000115526
3.76713e-08
0.000115545
2.57242e-08
0.000115565
1.36033e-08
0.000115584
1.33939e-09
0.000115602
-1.10392e-08
0.00011562
-2.35052e-08
0.000115638
-3.60298e-08
0.000115655
-4.85792e-08
0.000115671
-6.11091e-08
-7.35574e-08
0.000115687
0.000118496
1.36037e-08
0.000118496
4.01241e-08
0.000118496
6.39423e-08
0.000118497
8.42601e-08
0.0001185
1.00829e-07
0.000118504
1.13686e-07
0.00011851
1.2303e-07
0.000118518
1.29161e-07
0.000118529
1.32426e-07
0.000118541
1.33178e-07
0.000118554
1.3176e-07
0.000118569
1.28486e-07
0.000118586
1.23641e-07
0.000118603
1.17478e-07
0.000118621
1.10213e-07
0.00011864
1.02035e-07
0.000118659
9.31019e-08
0.000118679
8.35477e-08
0.000118699
7.34834e-08
0.000118719
6.30012e-08
0.000118739
5.2177e-08
0.000118758
4.10733e-08
0.000118778
2.97416e-08
0.000118797
1.82246e-08
0.000118817
6.55809e-09
0.000118835
-5.22737e-09
0.000118854
-1.71046e-08
0.000118872
-2.90485e-08
0.000118889
-4.10342e-08
0.000118906
-5.30356e-08
0.000118923
-6.50214e-08
0.000118939
-7.69504e-08
-8.87646e-08
0.000118954
0.000121881
1.38563e-08
0.00012188
4.10339e-08
0.000121879
6.50694e-08
0.000121878
8.48758e-08
0.000121879
1.00259e-07
0.000121881
1.11431e-07
0.000121885
1.18786e-07
0.000121892
1.22807e-07
0.0001219
1.23981e-07
0.000121911
1.22762e-07
0.000121923
1.1955e-07
0.000121937
1.14693e-07
0.000121952
1.08486e-07
0.000121968
1.01179e-07
0.000121985
9.29788e-08
0.000122003
8.40557e-08
0.000122022
7.45511e-08
0.000122041
6.45801e-08
0.00012206
5.42364e-08
0.00012208
4.35964e-08
0.000122099
3.27219e-08
0.000122118
2.16629e-08
0.000122138
1.04605e-08
0.000122157
-8.51519e-10
0.000122176
-1.22448e-08
0.000122194
-2.36949e-08
0.000122212
-3.51799e-08
0.00012223
-4.66791e-08
0.000122247
-5.81718e-08
0.000122263
-6.96355e-08
0.000122279
-8.1043e-08
0.000122295
-9.23574e-08
-1.03526e-07
0.00012231
0.000125363
1.46005e-08
0.00012536
4.34113e-08
0.000125357
6.8396e-08
0.000125354
8.8122e-08
0.000125352
1.0251e-07
0.000125351
1.12012e-07
0.000125352
1.17275e-07
0.000125356
1.19007e-07
0.000125362
1.17872e-07
0.000125371
1.14442e-07
0.000125381
1.09195e-07
0.000125393
1.0252e-07
0.000125407
9.47313e-08
0.000125422
8.60785e-08
0.000125438
7.67597e-08
0.000125455
6.69309e-08
0.000125473
5.67151e-08
0.000125492
4.62085e-08
0.00012551
3.54863e-08
0.000125529
2.46076e-08
0.000125548
1.36184e-08
0.000125568
2.55499e-09
0.000125587
-8.55389e-09
0.000125605
-1.9685e-08
0.000125624
-3.0819e-08
0.000125642
-4.19393e-08
0.00012566
-5.30307e-08
0.000125677
-6.40787e-08
0.000125694
-7.50679e-08
0.000125711
-8.59812e-08
0.000125726
-9.67963e-08
0.000125742
-1.07482e-07
-1.17991e-07
0.000125756
0.000128944
1.6123e-08
0.000128939
4.80895e-08
0.000128932
7.509e-08
0.000128925
9.52907e-08
0.000128919
1.08856e-07
0.000128914
1.16597e-07
0.000128912
1.19509e-07
0.000128912
1.18601e-07
0.000128915
1.14765e-07
0.000128921
1.08726e-07
0.000128929
1.01059e-07
0.00012894
9.22088e-08
0.000128952
8.25141e-08
0.000128966
7.22286e-08
0.000128981
6.15413e-08
0.000128997
5.05921e-08
0.000129014
3.94835e-08
0.000129032
2.82899e-08
0.000129051
1.70655e-08
0.00012907
5.84876e-09
0.000129088
-5.33266e-09
0.000129107
-1.64592e-08
0.000129126
-2.75167e-08
0.000129145
-3.8495e-08
0.000129164
-4.9386e-08
0.000129182
-6.0183e-08
0.0001292
-7.08794e-08
0.000129217
-8.14685e-08
0.000129234
-9.19421e-08
0.00012925
-1.02289e-07
0.000129266
-1.12495e-07
0.000129281
-1.22534e-07
-1.32366e-07
0.000129296
0.000132626
1.89019e-08
0.000132618
5.63926e-08
0.000132606
8.69195e-08
0.000132593
1.08252e-07
0.000132581
1.21061e-07
0.000132571
1.26721e-07
0.000132564
1.26739e-07
0.00013256
1.22553e-07
0.000132559
1.15356e-07
0.000132562
1.06074e-07
0.000132567
9.5406e-08
0.000132576
8.38632e-08
0.000132586
7.18122e-08
0.000132599
5.9509e-08
0.000132614
4.71294e-08
0.000132629
3.47908e-08
0.000132646
2.25689e-08
0.000132664
1.05107e-08
0.000132682
-1.35707e-09
0.000132701
-1.30211e-08
0.000132721
-2.44771e-08
0.00013274
-3.57261e-08
0.000132759
-4.67724e-08
0.000132778
-5.76219e-08
0.000132797
-6.82806e-08
0.000132816
-7.87541e-08
0.000132834
-8.90468e-08
0.000132851
-9.91615e-08
0.000132869
-1.09099e-07
0.000132885
-1.18856e-07
0.000132901
-1.28426e-07
0.000132916
-1.37791e-07
-1.46919e-07
0.000132931
0.000136413
2.3792e-08
0.000136399
7.05328e-08
0.00013638
1.06652e-07
0.000136358
1.29761e-07
0.000136338
1.41563e-07
0.00013632
1.44354e-07
0.000136306
1.4043e-07
0.000136297
1.31852e-07
0.000136292
1.20232e-07
0.000136291
1.06746e-07
0.000136295
9.22392e-08
0.000136301
7.72943e-08
0.000136311
6.2298e-08
0.000136323
4.74959e-08
0.000136337
3.30358e-08
0.000136352
1.89988e-08
0.00013637
5.42168e-09
0.000136388
-7.68761e-09
0.000136407
-2.03389e-08
0.000136426
-3.25524e-08
0.000136446
-4.43536e-08
0.000136466
-5.57701e-08
0.000136486
-6.68292e-08
0.000136506
-7.75568e-08
0.000136526
-8.79765e-08
0.000136545
-9.81091e-08
0.000136564
-1.07972e-07
0.000136583
-1.1758e-07
0.000136601
-1.26945e-07
0.000136618
-1.36072e-07
0.000136634
-1.44964e-07
0.00013665
-1.53613e-07
-1.61995e-07
0.000136665
0.000140307
3.24125e-08
0.000140283
9.43451e-08
0.000140251
1.38695e-07
0.000140217
1.63862e-07
0.000140185
1.7364e-07
0.000140158
1.71855e-07
0.000140136
1.62064e-07
0.000140121
1.47256e-07
0.000140111
1.29584e-07
0.000140107
1.10518e-07
0.000140109
9.10448e-08
0.000140114
7.1797e-08
0.000140123
5.31486e-08
0.000140135
3.53007e-08
0.00014015
1.83436e-08
0.000140167
2.29657e-09
0.000140185
-1.2864e-08
0.000140205
-2.71863e-08
0.000140225
-4.07304e-08
0.000140246
-5.3561e-08
0.000140267
-6.57422e-08
0.000140289
-7.7335e-08
0.000140311
-8.83953e-08
0.000140332
-9.89738e-08
0.000140353
-1.09115e-07
0.000140374
-1.18858e-07
0.000140394
-1.28236e-07
0.000140414
-1.37277e-07
0.000140433
-1.46005e-07
0.000140451
-1.54437e-07
0.000140469
-1.62585e-07
0.000140486
-1.70452e-07
-1.78024e-07
0.000140502
0.000144309
4.80131e-08
0.000144269
1.34638e-07
0.000144217
1.90044e-07
0.000144165
2.16324e-07
0.000144117
2.21387e-07
0.000144077
2.11635e-07
0.000144047
1.92658e-07
0.000144025
1.68764e-07
0.000144012
1.42726e-07
0.000144006
1.16266e-07
0.000144007
9.04474e-08
0.000144013
6.58706e-08
0.000144023
4.2821e-08
0.000144037
2.13914e-08
0.000144054
1.56309e-09
0.000144073
-1.67454e-08
0.000144094
-3.36484e-08
0.000144116
-4.92727e-08
0.000144139
-6.37462e-08
0.000144162
-7.71908e-08
0.000144186
-8.97194e-08
0.000144211
-1.01434e-07
0.000144235
-1.12425e-07
0.000144258
-1.22771e-07
0.000144282
-1.32543e-07
0.000144305
-1.418e-07
0.000144327
-1.50593e-07
0.000144349
-1.58966e-07
0.00014437
-1.66955e-07
0.00014439
-1.74591e-07
0.000144409
-1.81896e-07
0.000144428
-1.88884e-07
-1.95551e-07
0.000144445
0.000148418
7.75301e-08
0.000148349
2.03621e-07
0.000148268
2.71498e-07
0.00014819
2.94771e-07
0.000148122
2.89147e-07
0.000148068
2.65226e-07
0.000148029
2.3178e-07
0.000148003
1.94765e-07
0.000147988
1.57405e-07
0.000147983
1.21437e-07
0.000147986
8.78035e-08
0.000147995
5.69069e-08
0.000148009
2.8809e-08
0.000148027
3.39484e-09
0.000148048
-1.95336e-08
0.000148071
-4.02091e-08
0.000148097
-5.88724e-08
0.000148123
-7.57549e-08
0.00014815
-9.10707e-08
0.000148178
-1.05012e-07
0.000148206
-1.17751e-07
0.000148234
-1.29436e-07
0.000148262
-1.40199e-07
0.000148289
-1.5015e-07
0.000148316
-1.59388e-07
0.000148342
-1.67994e-07
0.000148368
-1.7604e-07
0.000148393
-1.83586e-07
0.000148416
-1.90681e-07
0.000148439
-1.9737e-07
0.000148461
-2.03685e-07
0.000148482
-2.09653e-07
-2.15281e-07
0.000148501
0.000152631
1.36039e-07
0.000152511
3.23415e-07
0.000152383
3.98939e-07
0.00015227
4.07833e-07
0.00015218
3.79721e-07
0.000152114
3.31365e-07
0.000152069
2.75952e-07
0.000152043
2.20854e-07
0.000152032
1.68955e-07
0.000152032
1.21429e-07
0.000152041
7.87354e-08
0.000152057
4.08165e-08
0.000152078
7.32363e-09
0.000152104
-2.21895e-08
0.000152133
-4.81791e-08
0.000152164
-7.10819e-08
0.000152196
-9.13006e-08
0.000152229
-1.09196e-07
0.000152263
-1.25084e-07
0.000152298
-1.3924e-07
0.000152332
-1.519e-07
0.000152366
-1.63268e-07
0.000152399
-1.73517e-07
0.000152432
-1.82795e-07
0.000152463
-1.91228e-07
0.000152494
-1.98922e-07
0.000152524
-2.05969e-07
0.000152553
-2.12444e-07
0.000152581
-2.18414e-07
0.000152607
-2.23933e-07
0.000152633
-2.29046e-07
0.000152657
-2.3379e-07
-2.38185e-07
0.00015268
0.000156933
2.54085e-07
0.000156722
5.34758e-07
0.000156526
5.94886e-07
0.000156371
5.62846e-07
0.00015626
4.90881e-07
0.000156189
4.02798e-07
0.000156148
3.16302e-07
0.000156131
2.38174e-07
0.000156131
1.69041e-07
0.000156144
1.08552e-07
0.000156166
5.62161e-08
0.000156196
1.11925e-08
0.000156231
-2.749e-08
0.000156269
-6.07306e-08
0.00015631
-8.93126e-08
0.000156353
-1.13919e-07
0.000156397
-1.35144e-07
0.000156441
-1.53496e-07
0.000156486
-1.69405e-07
0.00015653
-1.83235e-07
0.000156573
-1.95295e-07
0.000156616
-2.05844e-07
0.000156657
-2.15099e-07
0.000156698
-2.23245e-07
0.000156737
-2.30437e-07
0.000156775
-2.36805e-07
0.000156811
-2.42459e-07
0.000156846
-2.47493e-07
0.00015688
-2.51985e-07
0.000156912
-2.56001e-07
0.000156942
-2.59598e-07
0.000156971
-2.62822e-07
-2.65709e-07
0.000156999
0.00016129
5.0222e-07
0.000160918
9.06855e-07
0.00016063
8.83416e-07
0.000160432
7.60505e-07
0.000160312
6.10728e-07
0.000160252
4.62482e-07
0.000160233
3.35758e-07
0.00016024
2.31075e-07
0.000160266
1.43321e-07
0.000160305
6.95727e-08
0.000160353
8.0245e-09
0.000160407
-4.3259e-08
0.000160466
-8.60828e-08
0.000160527
-1.21906e-07
0.00016059
-1.51894e-07
0.000160653
-1.77012e-07
0.000160716
-1.98072e-07
0.000160778
-2.15746e-07
0.000160839
-2.3059e-07
0.000160899
-2.43062e-07
0.000160957
-2.53544e-07
0.000161014
-2.62351e-07
0.000161069
-2.69746e-07
0.000161121
-2.75946e-07
0.000161172
-2.81133e-07
0.000161221
-2.85459e-07
0.000161267
-2.8905e-07
0.000161312
-2.92012e-07
0.000161354
-2.94432e-07
0.000161394
-2.96385e-07
0.000161433
-2.97931e-07
0.000161469
-2.99119e-07
-2.99994e-07
0.000161503
0.000165509
1.14672e-06
0.000164895
1.52067e-06
0.000164546
1.23299e-06
0.000164348
9.58221e-07
0.000164265
6.93873e-07
0.000164258
4.69126e-07
0.000164294
3.00169e-07
0.000164354
1.70444e-07
0.000164432
6.57318e-08
0.000164521
-1.93992e-08
0.000164617
-8.80389e-08
0.000164717
-1.43315e-07
0.000164819
-1.87936e-07
0.000164921
-2.2395e-07
0.000165022
-2.52934e-07
0.000165121
-2.7618e-07
0.000165218
-2.94753e-07
0.000165312
-3.09518e-07
0.000165402
-3.2117e-07
0.000165489
-3.30272e-07
0.000165573
-3.37283e-07
0.000165653
-3.42574e-07
0.00016573
-3.46449e-07
0.000165803
-3.49157e-07
0.000165873
-3.50901e-07
0.000165939