/*--------------------------------*- C++ -*----------------------------------*\
| =========                 |                                                 |
| \\      /  F ield         | OpenFOAM: The Open Source CFD Toolbox           |
|  \\    /   O peration     | Version:  4.1                                   |
|   \\  /    A nd           | Web:      www.OpenFOAM.org                      |
|    \\/     M anipulation  |                                                 |
\*---------------------------------------------------------------------------*/
FoamFile
{
    version     2.0;
    format      ascii;
    class       volVectorField;
    location    "500";
    object      U;
}
// * * * * * * * * * * * * * * * * * * * * * * * * * * * * * * * * * * * * * //

dimensions      [0 1 -1 0 0 0 0];

internalField   nonuniform List<vector> 
6820
(
(7.12051 -2.89958 0)
(7.72183 -2.2784 0)
(7.93531 -1.28315 0)
(7.87961 -0.658566 0)
(7.73233 -0.320703 0)
(7.56975 -0.148364 0)
(7.41014 -0.0616875 0)
(7.26107 -0.0176612 0)
(7.12634 0.00480808 0)
(7.00576 0.0160196 0)
(6.89747 0.0212309 0)
(6.79971 0.0232267 0)
(6.71113 0.0235017 0)
(6.63058 0.0228668 0)
(6.55704 0.0217714 0)
(6.48967 0.0204693 0)
(6.42777 0.0191037 0)
(6.37075 0.0177537 0)
(6.31808 0.0164615 0)
(6.26934 0.0152476 0)
(6.22414 0.0141206 0)
(6.18215 0.0130821 0)
(6.14307 0.01213 0)
(6.10663 0.0112607 0)
(6.0726 0.0104704 0)
(6.04075 0.00975662 0)
(6.01088 0.0091198 0)
(5.98277 0.00856216 0)
(5.95622 0.00810737 0)
(5.93082 0.00774287 0)
(5.90668 0.00763621 0)
(5.8813 0.00764744 0)
(5.86199 0.00653713 0)
(7.59884 0.654127 0)
(7.43304 0.77761 0)
(7.36112 0.527754 0)
(7.34934 0.342767 0)
(7.39535 0.234372 0)
(7.453 0.16665 0)
(7.49514 0.123341 0)
(7.51887 0.0959886 0)
(7.52911 0.0783754 0)
(7.52981 0.0664878 0)
(7.52343 0.0581082 0)
(7.51192 0.0520043 0)
(7.49688 0.0474134 0)
(7.47945 0.0438366 0)
(7.4604 0.0409528 0)
(7.4403 0.0385574 0)
(7.41958 0.0365163 0)
(7.39853 0.0347388 0)
(7.3774 0.0331624 0)
(7.35635 0.0317441 0)
(7.3355 0.0304535 0)
(7.31496 0.029269 0)
(7.29479 0.0281753 0)
(7.27505 0.0271621 0)
(7.25577 0.0262231 0)
(7.23697 0.0253562 0)
(7.21867 0.0245654 0)
(7.20088 0.0238594 0)
(7.18362 0.0232715 0)
(7.16678 0.0228094 0)
(7.15078 0.0227142 0)
(7.13462 0.0226088 0)
(7.1221 0.0252086 0)
(7.25567 -0.0497308 0)
(7.16457 -0.0746225 0)
(7.20132 -0.0871792 0)
(7.24038 -0.0571897 0)
(7.27477 -0.0216474 0)
(7.31089 0.00195368 0)
(7.34258 0.0166168 0)
(7.36744 0.0264312 0)
(7.38687 0.0329316 0)
(7.40198 0.0368985 0)
(7.41326 0.039099 0)
(7.42128 0.0401642 0)
(7.42665 0.040501 0)
(7.42991 0.0403567 0)
(7.43144 0.0398961 0)
(7.43157 0.0392343 0)
(7.43055 0.0384495 0)
(7.42861 0.0375933 0)
(7.42592 0.0367003 0)
(7.42263 0.035794 0)
(7.41884 0.0348906 0)
(7.41467 0.0340013 0)
(7.41019 0.0331343 0)
(7.40547 0.032296 0)
(7.40056 0.0314926 0)
(7.39552 0.0307312 0)
(7.39038 0.030023 0)
(7.38517 0.0293807 0)
(7.37992 0.0288405 0)
(7.37462 0.0284126 0)
(7.36944 0.0282746 0)
(7.36411 0.0282603 0)
(7.35974 0.0294958 0)
(7.29108 -0.0915084 0)
(7.22275 -0.0639342 0)
(7.23474 -0.0294755 0)
(7.25083 -0.00393298 0)
(7.26441 0.0155956 0)
(7.28273 0.0269849 0)
(7.30141 0.0328967 0)
(7.31767 0.0363485 0)
(7.33193 0.0384669 0)
(7.34457 0.0395849 0)
(7.3555 0.0400079 0)
(7.36477 0.0400118 0)
(7.37257 0.0397606 0)
(7.37912 0.0393388 0)
(7.38456 0.038801 0)
(7.38905 0.0381881 0)
(7.39273 0.0375286 0)
(7.3957 0.0368414 0)
(7.39806 0.0361393 0)
(7.39991 0.0354318 0)
(7.40131 0.0347259 0)
(7.40233 0.0340274 0)
(7.40303 0.0333411 0)
(7.40346 0.0326719 0)
(7.40364 0.0320254 0)
(7.40363 0.031409 0)
(7.40345 0.030834 0)
(7.40313 0.0303148 0)
(7.4027 0.0298818 0)
(7.40219 0.0295552 0)
(7.40168 0.0294426 0)
(7.40116 0.0294737 0)
(7.40109 0.0301251 0)
(7.31214 -0.0522569 0)
(7.26645 -0.0334753 0)
(7.26326 -0.0148456 0)
(7.26623 -0.00265483 0)
(7.2714 0.0101226 0)
(7.28197 0.0195563 0)
(7.29395 0.025246 0)
(7.30493 0.0290302 0)
(7.31507 0.0317637 0)
(7.32454 0.0336227 0)
(7.33318 0.0347886 0)
(7.34095 0.0354748 0)
(7.3479 0.0358268 0)
(7.35411 0.0359302 0)
(7.35966 0.035846 0)
(7.36461 0.035623 0)
(7.36903 0.035298 0)
(7.37298 0.0348979 0)
(7.37652 0.0344427 0)
(7.37968 0.0339479 0)
(7.38253 0.0334257 0)
(7.38509 0.0328859 0)
(7.38739 0.0323369 0)
(7.38949 0.0317865 0)
(7.39139 0.0312427 0)
(7.39312 0.0307144 0)
(7.39472 0.0302136 0)
(7.3962 0.0297545 0)
(7.3976 0.0293606 0)
(7.39894 0.0290514 0)
(7.4003 0.0288833 0)
(7.40173 0.0288291 0)
(7.40346 0.029058 0)
(7.32016 -0.032052 0)
(7.28758 -0.0252484 0)
(7.28069 -0.0141008 0)
(7.27975 -0.00456384 0)
(7.28193 0.00649206 0)
(7.28855 0.0153253 0)
(7.29666 0.0211005 0)
(7.30444 0.0251134 0)
(7.31187 0.0280735 0)
(7.319 0.0301627 0)
(7.32572 0.0315586 0)
(7.33193 0.0324618 0)
(7.33766 0.0330133 0)
(7.34296 0.0333005 0)
(7.34785 0.0333859 0)
(7.35236 0.0333189 0)
(7.35653 0.0331368 0)
(7.36038 0.0328673 0)
(7.36396 0.0325311 0)
(7.36729 0.0321442 0)
(7.3704 0.0317196 0)
(7.37331 0.0312676 0)
(7.37604 0.030797 0)
(7.37861 0.0303159 0)
(7.38105 0.0298322 0)
(7.38337 0.0293546 0)
(7.3856 0.0288933 0)
(7.38775 0.0284601 0)
(7.38985 0.0280712 0)
(7.39193 0.0277397 0)
(7.39406 0.027491 0)
(7.3963 0.0273072 0)
(7.39877 0.0272306 0)
(7.32441 -0.022172 0)
(7.30054 -0.0208473 0)
(7.2931 -0.0128396 0)
(7.29071 -0.0045428 0)
(7.29138 0.00494487 0)
(7.29567 0.0128384 0)
(7.30142 0.0183447 0)
(7.30725 0.0223009 0)
(7.31298 0.0252544 0)
(7.3186 0.0273897 0)
(7.32398 0.0288742 0)
(7.32906 0.0298832 0)
(7.33384 0.0305439 0)
(7.33834 0.0309391 0)
(7.34257 0.0311291 0)
(7.34654 0.0311612 0)
(7.35028 0.0310713 0)
(7.35381 0.0308865 0)
(7.35715 0.0306273 0)
(7.36032 0.0303099 0)
(7.36333 0.029947 0)
(7.3662 0.0295493 0)
(7.36895 0.0291255 0)
(7.37159 0.0286834 0)
(7.37414 0.0282307 0)
(7.37661 0.0277748 0)
(7.37901 0.027324 0)
(7.38138 0.0268867 0)
(7.38372 0.0264724 0)
(7.38609 0.026087 0)
(7.38851 0.0257367 0)
(7.39105 0.0254019 0)
(7.39377 0.0250715 0)
(7.32735 -0.0153988 0)
(7.30976 -0.0162735 0)
(7.30245 -0.010625 0)
(7.29933 -0.0037956 0)
(7.29909 0.00414665 0)
(7.30188 0.0110649 0)
(7.30611 0.0161945 0)
(7.31065 0.0200108 0)
(7.31527 0.0229044 0)
(7.31988 0.0250421 0)
(7.32437 0.0265728 0)
(7.32867 0.0276466 0)
(7.33277 0.0283769 0)
(7.33666 0.0288418 0)
(7.34037 0.0290992 0)
(7.3439 0.0291947 0)
(7.34726 0.029163 0)
(7.35047 0.0290308 0)
(7.35354 0.0288184 0)
(7.35648 0.0285419 0)
(7.35932 0.0282142 0)
(7.36205 0.0278457 0)
(7.36469 0.0274449 0)
(7.36726 0.0270192 0)
(7.36977 0.0265755 0)
(7.37222 0.0261199 0)
(7.37464 0.0256583 0)
(7.37704 0.0251959 0)
(7.37944 0.0247366 0)
(7.38187 0.02428 0)
(7.38437 0.0238211 0)
(7.38698 0.0233376 0)
(7.38973 0.0227998 0)
(7.32939 -0.0103239 0)
(7.31652 -0.0120811 0)
(7.30969 -0.00830418 0)
(7.30625 -0.00286214 0)
(7.30543 0.00373328 0)
(7.3072 0.00975312 0)
(7.31034 0.0144674 0)
(7.31396 0.0180963 0)
(7.31778 0.0208964 0)
(7.32168 0.0230048 0)
(7.32553 0.0245496 0)
(7.32926 0.0256581 0)
(7.33286 0.0264304 0)
(7.33631 0.0269394 0)
(7.33963 0.0272404 0)
(7.34281 0.0273769 0)
(7.34586 0.0273826 0)
(7.3488 0.0272834 0)
(7.35164 0.0270995 0)
(7.35438 0.0268469 0)
(7.35704 0.026538 0)
(7.35962 0.0261831 0)
(7.36213 0.0257905 0)
(7.3646 0.0253669 0)
(7.36701 0.0249182 0)
(7.3694 0.0244491 0)
(7.37176 0.0239634 0)
(7.37413 0.0234633 0)
(7.3765 0.0229485 0)
(7.37891 0.0224142 0)
(7.38139 0.0218495 0)
(7.38395 0.0212312 0)
(7.38663 0.0205263 0)
(7.33074 -0.00670321 0)
(7.32149 -0.00860392 0)
(7.31542 -0.00611072 0)
(7.31196 -0.00182113 0)
(7.31078 0.00361967 0)
(7.31181 0.00881258 0)
(7.31414 0.0130837 0)
(7.31704 0.0164814 0)
(7.32025 0.0191536 0)
(7.32359 0.0212026 0)
(7.32694 0.0227333 0)
(7.33024 0.0238518 0)
(7.33345 0.0246452 0)
(7.33656 0.02518 0)
(7.33957 0.0255081 0)
(7.34248 0.0256708 0)
(7.3453 0.0257001 0)
(7.34802 0.0256213 0)
(7.35066 0.0254542 0)
(7.35323 0.0252142 0)
(7.35573 0.0249136 0)
(7.35817 0.0245624 0)
(7.36057 0.0241682 0)
(7.36292 0.0237374 0)
(7.36525 0.0232746 0)
(7.36755 0.0227834 0)
(7.36984 0.0222657 0)
(7.37214 0.0217214 0)
(7.37445 0.0211473 0)
(7.3768 0.020536 0)
(7.3792 0.0198741 0)
(7.38167 0.0191395 0)
(7.38423 0.0183019 0)
(7.33161 -0.00420352 0)
(7.32508 -0.00581528 0)
(7.31997 -0.00410951 0)
(7.31671 -0.000730098 0)
(7.31535 0.00372811 0)
(7.31585 0.00816494 0)
(7.31755 0.0119803 0)
(7.31988 0.0151128 0)
(7.32258 0.0176268 0)
(7.32546 0.0195893 0)
(7.32842 0.0210814 0)
(7.33136 0.0221886 0)
(7.33426 0.0229853 0)
(7.3371 0.0235309 0)
(7.33987 0.0238731 0)
(7.34255 0.0240504 0)
(7.34517 0.0240931 0)
(7.34771 0.0240255 0)
(7.35019 0.0238666 0)
(7.35261 0.0236314 0)
(7.35498 0.0233319 0)
(7.35731 0.0229775 0)
(7.35959 0.0225753 0)
(7.36184 0.022131 0)
(7.36407 0.0216485 0)
(7.36629 0.0211302 0)
(7.3685 0.0205765 0)
(7.37072 0.0199857 0)
(7.37296 0.019353 0)
(7.37522 0.0186696 0)
(7.37753 0.0179221 0)
(7.37989 0.0170905 0)
(7.3823 0.0161497 0)
(7.33217 -0.00250208 0)
(7.32765 -0.00362834 0)
(7.32353 -0.00235685 0)
(7.32065 0.000335609 0)
(7.31926 0.00397933 0)
(7.3194 0.00774061 0)
(7.32062 0.011106 0)
(7.3225 0.0139524 0)
(7.32477 0.0162843 0)
(7.32727 0.018137 0)
(7.32988 0.0195684 0)
(7.33253 0.0206453 0)
(7.33517 0.0214292 0)
(7.33777 0.0219721 0)
(7.34033 0.0223169 0)
(7.34283 0.0224988 0)
(7.34527 0.0225464 0)
(7.34767 0.0224824 0)
(7.35001 0.0223251 0)
(7.3523 0.0220887 0)
(7.35456 0.0217847 0)
(7.35677 0.021422 0)
(7.35896 0.0210074 0)
(7.36112 0.0205457 0)
(7.36326 0.0200401 0)
(7.3654 0.0194921 0)
(7.36753 0.0189011 0)
(7.36966 0.0182644 0)
(7.37181 0.0175765 0)
(7.37399 0.0168285 0)
(7.37619 0.0160077 0)
(7.37843 0.0150975 0)
(7.3807 0.014078 0)
(7.33251 -0.0013601 0)
(7.32945 -0.00195915 0)
(7.32626 -0.000889674 0)
(7.32385 0.00130981 0)
(7.32256 0.00430141 0)
(7.3225 0.00747674 0)
(7.32338 0.010415 0)
(7.32488 0.0129678 0)
(7.3268 0.0151015 0)
(7.32898 0.0168256 0)
(7.33129 0.0181774 0)
(7.33368 0.0192067 0)
(7.33609 0.019963 0)
(7.33849 0.0204907 0)
(7.34086 0.0208274 0)
(7.3432 0.0210051 0)
(7.3455 0.0210498 0)
(7.34776 0.0209829 0)
(7.34998 0.0208213 0)
(7.35216 0.0205788 0)
(7.35431 0.020266 0)
(7.35643 0.0198914 0)
(7.35853 0.019461 0)
(7.3606 0.0189793 0)
(7.36266 0.0184488 0)
(7.36472 0.0178703 0)
(7.36677 0.0172427 0)
(7.36882 0.0165627 0)
(7.37088 0.0158246 0)
(7.37296 0.0150203 0)
(7.37505 0.0141386 0)
(7.37717 0.0131661 0)
(7.37929 0.012088 0)
(7.33272 -0.000606973 0)
(7.33069 -0.000722131 0)
(7.32832 0.000285338 0)
(7.32641 0.00214684 0)
(7.32531 0.00463329 0)
(7.32516 0.00731569 0)
(7.32581 0.00986335 0)
(7.32703 0.0121282 0)
(7.32866 0.014056 0)
(7.33056 0.015638 0)
(7.33263 0.0168948 0)
(7.33479 0.0178616 0)
(7.33699 0.0185771 0)
(7.33921 0.019078 0)
(7.34142 0.0193969 0)
(7.34361 0.0195619 0)
(7.34578 0.0195967 0)
(7.34792 0.0195208 0)
(7.35003 0.01935 0)
(7.35211 0.019097 0)
(7.35417 0.0187719 0)
(7.3562 0.0183824 0)
(7.35821 0.0179341 0)
(7.3602 0.0174309 0)
(7.36218 0.0168748 0)
(7.36416 0.0162663 0)
(7.36613 0.0156038 0)
(7.3681 0.014884 0)
(7.37007 0.0141018 0)
(7.37205 0.0132496 0)
(7.37404 0.0123184 0)
(7.37603 0.0112978 0)
(7.37802 0.0101776 0)
(7.33284 -0.000120084 0)
(7.33153 0.000166986 0)
(7.32984 0.00118569 0)
(7.3284 0.0028226 0)
(7.32754 0.00492774 0)
(7.3274 0.00720674 0)
(7.32791 0.00940925 0)
(7.32893 0.0114023 0)
(7.33033 0.0131249 0)
(7.332 0.0145574 0)
(7.33385 0.0157081 0)
(7.33581 0.0166004 0)
(7.33783 0.0172637 0)
(7.33989 0.0177275 0)
(7.34196 0.0180195 0)
(7.34402 0.0181642 0)
(7.34607 0.0181826 0)
(7.3481 0.0180922 0)
(7.35011 0.0179076 0)
(7.35209 0.0176404 0)
(7.35406 0.0173 0)
(7.35601 0.0168933 0)
(7.35794 0.0164255 0)
(7.35985 0.0159001 0)
(7.36176 0.0153186 0)
(7.36365 0.0146813 0)
(7.36554 0.0139866 0)
(7.36743 0.0132314 0)
(7.36931 0.012411 0)
(7.3712 0.0115193 0)
(7.37308 0.010549 0)
(7.37496 0.00949248 0)
(7.37682 0.00834317 0)
(7.33292 0.000187376 0)
(7.33209 0.000784805 0)
(7.33094 0.00184348 0)
(7.32992 0.00333199 0)
(7.3293 0.00515335 0)
(7.32923 0.00710899 0)
(7.32968 0.0090149 0)
(7.33056 0.0107599 0)
(7.33179 0.0122853 0)
(7.33328 0.0135669 0)
(7.33494 0.0146047 0)
(7.33673 0.0154138 0)
(7.3386 0.0160155 0)
(7.34051 0.0164335 0)
(7.34244 0.0166908 0)
(7.34438 0.0168082 0)
(7.34632 0.0168042 0)
(7.34825 0.0166944 0)
(7.35016 0.0164919 0)
(7.35206 0.0162073 0)
(7.35395 0.015849 0)
(7.35581 0.0154234 0)
(7.35767 0.0149352 0)
(7.35951 0.0143874 0)
(7.36134 0.0137814 0)
(7.36315 0.0131172 0)
(7.36496 0.0123934 0)
(7.36677 0.0116073 0)
(7.36856 0.0107549 0)
(7.37035 0.00983138 0)
(7.37213 0.00883114 0)
(7.3739 0.00774893 0)
(7.37565 0.00658117 0)
(7.33296 0.000375519 0)
(7.33246 0.00119675 0)
(7.33171 0.00229752 0)
(7.33104 0.00368449 0)
(7.33066 0.00529418 0)
(7.33068 0.00699328 0)
(7.33112 0.00864924 0)
(7.33192 0.0101736 0)
(7.33303 0.011515 0)
(7.33437 0.0126491 0)
(7.33588 0.0135718 0)
(7.33752 0.014292 0)
(7.33925 0.0148255 0)
(7.34103 0.0151907 0)
(7.34284 0.0154065 0)
(7.34467 0.0154907 0)
(7.34651 0.0154591 0)
(7.34834 0.0153255 0)
(7.35017 0.0151016 0)
(7.35199 0.0147967 0)
(7.35379 0.0144185 0)
(7.35558 0.0139728 0)
(7.35736 0.0134636 0)
(7.35912 0.0128938 0)
(7.36088 0.0122645 0)
(7.36262 0.0115757 0)
(7.36435 0.0108263 0)
(7.36607 0.0100139 0)
(7.36778 0.00913545 0)
(7.36948 0.00818715 0)
(7.37116 0.00716505 0)
(7.37282 0.00606582 0)
(7.37446 0.00488815 0)
(7.33298 0.000485254 0)
(7.33269 0.00145635 0)
(7.33225 0.00258765 0)
(7.33186 0.00389907 0)
(7.33168 0.00534742 0)
(7.3318 0.0068424 0)
(7.33225 0.00828954 0)
(7.33301 0.00962082 0)
(7.33403 0.0107942 0)
(7.33525 0.011788 0)
(7.33665 0.0125966 0)
(7.33816 0.0132255 0)
(7.33977 0.0136863 0)
(7.34143 0.0139935 0)
(7.34314 0.0141627 0)
(7.34487 0.0142087 0)
(7.34661 0.0141452 0)
(7.34835 0.0139841 0)
(7.3501 0.0137357 0)
(7.35183 0.0134083 0)
(7.35356 0.0130086 0)
(7.35528 0.0125419 0)
(7.35698 0.0120118 0)
(7.35867 0.0114207 0)
(7.36035 0.0107697 0)
(7.36202 0.0100589 0)
(7.36367 0.00928732 0)
(7.36531 0.00845327 0)
(7.36694 0.0075543 0)
(7.36854 0.00658768 0)
(7.37013 0.00555076 0)
(7.37169 0.00444179 0)
(7.37322 0.0032612 0)
(7.33299 0.000544112 0)
(7.33285 0.0016061 0)
(7.33261 0.00275124 0)
(7.33242 0.00399966 0)
(7.33241 0.00532005 0)
(7.33262 0.00664993 0)
(7.3331 0.00792205 0)
(7.33383 0.0090854 0)
(7.33478 0.0101071 0)
(7.33593 0.0109697 0)
(7.33722 0.0116679 0)
(7.33863 0.0122054 0)
(7.34013 0.0125912 0)
(7.34169 0.012837 0)
(7.3433 0.0129557 0)
(7.34493 0.0129597 0)
(7.34659 0.0128608 0)
(7.34825 0.0126692 0)
(7.34991 0.0123938 0)
(7.35157 0.0120421 0)
(7.35322 0.0116198 0)
(7.35487 0.0111317 0)
(7.3565 0.0105809 0)
(7.35812 0.00996959 0)
(7.35973 0.00929881 0)
(7.36132 0.00856871 0)
(7.36289 0.00777863 0)
(7.36445 0.00692729 0)
(7.36599 0.00601296 0)
(7.36751 0.00503378 0)
(7.36901 0.00398821 0)
(7.37048 0.00287568 0)
(7.37191 0.00169791 0)
(7.333 0.000570539 0)
(7.33294 0.00167909 0)
(7.33284 0.00282145 0)
(7.33281 0.0040118 0)
(7.3329 0.00522555 0)
(7.33319 0.00641811 0)
(7.33369 0.00754143 0)
(7.33441 0.00855798 0)
(7.33531 0.00944318 0)
(7.33638 0.0101839 0)
(7.33759 0.0107765 0)
(7.33891 0.0112242 0)
(7.34031 0.0115343 0)
(7.34178 0.0117167 0)
(7.3433 0.0117823 0)
(7.34485 0.0117415 0)
(7.34642 0.0116045 0)
(7.348 0.0113801 0)
(7.34959 0.0110759 0)
(7.35117 0.0106985 0)
(7.35275 0.010253 0)
(7.35433 0.00974341 0)
(7.35589 0.00917255 0)
(7.35744 0.00854236 0)
(7.35897 0.00785383 0)
(7.36049 0.0071072 0)
(7.36199 0.00630208 0)
(7.36347 0.00543761 0)
(7.36493 0.00451266 0)
(7.36636 0.00352611 0)
(7.36777 0.00247724 0)
(7.36915 0.00136642 0)
(7.37049 0.000196264 0)
(7.333 0.000576964 0)
(7.33299 0.00170089 0)
(7.33299 0.00282687 0)
(7.33304 0.00396062 0)
(7.33322 0.0050812 0)
(7.33355 0.00615567 0)
(7.33406 0.00714958 0)
(7.33475 0.00803593 0)
(7.33561 0.00879729 0)
(7.33662 0.00942485 0)
(7.33775 0.0099169 0)
(7.33899 0.0102769 0)
(7.34031 0.0105116 0)
(7.34169 0.0106297 0)
(7.34313 0.0106404 0)
(7.34459 0.0105529 0)
(7.34608 0.0103758 0)
(7.34759 0.0101168 0)
(7.3491 0.00978256 0)
(7.35061 0.0093786 0)
(7.35212 0.00890943 0)
(7.35362 0.00837853 0)
(7.35512 0.00778842 0)
(7.35659 0.0071408 0)
(7.35806 0.00643661 0)
(7.3595 0.00567618 0)
(7.36093 0.00485936 0)
(7.36233 0.00398564 0)
(7.36371 0.00305438 0)
(7.36507 0.00206503 0)
(7.36639 0.00101754 0)
(7.36768 -8.70585e-05 0)
(7.36893 -0.00124556 0)
(7.333 0.000571956 0)
(7.33302 0.00169147 0)
(7.33306 0.00279197 0)
(7.33317 0.00386996 0)
(7.33338 0.00490628 0)
(7.33372 0.00587587 0)
(7.33422 0.00675421 0)
(7.33488 0.0075227 0)
(7.33569 0.00817002 0)
(7.33664 0.00869138 0)
(7.3377 0.00908722 0)
(7.33886 0.0093618 0)
(7.3401 0.00952175 0)
(7.3414 0.00957493 0)
(7.34275 0.00952962 0)
(7.34414 0.00939389 0)
(7.34555 0.00917521 0)
(7.34698 0.00888026 0)
(7.34842 0.00851479 0)
(7.34986 0.00808361 0)
(7.3513 0.0075906 0)
(7.35273 0.00703875 0)
(7.35416 0.00643028 0)
(7.35556 0.00576669 0)
(7.35696 0.00504888 0)
(7.35833 0.00427724 0)
(7.35968 0.0034518 0)
(7.36101 0.00257235 0)
(7.36232 0.00163863 0)
(7.36359 0.000650535 0)
(7.36484 -0.000391529 0)
(7.36604 -0.00148605 0)
(7.36722 -0.00262946 0)
(7.333 0.000561728 0)
(7.33303 0.00166696 0)
(7.33309 0.00273817 0)
(7.3332 0.00376246 0)
(7.33341 0.00472128 0)
(7.33374 0.00559533 0)
(7.33421 0.00636778 0)
(7.33482 0.00702703 0)
(7.33557 0.00756722 0)
(7.33644 0.0079873 0)
(7.33742 0.00829001 0)
(7.3385 0.00848065 0)
(7.33966 0.00856605 0)
(7.34088 0.00855374 0)
(7.34216 0.00845128 0)
(7.34347 0.00826592 0)
(7.3448 0.00800424 0)
(7.34616 0.00767208 0)
(7.34752 0.00727441 0)
(7.34889 0.00681539 0)
(7.35026 0.00629833 0)
(7.35162 0.00572584 0)
(7.35298 0.00509982 0)
(7.35432 0.00442159 0)
(7.35564 0.00369199 0)
(7.35695 0.00291145 0)
(7.35823 0.00208014 0)
(7.35949 0.00119808 0)
(7.36072 0.000265262 0)
(7.36192 -0.000718092 0)
(7.36309 -0.00175125 0)
(7.36422 -0.0028324 0)
(7.36532 -0.00395778 0)
(7.333 0.000551223 0)
(7.33302 0.0016414 0)
(7.33307 0.00268528 0)
(7.33316 0.00366035 0)
(7.33333 0.00454799 0)
(7.33361 0.00533357 0)
(7.33402 0.00600679 0)
(7.33456 0.00656238 0)
(7.33523 0.0069996 0)
(7.33602 0.00732112 0)
(7.33692 0.00753205 0)
(7.33791 0.00763896 0)
(7.33898 0.00764916 0)
(7.34012 0.00757008 0)
(7.34131 0.00740886 0)
(7.34254 0.00717211 0)
(7.3438 0.00686572 0)
(7.34508 0.0064948 0)
(7.34637 0.00606369 0)
(7.34767 0.00557595 0)
(7.34897 0.00503443 0)
(7.35027 0.00444132 0)
(7.35156 0.00379827 0)
(7.35283 0.00310641 0)
(7.35409 0.00236651 0)
(7.35533 0.00157901 0)
(7.35654 0.000744151 0)
(7.35773 -0.000137908 0)
(7.3589 -0.00106698 0)
(7.36003 -0.00204263 0)
(7.36113 -0.00306394 0)
(7.36219 -0.00412894 0)
(7.36322 -0.00523379 0)
(7.333 0.000544955 0)
(7.333 0.00162831 0)
(7.333 0.0026533 0)
(7.33304 0.00358698 0)
(7.33314 0.00441042 0)
(7.33334 0.00511341 0)
(7.33366 0.00569187 0)
(7.3341 0.00614677 0)
(7.33467 0.00648258 0)
(7.33536 0.00670583 0)
(7.33616 0.00682422 0)
(7.33706 0.00684583 0)
(7.33803 0.00677866 0)
(7.33908 0.0066303 0)
(7.34018 0.00640764 0)
(7.34133 0.00611684 0)
(7.34251 0.00576323 0)
(7.34371 0.00535133 0)
(7.34494 0.00488491 0)
(7.34617 0.00436702 0)
(7.3474 0.00380006 0)
(7.34863 0.00318587 0)
(7.34986 0.00252582 0)
(7.35107 0.00182087 0)
(7.35226 0.00107166 0)
(7.35344 0.000278617 0)
(7.3546 -0.000558 0)
(7.35573 -0.00143796 0)
(7.35683 -0.00236098 0)
(7.3579 -0.00332652 0)
(7.35893 -0.00433355 0)
(7.35993 -0.00538008 0)
(7.36089 -0.00646231 0)
(7.333 0.000547799 0)
(7.33297 0.00164272 0)
(7.3329 0.00266479 0)
(7.33283 0.00356914 0)
(7.33282 0.00433674 0)
(7.3329 0.00496234 0)
(7.33309 0.00544857 0)
(7.33341 0.00580315 0)
(7.33385 0.00603625 0)
(7.33442 0.00615869 0)
(7.33511 0.00618109 0)
(7.33589 0.00611337 0)
(7.33677 0.00596449 0)
(7.33771 0.00574238 0)
(7.33873 0.00545391 0)
(7.33979 0.0051049 0)
(7.34089 0.00470026 0)
(7.34202 0.00424402 0)
(7.34317 0.00373942 0)
(7.34434 0.00318903 0)
(7.34551 0.00259485 0)
(7.34668 0.00195837 0)
(7.34785 0.00128068 0)
(7.349 0.00056251 0)
(7.35014 -0.000195619 0)
(7.35127 -0.000993381 0)
(7.35237 -0.00183054 0)
(7.35344 -0.00270688 0)
(7.35449 -0.00362208 0)
(7.35551 -0.00457559 0)
(7.35649 -0.0055664 0)
(7.35744 -0.00659255 0)
(7.35834 -0.00765037 0)
(7.333 0.000565943 0)
(7.33291 0.00170361 0)
(7.33273 0.0027482 0)
(7.33252 0.00364042 0)
(7.33235 0.00436219 0)
(7.33226 0.00491478 0)
(7.33228 0.00530887 0)
(7.33243 0.00556019 0)
(7.33272 0.00568557 0)
(7.33315 0.00570087 0)
(7.33369 0.00562018 0)
(7.33436 0.00545567 0)
(7.33512 0.00521762 0)
(7.33596 0.00491454 0)
(7.33688 0.00455342 0)
(7.33786 0.00413994 0)
(7.33889 0.00367863 0)
(7.33995 0.00317306 0)
(7.34104 0.00262601 0)
(7.34214 0.0020396 0)
(7.34326 0.00141539 0)
(7.34438 0.000754495 0)
(7.3455 5.76828e-05 0)
(7.34661 -0.000674545 0)
(7.3477 -0.00144188 0)
(7.34878 -0.00224414 0)
(7.34984 -0.00308119 0)
(7.35087 -0.0039529 0)
(7.35187 -0.004859 0)
(7.35285 -0.00579902 0)
(7.35379 -0.00677202 0)
(7.35469 -0.00777618 0)
(7.35556 -0.00880806 0)
(7.33299 0.000608339 0)
(7.33282 0.00183788 0)
(7.33248 0.00294278 0)
(7.33207 0.0038461 0)
(7.33166 0.00453337 0)
(7.33134 0.00501531 0)
(7.33114 0.00531327 0)
(7.33108 0.00545319 0)
(7.33118 0.00546025 0)
(7.33144 0.00535648 0)
(7.33183 0.00516031 0)
(7.33236 0.00488673 0)
(7.333 0.00454773 0)
(7.33375 0.00415268 0)
(7.33458 0.00370887 0)
(7.33548 0.00322186 0)
(7.33644 0.00269589 0)
(7.33744 0.00213408 0)
(7.33848 0.00153871 0)
(7.33954 0.000911383 0)
(7.34061 0.00025318 0)
(7.34169 -0.000435213 0)
(7.34277 -0.00115341 0)
(7.34385 -0.00190123 0)
(7.34492 -0.00267865 0)
(7.34596 -0.00348571 0)
(7.34699 -0.00432246 0)
(7.34799 -0.00518891 0)
(7.34897 -0.00608497 0)
(7.34992 -0.0070103 0)
(7.35083 -0.00796413 0)
(7.3517 -0.00894485 0)
(7.35254 -0.00994931 0)
(7.33298 0.000689275 0)
(7.33269 0.00208676 0)
(7.33211 0.00330643 0)
(7.33138 0.00425061 0)
(7.33066 0.0049142 0)
(7.33003 0.00532274 0)
(7.32954 0.00551281 0)
(7.32923 0.00552431 0)
(7.3291 0.00539345 0)
(7.32916 0.00515017 0)
(7.32939 0.00481839 0)
(7.32979 0.00441672 0)
(7.33032 0.00395924 0)
(7.33097 0.00345641 0)
(7.33172 0.00291588 0)
(7.33256 0.00234311 0)
(7.33347 0.00174192 0)
(7.33443 0.00111489 0)
(7.33544 0.000463687 0)
(7.33647 -0.000210722 0)
(7.33752 -0.000907857 0)
(7.33859 -0.00162759 0)
(7.33965 -0.00237003 0)
(7.34072 -0.00313543 0)
(7.34177 -0.00392415 0)
(7.34281 -0.00473656 0)
(7.34383 -0.00557299 0)
(7.34482 -0.00643371 0)
(7.34578 -0.00731886 0)
(7.34672 -0.00822833 0)
(7.34762 -0.0091616 0)
(7.34848 -0.0101174 0)
(7.3493 -0.0110928 0)
(7.33297 0.000833309 0)
(7.33247 0.00251732 0)
(7.33152 0.00392841 0)
(7.33035 0.00494838 0)
(7.32919 0.00559374 0)
(7.32814 0.00591428 0)
(7.32729 0.00596979 0)
(7.32667 0.00582051 0)
(7.32629 0.00551772 0)
(7.32614 0.00510172 0)
(7.32621 0.00460341 0)
(7.32648 0.00404572 0)
(7.32692 0.00344514 0)
(7.3275 0.00281318 0)
(7.32821 0.00215764 0)
(7.32902 0.00148365 0)
(7.32991 0.000794323 0)
(7.33086 9.1422e-05 0)
(7.33186 -0.00062429 0)
(7.3329 -0.00135271 0)
(7.33396 -0.00209419 0)
(7.33504 -0.00284935 0)
(7.33612 -0.00361897 0)
(7.3372 -0.00440391 0)
(7.33826 -0.00520502 0)
(7.33932 -0.00602314 0)
(7.34035 -0.00685901 0)
(7.34135 -0.00771325 0)
(7.34233 -0.00858631 0)
(7.34327 -0.00947842 0)
(7.34418 -0.0103894 0)
(7.34505 -0.0113182 0)
(7.34588 -0.0122627 0)
(7.33294 0.00108542 0)
(7.3321 0.00324288 0)
(7.33056 0.00494918 0)
(7.32875 0.00607888 0)
(7.32697 0.00669477 0)
(7.32539 0.0068875 0)
(7.3241 0.00675435 0)
(7.32313 0.00638637 0)
(7.32248 0.00585569 0)
(7.32214 0.00521589 0)
(7.32208 0.00450616 0)
(7.32227 0.00375407 0)
(7.32266 0.00297816 0)
(7.32322 0.00219036 0)
(7.32393 0.00139795 0)
(7.32476 0.000604991 0)
(7.32568 -0.000186693 0)
(7.32667 -0.000976742 0)
(7.32772 -0.00176575 0)
(7.3288 -0.00255488 0)
(7.32991 -0.00334564 0)
(7.33104 -0.00413969 0)
(7.33217 -0.00493871 0)
(7.33329 -0.00574435 0)
(7.33441 -0.00655816 0)
(7.3355 -0.00738156 0)
(7.33658 -0.00821582 0)
(7.33762 -0.00906202 0)
(7.33864 -0.00992104 0)
(7.33961 -0.0107935 0)
(7.34056 -0.0116796 0)
(7.34146 -0.0125789 0)
(7.34232 -0.0134895 0)
(7.33289 0.00153503 0)
(7.33145 0.0044626 0)
(7.32897 0.00659128 0)
(7.32621 0.00784352 0)
(7.3236 0.00837752 0)
(7.32135 0.0083534 0)
(7.31955 0.0079306 0)
(7.31823 0.0072471 0)
(7.31736 0.0064026 0)
(7.31689 0.005466 0)
(7.31677 0.00448474 0)
(7.31695 0.00348987 0)
(7.31737 0.00250026 0)
(7.318 0.00152653 0)
(7.31879 0.000573923 0)
(7.3197 -0.000355886 0)
(7.32072 -0.00126344 0)
(7.32182 -0.00215063 0)
(7.32297 -0.0030201 0)
(7.32416 -0.00387484 0)
(7.32537 -0.00471794 0)
(7.32659 -0.00555244 0)
(7.32782 -0.00638121 0)
(7.32904 -0.00720692 0)
(7.33024 -0.008032 0)
(7.33142 -0.00885861 0)
(7.33257 -0.00968867 0)
(7.33369 -0.0105238 0)
(7.33477 -0.0113655 0)
(7.33582 -0.0122148 0)
(7.33682 -0.0130723 0)
(7.33778 -0.0139382 0)
(7.3387 -0.0148111 0)
(7.33277 0.00237157 0)
(7.33022 0.00654493 0)
(7.32623 0.00921614 0)
(7.32209 0.0105257 0)
(7.31842 0.0108288 0)
(7.3154 0.0104062 0)
(7.31311 0.00951902 0)
(7.31152 0.0083715 0)
(7.31054 0.0070936 0)
(7.31007 0.00576678 0)
(7.31002 0.00444282 0)
(7.31033 0.00315186 0)
(7.31091 0.00190911 0)
(7.31171 0.000720566 0)
(7.31268 -0.000413132 0)
(7.31379 -0.00149457 0)
(7.315 -0.00252812 0)
(7.31628 -0.00351902 0)
(7.31762 -0.00447277 0)
(7.31898 -0.00539478 0)
(7.32037 -0.0062902 0)
(7.32175 -0.0071638 0)
(7.32314 -0.00801991 0)
(7.3245 -0.00886243 0)
(7.32584 -0.00969482 0)
(7.32715 -0.0105201 0)
(7.32843 -0.0113411 0)
(7.32967 -0.0121599 0)
(7.33086 -0.0129787 0)
(7.33201 -0.013799 0)
(7.33311 -0.0146221 0)
(7.33417 -0.0154485 0)
(7.33517 -0.0162777 0)
(7.33248 0.00395972 0)
(7.32783 0.0101479 0)
(7.32139 0.013419 0)
(7.31537 0.0145416 0)
(7.31043 0.0142651 0)
(7.30668 0.0130939 0)
(7.30407 0.0114566 0)
(7.30242 0.00963411 0)
(7.30156 0.0077721 0)
(7.30131 0.00594977 0)
(7.30155 0.00421193 0)
(7.30218 0.00257832 0)
(7.3031 0.00105295 0)
(7.30424 -0.000368087 0)
(7.30555 -0.0016924 0)
(7.30699 -0.00292938 0)
(7.30852 -0.004089 0)
(7.31011 -0.00518107 0)
(7.31173 -0.00621483 0)
(7.31337 -0.00719872 0)
(7.31502 -0.00814036 0)
(7.31666 -0.00904653 0)
(7.31827 -0.00992325 0)
(7.31986 -0.0107758 0)
(7.32141 -0.0116087 0)
(7.32292 -0.0124261 0)
(7.32438 -0.0132314 0)
(7.32579 -0.0140275 0)
(7.32715 -0.0148171 0)
(7.32846 -0.0156024 0)
(7.3297 -0.016385 0)
(7.33089 -0.0171661 0)
(7.33202 -0.0179457 0)
(7.33192 0.00692128 0)
(7.32311 0.0161293 0)
(7.31274 0.0197969 0)
(7.30431 0.0202381 0)
(7.29816 0.0187942 0)
(7.29398 0.0163291 0)
(7.29145 0.0135371 0)
(7.29019 0.0107646 0)
(7.28984 0.00812871 0)
(7.29018 0.00567837 0)
(7.29104 0.00343625 0)
(7.29228 0.00140053 0)
(7.2938 -0.000444542 0)
(7.29553 -0.0021188 0)
(7.2974 -0.00364226 0)
(7.29937 -0.00503411 0)
(7.3014 -0.00631221 0)
(7.30347 -0.00749268 0)
(7.30554 -0.00858979 0)
(7.30761 -0.00961604 0)
(7.30965 -0.0105823 0)
(7.31166 -0.0114981 0)
(7.31363 -0.0123715 0)
(7.31554 -0.0132096 0)
(7.31741 -0.0140184 0)
(7.31921 -0.0148032 0)
(7.32095 -0.0155683 0)
(7.32262 -0.0163176 0)
(7.32422 -0.0170545 0)
(7.32575 -0.0177817 0)
(7.32722 -0.0185017 0)
(7.32861 -0.0192164 0)
(7.32993 -0.019927 0)
(7.33066 0.0138143 0)
(7.31338 0.0263394 0)
(7.29717 0.0284373 0)
(7.28625 0.0270459 0)
(7.27933 0.0238635 0)
(7.27543 0.0198317 0)
(7.27379 0.0158311 0)
(7.27365 0.0121633 0)
(7.27447 0.00882959 0)
(7.27598 0.00581259 0)
(7.278 0.00310267 0)
(7.28035 0.000674266 0)
(7.28294 -0.00150507 0)
(7.28568 -0.00346566 0)
(7.2885 -0.00523433 0)
(7.29136 -0.00683545 0)
(7.29423 -0.00829124 0)
(7.29707 -0.00962144 0)
(7.29988 -0.0108433 0)
(7.30263 -0.011972 0)
(7.30531 -0.0130207 0)
(7.30792 -0.0140007 0)
(7.31045 -0.014922 0)
(7.31288 -0.0157933 0)
(7.31523 -0.0166217 0)
(7.31749 -0.0174139 0)
(7.31965 -0.0181752 0)
(7.32172 -0.0189105 0)
(7.32369 -0.0196237 0)
(7.32558 -0.0203184 0)
(7.32736 -0.0209972 0)
(7.32906 -0.0216625 0)
(7.33066 -0.0223153 0)
(7.32446 0.0352517 0)
(7.28905 0.0484111 0)
(7.26649 0.0395802 0)
(7.25597 0.0291878 0)
(7.25069 0.0198626 0)
(7.24888 0.0120137 0)
(7.24971 0.00588767 0)
(7.25202 0.00114494 0)
(7.25516 -0.00261972 0)
(7.25887 -0.00564232 0)
(7.26299 -0.00807647 0)
(7.26735 -0.0100612 0)
(7.27182 -0.0117091 0)
(7.27634 -0.013101 0)
(7.28083 -0.0142949 0)
(7.28526 -0.0153343 0)
(7.28959 -0.0162531 0)
(7.29379 -0.0170769 0)
(7.29787 -0.0178258 0)
(7.30179 -0.018515 0)
(7.30557 -0.0191568 0)
(7.30919 -0.0197607 0)
(7.31265 -0.0203344 0)
(7.31596 -0.0208838 0)
(7.31912 -0.021414 0)
(7.32212 -0.0219288 0)
(7.32498 -0.0224316 0)
(7.32769 -0.0229251 0)
(7.33026 -0.0234115 0)
(7.3327 -0.023893 0)
(7.33501 -0.0243716 0)
(7.33719 -0.0248496 0)
(7.33925 -0.0253295 0)
(7.29541 0.0831407 0)
(7.21833 0.128041 0)
(7.18707 0.129 0)
(7.18631 0.113955 0)
(7.19294 0.0941229 0)
(7.20191 0.0760766 0)
(7.21229 0.0610442 0)
(7.22295 0.0481298 0)
(7.23346 0.0368115 0)
(7.2438 0.026991 0)
(7.25384 0.0185715 0)
(7.26348 0.0113953 0)
(7.27264 0.00529349 0)
(7.28131 0.000114901 0)
(7.2895 -0.00427527 0)
(7.29721 -0.00799861 0)
(7.30446 -0.011162 0)
(7.31127 -0.0138565 0)
(7.31767 -0.0161591 0)
(7.32368 -0.0181341 0)
(7.32931 -0.0198355 0)
(7.33459 -0.0213084 0)
(7.33955 -0.0225902 0)
(7.3442 -0.0237124 0)
(7.34855 -0.0247009 0)
(7.35263 -0.0255774 0)
(7.35645 -0.02636 0)
(7.36002 -0.0270638 0)
(7.36336 -0.0277012 0)
(7.36648 -0.0282825 0)
(7.3694 -0.0288163 0)
(7.3721 -0.0293084 0)
(7.37461 -0.0297663 0)
(7.32717 -0.156815 0)
(7.19692 -0.284095 0)
(7.13361 -0.28065 0)
(7.11314 -0.247172 0)
(7.11508 -0.214564 0)
(7.13554 -0.184266 0)
(7.16563 -0.157045 0)
(7.19802 -0.134054 0)
(7.22996 -0.115244 0)
(7.26031 -0.0999231 0)
(7.28834 -0.0874245 0)
(7.31372 -0.0772502 0)
(7.33645 -0.0689913 0)
(7.3567 -0.0622903 0)
(7.37468 -0.0568455 0)
(7.39062 -0.0524142 0)
(7.40473 -0.0488025 0)
(7.4172 -0.0458547 0)
(7.42822 -0.0434454 0)
(7.43797 -0.0414737 0)
(7.44657 -0.0398587 0)
(7.45416 -0.0385355 0)
(7.46086 -0.0374518 0)
(7.46676 -0.0365652 0)
(7.47194 -0.0358415 0)
(7.47648 -0.0352531 0)
(7.48045 -0.0347772 0)
(7.48391 -0.0343955 0)
(7.4869 -0.0340927 0)
(7.48949 -0.0338563 0)
(7.4917 -0.0336753 0)
(7.49358 -0.033541 0)
(7.49518 -0.0334418 0)
(7.33086 1.21499 0)
(7.63822 1.23053 0)
(7.81865 0.920167 0)
(7.87589 0.647914 0)
(7.88918 0.449899 0)
(7.88323 0.310861 0)
(7.86187 0.212993 0)
(7.83002 0.143218 0)