/*--------------------------------*- C++ -*----------------------------------*\
| =========                 |                                                 |
| \\      /  F ield         | OpenFOAM: The Open Source CFD Toolbox           |
|  \\    /   O peration     | Version:  4.1                                   |
|   \\  /    A nd           | Web:      www.OpenFOAM.org                      |
|    \\/     M anipulation  |                                                 |
\*---------------------------------------------------------------------------*/
FoamFile
{
    version     2.0;
    format      ascii;
    class       volScalarField;
    location    "100";
    object      p;
}
// * * * * * * * * * * * * * * * * * * * * * * * * * * * * * * * * * * * * * //

dimensions      [0 2 -2 0 0 0 0];

internalField   nonuniform List<scalar> 
26785
(
0.183071
0.211222
0.221764
0.217011
0.213536
0.210352
0.205492
0.199785
0.193776
0.187497
0.181031
0.1745
0.167988
0.161555
0.155254
0.149124
0.143195
0.137482
0.131993
0.126723
0.121665
0.116804
0.112122
0.107599
0.103215
0.0989499
0.0947822
0.0906916
0.0866592
0.0826686
0.0787071
0.0747673
0.0708479
0.0669545
0.0630996
0.0593029
0.0555899
0.0519913
0.0485412
0.045276
0.0422325
0.039446
0.0369496
0.0347718
0.0329362
0.0314604
0.0303555
0.029626
0.0292685
0.0292738
0.0296254
0.0303016
0.031275
0.0325144
0.0339844
0.0356472
0.0374621
0.0393888
0.0413883
0.0434194
0.0454428
0.0474237
0.0493285
0.051126
0.0527865
0.0542828
0.0555904
0.0566885
0.0575599
0.0581915
0.058574
0.058702
0.0585736
0.0581908
0.0575583
0.0566842
0.0555789
0.0542548
0.0527262
0.0510088
0.0491189
0.0470733
0.0448892
0.042584
0.0401757
0.0376816
0.0351185
0.0325025
0.0298485
0.0271709
0.0244825
0.0217948
0.0191185
0.0164627
0.0138341
0.0112408
0.00868272
0.00615432
0.0036501
0.0011982
0.183039
0.211185
0.221731
0.216975
0.213502
0.21032
0.205462
0.199757
0.193749
0.187473
0.181009
0.17448
0.16797
0.161538
0.155239
0.149111
0.143183
0.137472
0.131983
0.126715
0.121658
0.116798
0.112117
0.107595
0.103213
0.0989492
0.0947829
0.0906938
0.0866627
0.0826731
0.0787125
0.0747733
0.0708542
0.0669605
0.0631052
0.0593074
0.0555931
0.0519927
0.0485406
0.0452731
0.042227
0.039438
0.0369388
0.0347584
0.0329203
0.0314423
0.0303355
0.0296045
0.0292459
0.0292505
0.0296019
0.0302785
0.0312526
0.0324933
0.033965
0.0356298
0.0374471
0.0393766
0.0413789
0.0434131
0.0454394
0.0474235
0.0493314
0.0511321
0.0527959
0.0542953
0.0556059
0.0567068
0.0575808
0.0582148
0.0585993
0.058729
0.0586021
0.0582203
0.0575886
0.056715
0.0556097
0.0542855
0.0527566
0.0510385
0.0491478
0.0471013
0.0449159
0.0426094
0.0401996
0.0377039
0.0351392
0.0325214
0.0298658
0.0271864
0.0244963
0.021807
0.019129
0.0164717
0.0138417
0.0112476
0.00868953
0.00616033
0.00365497
0.00119845
0.182848
0.211155
0.221658
0.216881
0.213416
0.210235
0.205376
0.199676
0.193673
0.187401
0.180942
0.174419
0.167913
0.161487
0.155192
0.149068
0.143144
0.137436
0.131951
0.126686
0.121632
0.116775
0.112097
0.107579
0.1032
0.0989396
0.0947767
0.0906909
0.0866629
0.082676
0.0787176
0.07478
0.0708617
0.0669681
0.063112
0.0593127
0.0555959
0.0519923
0.0485363
0.0452644
0.0422135
0.0394193
0.036915
0.0347296
0.0328868
0.0314045
0.030294
0.02956
0.0291993
0.0292028
0.0295539
0.0302312
0.031207
0.0324502
0.0339253
0.0355944
0.0374166
0.0393514
0.0413597
0.0433999
0.0454323
0.0474227
0.049337
0.0511442
0.0528145
0.0543203
0.055637
0.0567435
0.0576227
0.0582613
0.0586499
0.0587829
0.0586587
0.058279
0.0576487
0.0567758
0.0556708
0.0543463
0.0528165
0.0510972
0.0492049
0.0471564
0.0449686
0.0426594
0.0402466
0.0377478
0.0351797
0.0325587
0.0298996
0.0272169
0.0245235
0.0218309
0.0191498
0.0164895
0.0138569
0.0112604
0.00870178
0.00617106
0.00366329
0.00119956
0.182522
0.211165
0.221558
0.21674
0.213285
0.210101
0.205242
0.199546
0.193549
0.187283
0.180832
0.174316
0.167818
0.161398
0.155111
0.148994
0.143076
0.137375
0.131895
0.126636
0.121587
0.116735
0.112062
0.107549
0.103176
0.0989207
0.0947634
0.0906829
0.08666
0.0826776
0.0787228
0.0747879
0.0708711
0.0669779
0.0631207
0.0593191
0.0555987
0.0519903
0.0485285
0.0452498
0.0421915
0.0393896
0.0368775
0.0346844
0.0328344
0.0313456
0.0302295
0.0294911
0.0291272
0.0291289
0.0294798
0.0301583
0.0311368
0.032384
0.0338643
0.0355398
0.0373696
0.0393129
0.0413302
0.0433799
0.0454218
0.0474218
0.049346
0.0511632
0.0528435
0.054359
0.0556849
0.0568
0.0576871
0.0583327
0.0587273
0.0588655
0.0587453
0.0583687
0.0577405
0.0568687
0.055764
0.0544389
0.0529078
0.0511867
0.0492919
0.0472403
0.0450488
0.0427353
0.040318
0.0378144
0.0352414
0.0326153
0.0299511
0.0272633
0.0245648
0.0218673
0.0191815
0.0165168
0.01388
0.0112798
0.00871983
0.00618666
0.00367492
0.00120173
0.182023
0.21115
0.221421
0.216557
0.213114
0.209923
0.20506
0.199369
0.193379
0.18712
0.180678
0.174171
0.167682
0.161273
0.154995
0.148887
0.142979
0.137285
0.131813
0.126562
0.12152
0.116675
0.11201
0.107504
0.103139
0.0988918
0.0947424
0.0906695
0.0866537
0.0826776
0.078728
0.0747969
0.0708824
0.0669897
0.0631313
0.0593266
0.0556014
0.0519866
0.0485169
0.0452292
0.042161
0.0393487
0.036826
0.0346225
0.0327628
0.0312652
0.0301417
0.0293972
0.0290291
0.0290284
0.0293789
0.0300591
0.0310411
0.0322939
0.0337814
0.0354657
0.0373058
0.0392604
0.0412901
0.0433526
0.0454074
0.0474205
0.0493581
0.0511889
0.0528827
0.0544113
0.0557495
0.0568763
0.0577739
0.0584289
0.0588317
0.0589767
0.058862
0.0584895
0.057864
0.0569938
0.0558893
0.0545635
0.0530307
0.051307
0.0494089
0.047353
0.0451564
0.0428373
0.040414
0.037904
0.0353243
0.0326914
0.0300204
0.0273258
0.0246206
0.0219165
0.0192244
0.0165539
0.0139115
0.0113062
0.00874372
0.00620686
0.0036894
0.00120501
0.181711
0.211122
0.22124
0.216331
0.212902
0.209703
0.204835
0.19915
0.193166
0.186915
0.180482
0.173986
0.167509
0.161111
0.154844
0.148748
0.14285
0.137167
0.131706
0.126464
0.121432
0.116596
0.111941
0.107445
0.103089
0.0988525
0.0947134
0.0906505
0.086644
0.0826761
0.0787334
0.0748072
0.0708958
0.0670039
0.063144
0.0593356
0.0556043
0.0519814
0.0485019
0.0452028
0.0421222
0.0392967
0.0367607
0.0345442
0.0326721
0.0311634
0.0300303
0.0292783
0.0289048
0.0289012
0.0292512
0.0299334
0.03092
0.0321797
0.0336764
0.0353719
0.0372249
0.0391938
0.041239
0.0433178
0.045389
0.0474186
0.0493732
0.0512212
0.052932
0.0544771
0.055831
0.0569723
0.0578832
0.0585501
0.0589631
0.0591167
0.0590089
0.0586414
0.0580195
0.0571511
0.056047
0.0547202
0.0531852
0.0514584
0.049556
0.0474946
0.0452916
0.0429655
0.0405346
0.0380166
0.0354286
0.0327872
0.0301077
0.0274045
0.024691
0.0219788
0.0192788
0.0166009
0.0139516
0.0113399
0.00877362
0.00623165
0.00370659
0.00120949
0.18166
0.211111
0.221029
0.216069
0.212655
0.209444
0.204569
0.198889
0.192913
0.18667
0.180248
0.173763
0.167298
0.160913
0.15466
0.148577
0.142692
0.137021
0.131572
0.126342
0.121322
0.116498
0.111853
0.10737
0.103027
0.0988028
0.0946765
0.090626
0.0866309
0.0826733
0.0787389
0.0748191
0.0709114
0.0670207
0.0631591
0.0593461
0.0556077
0.0519751
0.0484836
0.0451708
0.0420751
0.0392338
0.0366816
0.0344493
0.0325624
0.0310402
0.0298956
0.0291344
0.0287543
0.028747
0.0290964
0.029781
0.0307732
0.0320412
0.033549
0.0352581
0.0371267
0.039113
0.0411768
0.0432754
0.0453664
0.047416
0.0493912
0.0512601
0.0529914
0.0545562
0.055929
0.0570879
0.0580148
0.058696
0.0591214
0.0592853
0.0591858
0.0588246
0.0582068
0.0573407
0.0562371
0.054909
0.0533714
0.0516408
0.0497332
0.0476652
0.0454545
0.04312
0.0406799
0.0381523
0.0355544
0.0329028
0.0302131
0.0274998
0.0247763
0.0220543
0.019345
0.0166583
0.0140007
0.0113812
0.00880969
0.00626099
0.00372633
0.00121515
0.18149
0.211062
0.220781
0.215771
0.212375
0.209149
0.204265
0.19859
0.192622
0.186388
0.179976
0.173504
0.167053
0.160682
0.154443
0.148374
0.142504
0.136848
0.131413
0.126196
0.121189
0.116379
0.111749
0.10728
0.102951
0.0987428
0.0946318
0.0905961
0.0866148
0.0826693
0.0787451
0.0748327
0.0709296
0.0670402
0.0631768
0.0593586
0.0556118
0.0519678
0.0484624
0.0451335
0.0420201
0.0391601
0.036589
0.0343382
0.0324337
0.0308957
0.0297375
0.0289653
0.0285775
0.0285658
0.0289144
0.0296019
0.0306004
0.0318781
0.0333989
0.0351239
0.0370109
0.0390175
0.0411032
0.043225
0.0453395
0.0474126
0.049412
0.0513052
0.0530605
0.0546486
0.0560434
0.057223
0.0581687
0.0588667
0.0593066
0.0594826
0.0593928
0.0590389
0.0584261
0.0575626
0.0564596
0.0551302
0.0535895
0.0518545
0.0499407
0.0478649
0.0456453
0.0433008
0.0408502
0.0383114
0.0357018
0.0330384
0.0303368
0.0276117
0.0248766
0.0221433
0.0194231
0.0167262
0.0140588
0.0114303
0.00885214
0.00629489
0.00374858
0.00122197
0.181235
0.211052
0.22052
0.215443
0.212062
0.208818
0.203925
0.198255
0.192294
0.186069
0.179669
0.17321
0.166773
0.160418
0.154195
0.148142
0.142288
0.136647
0.131228
0.126026
0.121035
0.11624
0.111626
0.107174
0.102863
0.0986727
0.0945796
0.0905612
0.086596
0.0826646
0.078752
0.0748484
0.0709506
0.0670629
0.0631973
0.0593732
0.0556168
0.0519599
0.0484384
0.0450911
0.0419574
0.0390761
0.0364832
0.0342109
0.0322863
0.03073
0.029556
0.0287712
0.0283744
0.0283576
0.0287051
0.0293957
0.0304014
0.0316903
0.0332259
0.034969
0.0368772
0.0389071
0.0410179
0.0431664
0.045308
0.0474081
0.0494352
0.0513564
0.0531392
0.054754
0.0561742
0.0573774
0.0583448
0.059062
0.0595186
0.0597086
0.05963
0.0592845
0.0586774
0.057817
0.0567147
0.0553838
0.0538396
0.0520994
0.0501786
0.0480939
0.045864
0.0435083
0.0410455
0.0384939
0.0358711
0.0331942
0.0304791
0.0277405
0.0249922
0.0222461
0.0195135
0.0168048
0.0141264
0.0114877
0.0089012
0.00633343
0.00377334
0.00122992
0.180848
0.211025
0.220236
0.215087
0.21172
0.208455
0.20355
0.197886
0.191933
0.185717
0.179328
0.172884
0.166462
0.160123
0.153917
0.147881
0.142044
0.136421
0.131018
0.125834
0.12086
0.116083
0.111487
0.107054
0.102763
0.098593
0.0945203
0.0905216
0.0865747
0.0826595
0.0787602
0.0748665
0.0709748
0.0670891
0.0632212
0.0593905
0.0556233
0.0519517
0.0484122
0.045044
0.0418874
0.0389818
0.0363642
0.0340678
0.0321202
0.0305431
0.0293512
0.0285521
0.0281449
0.0281221
0.0284684
0.0291624
0.0301761
0.0314774
0.0330296
0.0347932
0.0367251
0.0387814
0.0409204
0.0430992
0.0452716
0.0474023
0.0494608
0.0514135
0.0532273
0.0548722
0.0563212
0.0575511
0.058543
0.0592819
0.0597574
0.0599633
0.0598973
0.0595614
0.0589608
0.0581039
0.0570025
0.0556699
0.0541219
0.0523758
0.050447
0.0483522
0.0461108
0.0437424
0.041266
0.0387
0.0360624
0.0333704
0.0306401
0.0278864
0.0251233
0.0223628
0.0196164
0.0168946
0.0142037
0.0115536
0.00895711
0.00637666
0.00380062
0.00123895
0.180634
0.210965
0.219912
0.2147
0.211349
0.208061
0.203144
0.197485
0.191539
0.185332
0.178957
0.172527
0.166121
0.159799
0.15361
0.147593
0.141774
0.136169
0.130785
0.125619
0.120664
0.115906
0.111331
0.106919
0.102651
0.0985042
0.0944545
0.090478
0.0865516
0.0826544
0.07877
0.0748874
0.0710026
0.0671192
0.0632487
0.0594106
0.0556315
0.0519436
0.0483841
0.0449927
0.0418105
0.0388778
0.0362326
0.033909
0.0319358
0.0303353
0.0291233
0.0283079
0.0278889
0.0278594
0.028204
0.0289016
0.0299241
0.0312392
0.0328098
0.0345959
0.0365542
0.03864
0.0408105
0.043023
0.04523
0.047395
0.0494883
0.051476
0.0533246
0.0550032
0.0564841
0.057744
0.0587631
0.0595265
0.0600231
0.0602467
0.060195
0.0598698
0.0592765
0.0584237
0.0573232
0.0559887
0.0544367
0.052684
0.0507461
0.0486402
0.046386
0.0440036
0.041512
0.0389301
0.036276
0.0335672
0.03082
0.0280496
0.0252701
0.0224937
0.019732
0.0169958
0.014291
0.0116284
0.00902016
0.00642469
0.00383048
0.00124903
0.180721
0.210926
0.21957
0.21429
0.210952
0.207638
0.202707
0.197053
0.191115
0.184918
0.178555
0.17214
0.165751
0.159447
0.153276
0.147278
0.141479
0.135893
0.130528
0.125382
0.120448
0.115712
0.111159
0.106772
0.102528
0.0984069
0.0943827
0.0904307
0.0865269
0.0826498
0.0787819
0.0749116
0.0710344
0.0671535
0.0632803
0.0594342
0.0556419
0.0519361
0.0483544
0.0449374
0.0417269
0.0387643
0.0360886
0.0337349
0.0317331
0.0301067
0.0288723
0.0280387
0.0276066
0.0275692
0.0279118
0.0286132
0.0296452
0.0309752
0.032566
0.0343769
0.0363642
0.0384824
0.0406876
0.0429374
0.0451827
0.0473858
0.0495175
0.051544
0.0534308
0.0551466
0.056663
0.0579559
0.0590053
0.0597957
0.0603158
0.060559
0.0605231
0.0602099
0.0596247
0.0587764
0.0576771
0.0563406
0.0547842
0.0530241
0.0510762
0.048958
0.0466898
0.0442919
0.0417837
0.0391842
0.0365121
0.0337849
0.0310192
0.0282305
0.025433
0.0226391
0.0198606
0.0171085
0.0143885
0.0117125
0.00909063
0.00647755
0.00386293
0.00126012
0.180725
0.21085
0.2192
0.213857
0.210532
0.207189
0.202243
0.196593
0.190663
0.184475
0.178125
0.171726
0.165354
0.159068
0.152917
0.146939
0.141159
0.135594
0.13025
0.125125
0.120213
0.1155
0.110972
0.106611
0.102395
0.0983017
0.0943054
0.0903803
0.0865013
0.082646
0.0787962
0.0749394
0.0710705
0.0671924
0.0633164
0.0594616
0.0556549
0.0519296
0.0483238
0.0448787
0.0416372
0.0386418
0.0359325
0.0335457
0.0315125
0.0298575
0.0285982
0.0277445
0.0272976
0.0272515
0.0275916
0.0282968
0.029339
0.0306852
0.0322978
0.0341357
0.0361546
0.0383081
0.0405513
0.0428419
0.0451294
0.0473742
0.049548
0.0516169
0.0535457
0.0553023
0.0568576
0.0581868
0.0592695
0.0600895
0.0606354
0.0609003
0.0608819
0.0605818
0.0600056
0.0591624
0.0580644
0.0567257
0.0551645
0.0533964
0.0514376
0.049306
0.0470226
0.0446078
0.0420814
0.0394628
0.0367709
0.0340237
0.0312379
0.0284293
0.0256123
0.0227993
0.0200026
0.0172332
0.0144965
0.0118063
0.00916889
0.00653531
0.00389803
0.00127221
0.180664
0.210801
0.218818
0.213404
0.210089
0.206715
0.201753
0.196107
0.190184
0.184005
0.177669
0.171286
0.164932
0.158664
0.152533
0.146575
0.140817
0.135273
0.129951
0.124849
0.119959
0.115272
0.110771
0.106438
0.102252
0.0981893
0.0942233
0.0903273
0.0864752
0.0826436
0.0788133
0.0749711
0.0711114
0.0672365
0.0633573
0.0594932
0.0556711
0.0519246
0.0482926
0.044817
0.0415419
0.0385106
0.0357647
0.0333418
0.0312743
0.0295879
0.0283013
0.0274254
0.0269621
0.0269061
0.0272431
0.0279522
0.0290051
0.0303687
0.0320048
0.0338718
0.0359248
0.0381167
0.0404012
0.0427361
0.0450696
0.0473601
0.0495796
0.0516946
0.0536691
0.0554701
0.0570677
0.0584367
0.0595556
0.0604081
0.0609822
0.0612708
0.0612715
0.0609858
0.0604196
0.059582
0.0584855
0.0571445
0.0555781
0.0538015
0.0518307
0.0496846
0.0473846
0.0449515
0.0424055
0.0397662
0.0370529
0.034284
0.0314765
0.0286463
0.0258081
0.0229746
0.0201582
0.0173701
0.0146151
0.0119101
0.0092552
0.00659806
0.00393584
0.00128529
0.180493
0.210743
0.218421
0.212931
0.209624
0.206217
0.201238
0.195596
0.189679
0.183511
0.177188
0.170821
0.164484
0.158236
0.152126
0.146189
0.140452
0.134931
0.129631
0.124553
0.119689
0.115028
0.110556
0.106254
0.1021
0.0980702
0.0941369
0.0902722
0.0864491
0.0826429
0.0788336
0.0750073
0.0711575
0.0672861
0.0634037
0.0595296
0.0556909
0.0519217
0.0482614
0.0447529
0.0414413
0.0383713
0.0355857
0.0331236
0.0310186
0.0292979
0.0279815
0.0270811
0.0265998
0.0265327
0.026866
0.0275789
0.0286432
0.0300252
0.0316864
0.0335846
0.0356743
0.0379076
0.0402367
0.0426193
0.0450027
0.0473429
0.049612
0.0517767
0.0538007
0.0556498
0.0572934
0.0587053
0.0598637
0.0607514
0.0613562
0.0616707
0.0616922
0.0614223
0.0608669
0.0600355
0.0589408
0.0575974
0.0560253
0.0542395
0.0522559
0.0500941
0.0477762
0.0453235
0.0427562
0.0400947
0.0373584
0.0345661
0.0317352
0.0288818
0.0260209
0.0231652
0.0203278
0.0175194
0.0147449
0.0120241
0.00934976
0.00666592
0.00397646
0.00129939
0.18046
0.210646
0.217992
0.212438
0.209138
0.205696
0.200699
0.195061
0.189151
0.182992
0.176683
0.170332
0.164014
0.157786
0.151696
0.145781
0.140067
0.134569
0.129293
0.124239
0.119401
0.114769
0.110328
0.106059
0.10194
0.0979451
0.0940467
0.0902155
0.0864233
0.0826443
0.0788576
0.0750483
0.0712092
0.0673417
0.063456
0.0595713
0.055715
0.0519214
0.0482308
0.044687
0.0413362
0.0382244
0.0353959
0.0328913
0.0307458
0.0289879
0.0276389
0.0267119
0.0262107
0.0261312
0.02646
0.0271767
0.0282527
0.0296543
0.0313421
0.0332736
0.0354025
0.0376801
0.0400573
0.0424909
0.0449281
0.0473222
0.0496446
0.051863
0.0539402
0.0558412
0.0575344
0.0589928
0.0601938
0.0611197
0.0617577
0.0621002
0.0621443
0.0618916
0.0613481
0.0605234
0.0594307
0.0580847
0.0565067
0.054711
0.0527136
0.050535
0.048198
0.0457241
0.0431341
0.0404487
0.0376878
0.0348704
0.0320144
0.0291362
0.026251
0.0233717
0.0205116
0.0176815
0.014886
0.0121487
0.00945269
0.00673902
0.00402003
0.00131452
0.180704
0.210564
0.217547
0.211928
0.208633
0.205153
0.200138
0.194504
0.188601
0.182451
0.176156
0.169822
0.163522
0.157314
0.151245
0.145353
0.139662
0.134187
0.128936
0.123908
0.119098
0.114497
0.110088
0.105854
0.101772
0.0978147
0.0939533
0.0901577
0.0863983
0.0826483
0.0788856
0.0750945
0.071267
0.0674037
0.0635147
0.0596189
0.0557438
0.0519243
0.0482013
0.0446198
0.041227
0.0380703
0.0351958
0.0326454
0.0304561
0.028658
0.0272737
0.0263176
0.0257946
0.0257012
0.0260249
0.026745
0.0278332
0.0292552
0.0309712
0.0329381
0.0351088
0.0374337
0.0398623
0.0423505
0.0448453
0.0472975
0.049677
0.0519529
0.0540874
0.0560442
0.0577907
0.0592991
0.0605459
0.0615129
0.0621869
0.0625596
0.0626282
0.0623941
0.0618634
0.0610461
0.0599557
0.0586072
0.0570226
0.0552165
0.0532044
0.0510079
0.0486504
0.0461538
0.0435396
0.0408286
0.0380414
0.0351974
0.0323146
0.02941
0.0264988
0.0235942
0.0207101
0.0178566
0.015039
0.0122842
0.00956409
0.00681748
0.00406666
0.00133072
0.180874
0.210453
0.217084
0.211405
0.208111
0.204591
0.199558
0.193926
0.188029
0.181889
0.175608
0.16929
0.163009
0.156822
0.150775
0.144905
0.139237
0.133787
0.128561
0.12356
0.11878
0.114211
0.109837
0.10564
0.101597
0.0976793
0.0938572
0.0900991
0.0863744
0.0826551
0.078918
0.0751463
0.0713312
0.0674726
0.0635802
0.0596728
0.055778
0.0519311
0.0481737
0.0445519
0.0411143
0.0379097
0.0349858
0.0323863
0.0301499
0.0283084
0.0268859
0.0258982
0.0253513
0.0252426
0.0255601
0.0262834
0.0273841
0.0288275
0.0305732
0.0325774
0.0347924
0.0371675
0.039651
0.0421973
0.0447538
0.0472682
0.0497089
0.0520463
0.0542419
0.0562584
0.0580621
0.0596241
0.0609202
0.0619314
0.0626439
0.0630493
0.0631442
0.0629302
0.0624134
0.0616042
0.0605163
0.0591652
0.0575738
0.0557565
0.0537287
0.0515131
0.0491338
0.0466132
0.0439731
0.0412349
0.0384197
0.0355473
0.0326361
0.0297034
0.0267646
0.0238333
0.0209236
0.0180451
0.0152042
0.0124308
0.00968401
0.00690144
0.00411649
0.00134803
0.180978
0.210357
0.216609
0.210866
0.207572
0.204011
0.198958
0.193328
0.187437
0.181306
0.175039
0.168739
0.162477
0.15631
0.150286
0.144439
0.138795
0.133369
0.12817
0.123198
0.118448
0.113913
0.109576
0.105418
0.101416
0.0975397
0.0937587
0.0900402
0.0863521
0.0826652
0.0789551
0.075204
0.0714022
0.0675489
0.0636532
0.0597337
0.0558181
0.0519423
0.0481486
0.0444841
0.0409988
0.0377431
0.0347664
0.0321144
0.0298274
0.0279393
0.0264756
0.0254537
0.0248806
0.0247551
0.0250653
0.0257914
0.0269048
0.0283704
0.0301473
0.0321908
0.0344525
0.0368808
0.0394225
0.0420306
0.0446529
0.0472338
0.0497397
0.0521426
0.0544034
0.0564837
0.0583485
0.0599679
0.0613167
0.0623753
0.0631292
0.0635695
0.0636927
0.0635004
0.0629987
0.0621982
0.0611132
0.0597594
0.0581608
0.0563316
0.0542873
0.0520514
0.049649
0.0471028
0.0444352
0.0416682
0.0388233
0.0359208
0.0329794
0.0300169
0.0270489
0.0240892
0.0211526
0.0182474
0.0153824
0.0125886
0.00981237
0.00699102
0.00416965
0.00136647
0.180983
0.210256
0.216124
0.210315
0.207018
0.203413
0.19834
0.192713
0.186827
0.180706
0.174452
0.168169
0.161926
0.15578
0.149778
0.143955
0.138335
0.132935
0.127763
0.12282
0.118103
0.113603
0.109305
0.105188
0.101229
0.0973961
0.0936584
0.0899812
0.0863315
0.0826787
0.0789973
0.0752681
0.0714806
0.0676331
0.0637342
0.0598022
0.055865
0.0519587
0.0481267
0.044417
0.0408811
0.0375712
0.0345383
0.0318302
0.0294892
0.0275509
0.0260429
0.0249839
0.0243825
0.0242382
0.02454
0.0252684
0.0263946
0.0278833
0.0296927
0.0317775
0.0340883
0.0365728
0.0391762
0.0418497
0.0445418
0.0471936
0.049769
0.0522414
0.0545717
0.0567198
0.0586497
0.0603303
0.0617355
0.0628447
0.063643
0.0641207
0.0642744
0.0641053
0.0636199
0.0628289
0.061747
0.0603905
0.0587842
0.0569425
0.0548807
0.0526234
0.0501964
0.0476232
0.0449265
0.042129
0.0392526
0.0363182
0.0333449
0.030351
0.0273521
0.0243626
0.0213974
0.0184636
0.0155741
0.0127583
0.00994899
0.00708627
0.0042262
0.00138606
0.181086
0.210117
0.215614
0.209749
0.206448
0.202799
0.197706
0.19208
0.1862
0.180087
0.173848
0.167582
0.161358
0.155233
0.149254
0.143454
0.137859
0.132485
0.127341
0.122429
0.117746
0.113282
0.109024
0.104951
0.101036
0.0972492
0.0935565
0.0899226
0.0863131
0.0826961
0.0790448
0.0753389
0.0715667
0.0677257
0.0638238
0.0598789
0.0559192
0.0519811
0.0481087
0.0443514
0.0407621
0.0373947
0.0343021
0.0315342
0.0291355
0.0271436
0.0255879
0.0244889
0.0238567
0.0236917
0.0239839
0.0247139
0.025853
0.0273654
0.0292086
0.0313366
0.033699
0.0362425
0.038911
0.0416539
0.0444198
0.0471469
0.0497961
0.0523424
0.0547463
0.0569665
0.0589656
0.0607114
0.0621766
0.06334
0.0641855
0.0647034
0.0648896
0.0647455
0.0642776
0.0634968
0.0624184
0.0610593
0.0594448
0.0575899
0.0555096
0.0532298
0.0507768
0.048175
0.0454475
0.0426178
0.0397082
0.0367401
0.0337332
0.0307061
0.0276747
0.0246537
0.0216586
0.0186944
0.01578
0.01294
0.0100937
0.00718718
0.00428622
0.00140684
0.181426
0.209984
0.21509
0.209171
0.205863
0.202168
0.197055
0.191431
0.185555
0.179452
0.173226
0.166978
0.160774
0.15467
0.148713
0.142937
0.137367
0.13202
0.126905
0.122025
0.117377
0.112952
0.108736
0.104707
0.100839
0.0970992
0.0934533
0.0898646
0.086297
0.0827176
0.079098
0.0754167
0.0716609
0.0678271
0.0639224
0.0599645
0.0559814
0.0520101
0.0480955
0.0442881
0.0406424
0.0372142
0.0340583
0.0312269
0.0287667
0.0267175
0.0251107
0.0239687
0.023303
0.0231153
0.0233964
0.0241272
0.0252792
0.0268159
0.0286943
0.0308673
0.0332836
0.0358891
0.0386262
0.0414421
0.0442861
0.047093
0.0498205
0.0524449
0.0549268
0.0572235
0.0592962
0.0611112
0.0626403
0.0638612
0.0647573
0.0653179
0.065539
0.0654216
0.0649724
0.0642028
0.0631282
0.0617666
0.0601434
0.0582746
0.0561749
0.0538712
0.051391
0.0487589
0.045999
0.0431352
0.0401906
0.0371871
0.0341448
0.0310827
0.0280171
0.0249632
0.0219364
0.0189405
0.0160008
0.0131336
0.0102464
0.0072938
0.00434974
0.00142881
0.181694
0.209826
0.214553
0.208583
0.205266
0.201523
0.19639
0.190766
0.184896
0.178801
0.17259
0.166358
0.160173
0.154091
0.148157
0.142405
0.136861
0.131541
0.126456
0.121608
0.116997
0.112612
0.10844
0.104457
0.100637
0.0969466
0.0933493
0.0898073
0.0862835
0.0827433
0.0791571
0.0755019
0.0717637
0.0679379
0.0640308
0.0600597
0.0560524
0.0520466
0.0480878
0.0442279
0.0405229
0.0370305
0.0338077
0.030909
0.0283834
0.026273
0.0246115
0.0234232
0.0227211
0.0225086
0.022777
0.0235078
0.0246724
0.0262341
0.0281487
0.0303685
0.0328411
0.0355114
0.0383207
0.0412135
0.0441397
0.0470312
0.0498416
0.0525486
0.0551129
0.0574905
0.0596411
0.0615296
0.0631266
0.0644088
0.0653585
0.0659649
0.066223
0.0661343
0.0657052
0.0649476
0.0638773
0.0625131
0.060881
0.0589975
0.0568774
0.0545487
0.0520396
0.0493757
0.0465816
0.043682
0.0407006
0.0376597
0.0345802
0.0314815
0.0283799
0.0252915
0.0222314
0.0192027
0.0162379
0.0133393
0.0104063
0.00740617
0.00441684
0.00145201
0.18189
0.209675
0.214005
0.207985
0.204656
0.200864
0.19571
0.190087
0.184221
0.178135
0.171938
0.165723
0.159558
0.153497
0.147586
0.141859
0.136341
0.131049
0.125994
0.12118
0.116606
0.112263
0.108136
0.104201
0.100431
0.0967915
0.0932444
0.0897511
0.0862728
0.0827735
0.0792223
0.0755948
0.0718754
0.0680585
0.0641494
0.060165
0.056133
0.0520914
0.0480866
0.0441717
0.0404045
0.0368444
0.033551
0.0305809
0.0279859
0.0258105
0.0240905
0.0228523
0.022111
0.0218712
0.0221252
0.022855
0.024032
0.025619
0.0275711
0.0298394
0.0323705
0.0351086
0.0379934
0.0409672
0.0439797
0.0469605
0.0498588
0.0526528
0.0553041
0.0577673
0.0600003
0.0619667
0.0636357
0.0649829
0.0659898
0.0666447
0.0669425
0.0668843
0.0664768
0.0657321
0.0646666
0.0632997
0.0616584
0.0597596
0.057618
0.0552629
0.0527235
0.0500261
0.0471961
0.0442588
0.0412387
0.0381586
0.0350401
0.0319028
0.0287635
0.0256392
0.022544
0.019482
0.016492
0.0135575
0.0105734
0.00752434
0.00448752
0.00147645
0.181993
0.20952
0.213451
0.207378
0.204035
0.200193
0.195018
0.189395
0.183533
0.177456
0.171272
0.165075
0.158929
0.15289
0.147002
0.141299
0.135807
0.130544
0.12552
0.120742
0.116207
0.111907
0.107826
0.103941
0.100222
0.0966342
0.0931391
0.089696
0.0862649
0.0828085
0.079294
0.0756957
0.0719965
0.0681895
0.064279
0.0602813
0.056224
0.0521453
0.0480926
0.0441204
0.0402879
0.0366569
0.033289
0.0302435
0.0275749
0.0253302
0.0235477
0.0222561
0.0214725
0.0212028
0.0214404
0.0221682
0.0233571
0.0249697
0.0269603
0.0292788
0.0318707
0.0346793
0.0376432
0.0407022
0.043805
0.04688
0.0498714
0.0527571
0.0554999
0.0580534
0.0603735
0.0624223
0.0641677
0.0655839
0.0666515
0.067358
0.067698
0.0676724
0.0672881
0.0665573
0.065497
0.0641274
0.0624768
0.0605619
0.0583978
0.0560149
0.0534436
0.050711
0.0478433
0.0448664
0.0418056
0.0386844
0.035525
0.0323473
0.0291686
0.0260069
0.0228746
0.0197789
0.016763
0.0137883
0.0107484
0.00764844
0.0045618
0.00150212
0.182161
0.209327
0.212877
0.20676
0.203402
0.199509
0.194314
0.188691
0.182832
0.176763
0.170594
0.164413
0.158287
0.152269
0.146405
0.140726
0.135261
0.130027
0.125035
0.120293
0.115798
0.111542
0.107509
0.103675
0.100009
0.0964749
0.0930332
0.0896421
0.0862601
0.0828482
0.0793723
0.0758049
0.0721273
0.0683313
0.0644201
0.0604092
0.0563261
0.0522092
0.0481069
0.0440749
0.0401742
0.0364687
0.0330224
0.0298974
0.0271508
0.0248325
0.0229835
0.0216347
0.0208053
0.020503
0.0207223
0.0214465
0.0226468
0.0242854
0.0263154
0.0286856
0.0313406
0.0342226
0.037269
0.0404173
0.0436147
0.0467888
0.0498786
0.0528607
0.0556999
0.0583485
0.0607606
0.0628965
0.0647226
0.066212
0.067344
0.0681055
0.0684904
0.0684996
0.0681399
0.0674242
0.0663696
0.0649974
0.0633371
0.0614053
0.0592176
0.0568055
0.0542008
0.0514313
0.0485239
0.0455055
0.0424021
0.0392378
0.0360355
0.0328157
0.0295957
0.0263949
0.0232234
0.0200943
0.0170515
0.014032
0.0109319
0.00777867
0.00463977
0.00152906
0.182525
0.209133
0.212289
0.206132
0.202757
0.198813
0.193597
0.187974
0.182118
0.176059
0.169902
0.163739
0.157633
0.151637
0.145795
0.140142
0.134703
0.129498
0.12454
0.119835
0.115381
0.111171
0.107187
0.103405
0.0997927
0.0963138
0.0929271
0.0895895
0.0862583
0.0828928
0.0794573
0.0759226
0.0722683
0.0684845
0.0645734
0.0605495
0.0564402
0.0522841
0.0481305
0.0440363
0.0400644
0.0362808
0.0327522
0.0295434
0.0267144
0.024318
0.022398
0.020988
0.0201093
0.0197714
0.0199701
0.0206894
0.0219005
0.0235651
0.0256354
0.0280588
0.030779
0.0337372
0.0368696
0.0401114
0.0434077
0.0466859
0.0498796
0.052963
0.0559035
0.0586522
0.0611613
0.0633892
0.0653008
0.0668675
0.0680678
0.0688876
0.0693203
0.0693666
0.0690333
0.0683337
0.0672855
0.0659107
0.0642405
0.0622911
0.0600786
0.057636
0.0549962
0.0521879
0.049239
0.046177
0.0430289
0.0398195
0.0365724
0.0333084
0.0300455
0.0268038
0.023591
0.0204283
0.0173577
0.0142887
0.0111242
0.00791531
0.00472155
0.00155731
0.182816
0.208916
0.211692
0.205498
0.202103
0.198106
0.19287
0.187246
0.181394
0.175342
0.1692
0.163053
0.156967
0.150992
0.145174
0.139546
0.134135
0.12896
0.124036
0.119368
0.114957
0.110793
0.106859
0.10313
0.0995734
0.0961509
0.0928207
0.0895383
0.0862596
0.0829425
0.0795493
0.0760491
0.0724197
0.0686495
0.0647394
0.0607029
0.0565671
0.0523709
0.0481643
0.0440056
0.0399595
0.0360943
0.0324793
0.0291822
0.0262662
0.0237871
0.0217916
0.0203162
0.0193844
0.0190077
0.0191833
0.019896
0.0211171
0.0228077
0.0249191
0.0273972
0.0301846
0.0332216
0.0364436
0.0397831
0.0431828
0.0465704
0.0498735
0.0530632
0.0561101
0.0589642
0.0615754
0.0639004
0.0659022
0.0675509
0.0688236
0.0697052
0.0701887
0.0702744
0.0699693
0.069287
0.0682459
0.0668686
0.0651881
0.0632205
0.060982
0.0585074
0.0558307
0.0529818
0.0499893
0.0468818
0.0436869
0.0404303
0.0371363
0.0338263
0.0305186
0.0272341
0.0239783
0.0207815
0.0176813
0.0145584
0.0113259
0.00805871
0.00480733
0.00158694
0.183033
0.2087
0.211087
0.204855
0.201438
0.197389
0.192133
0.186508
0.180658
0.174615
0.168486
0.162357
0.156289
0.150336
0.144542
0.138939
0.133555
0.128412
0.123522
0.118894
0.114526
0.110409
0.106527
0.102852
0.0993512
0.0959863
0.0927139
0.0894883
0.086264
0.0829972
0.0796484
0.0761846
0.0725819
0.0688269
0.0649188
0.0608703
0.0567078
0.0524706
0.0482094
0.0439839
0.0398607
0.0359103
0.0322046
0.0288147
0.025807
0.0232403
0.0211646
0.0196193
0.0186305
0.0182115
0.0183614
0.0190657
0.0202958
0.0220124
0.0241654
0.0266995
0.0295561
0.0326746
0.0359896
0.039431
0.0429388
0.0464412
0.0498593
0.0531607
0.0563191
0.0592839
0.0620027
0.0644299
0.066527
0.0682624
0.0696117
0.070559
0.0710963
0.071224
0.070949
0.0702854
0.0692519
0.0678723
0.0661813
0.0641947
0.0619291
0.0594208
0.0567056
0.0538141
0.050776
0.0476207
0.0443769
0.041071
0.0377281
0.0343699
0.0310157
0.0276864
0.0243863
0.0211547
0.0180217
0.0148409
0.0115375
0.0082093
0.0048973
0.00161802
0.18316
0.208479
0.210476
0.204205
0.200765
0.196662
0.191385
0.185759
0.179912
0.173878
0.167762
0.16165
0.155602
0.149671
0.143899
0.138322
0.132967
0.127854
0.123
0.118412
0.114088
0.11002
0.106189
0.102569
0.0991261
0.09582
0.0926068
0.0894397
0.0862715
0.0830569
0.0797545
0.0763294
0.0727554
0.0690171
0.0651122
0.0610523
0.0568632
0.0525843
0.0482669
0.0439724
0.039769
0.0357297
0.0319293
0.028442
0.0253375
0.0226782
0.0205174
0.0188976
0.0178474
0.0173825
0.0175038
0.0181976
0.0194356
0.0211778
0.0233732
0.0259644
0.0288921
0.0320947
0.035506
0.0390537
0.0426744
0.046297
0.0498361
0.0532545
0.0565299
0.0596109
0.0624427
0.0649778
0.0671754
0.0690024
0.0704327
0.0714496
0.0720442
0.0722166
0.0719737
0.07133
0.070305
0.0689232
0.0672214
0.0652152
0.0629211
0.0603776
0.0576219
0.0546859
0.0516
0.0483948
0.0450998
0.0417424
0.0383484
0.03494
0.0315377
0.0281613
0.0248164
0.0215492
0.0183782
0.0151355
0.0117593
0.00836744
0.00499167
0.00165061
0.183327
0.208221
0.209849
0.203547
0.200082
0.195926
0.190629
0.185001
0.179157
0.17313
0.167029
0.160933
0.154905
0.148995