/*--------------------------------*- C++ -*----------------------------------*\
| =========                 |                                                 |
| \\      /  F ield         | OpenFOAM: The Open Source CFD Toolbox           |
|  \\    /   O peration     | Version:  4.1                                   |
|   \\  /    A nd           | Web:      www.OpenFOAM.org                      |
|    \\/     M anipulation  |                                                 |
\*---------------------------------------------------------------------------*/
FoamFile
{
    version     2.0;
    format      ascii;
    class       surfaceScalarField;
    location    "100";
    object      phi;
}
// * * * * * * * * * * * * * * * * * * * * * * * * * * * * * * * * * * * * * //

dimensions      [0 3 -1 0 0 0 0];

internalField   nonuniform List<scalar> 
52920
(
197.718
5.76516
192.018
5.69972
186.54
5.47726
181.173
5.36662
175.888
5.28517
170.674
5.2137
165.523
5.15072
160.44
5.08255
155.44
4.99993
150.541
4.89894
145.763
4.77736
141.128
4.63474
136.655
4.47275
132.36
4.29471
128.255
4.10526
124.345
3.90984
120.63
3.7141
117.106
3.52331
113.764
3.34177
110.592
3.17218
107.576
3.01511
104.707
2.86883
101.977
2.72975
99.3832
2.59335
96.9272
2.45563
94.6126
2.31418
92.4433
2.16888
90.4212
2.02176
88.5444
1.87639
86.8071
1.73689
85.1996
1.60709
83.7093
1.48981
82.3222
1.38662
81.0239
1.29779
79.8008
1.22259
78.6408
1.15955
77.5335
1.10684
76.4705
1.06242
75.4457
1.0243
74.4546
0.990573
73.4945
0.959543
72.5642
0.929751
71.6636
0.900073
70.7934
0.869695
69.955
0.837961
69.1503
0.80418
68.3819
0.767561
67.6542
0.72731
66.9709
0.682581
66.3375
0.633204
65.7573
0.579516
65.2345
0.522597
64.77
0.463838
64.3655
0.404276
64.0213
0.343665
63.7402
0.280998
63.5243
0.215478
63.3777
0.146468
63.3054
0.071901
63.3088
-0.00345553
63.3818
-0.0732323
63.5192
-0.137392
63.7154
-0.196485
63.9662
-0.250753
64.266
-0.299981
64.6085
-0.342475
64.9856
-0.377319
65.3895
-0.403796
65.8108
-0.421472
66.2409
-0.430014
66.6701
-0.42939
67.0898
-0.419642
67.4908
-0.401107
67.8651
-0.374297
68.2052
-0.340168
68.5051
-0.299863
68.7596
-0.254605
68.9652
-0.205588
69.1197
-0.154558
69.2239
-0.104215
69.2815
-0.057711
69.2979
-0.0163416
69.2759
0.021889
69.2169
0.0590316
69.1222
0.0945454
68.9953
0.126914
68.8405
0.154787
68.6633
0.177141
68.4701
0.193225
68.2678
0.202303
68.064
0.20367
67.8668
0.197198
67.6857
0.181124
67.5311
0.154637
67.418
0.113001
67.3889
0.029104
67.5025
-0.113642
67.7469
-0.244349
68.1023
-0.355422
-0.419231
203.52
10.2919
199.096
10.1238
194.554
10.0193
189.833
10.0878
185
10.117
180.083
10.131
175.1
10.1337
170.086
10.0957
165.079
10.0073
160.11
9.86752
155.212
9.67466
150.417
9.42988
145.751
9.13818
141.238
8.80729
136.896
8.44711
132.736
8.06902
128.765
7.68485
124.982
7.30585
121.382
6.94155
117.955
6.59858
114.691
6.27944
111.577
5.98191
108.607
5.69958
105.776
5.42364
103.086
5.14562
100.54
4.85986
98.1429
4.56516
95.8994
4.26481
93.8098
3.96561
91.8702
3.67601
90.0726
3.40422
88.4051
3.15676
86.8535
2.93765
85.4026
2.74822
84.0371
2.58751
82.7433
2.45289
81.5089
2.34066
80.3241
2.24667
79.1812
2.16664
78.0746
2.09651
77.001
2.03258
75.9585
1.97162
74.947
1.91108
73.967
1.84907
73.0204
1.78411
72.1091
1.71481
71.2361
1.63966
70.4059
1.55709
69.6223
1.46546
68.8914
1.36384
68.2176
1.25255
67.6068
1.13317
67.0619
1.00808
66.5863
0.879645
66.1808
0.748558
65.8485
0.613169
65.5911
0.472414
65.4123
0.325124
65.317
0.166863
65.3079
0.00556283
65.3802
-0.14582
65.528
-0.285284
65.7449
-0.413605
66.0251
-0.530909
66.361
-0.63613
66.745
-0.726368
67.1673
-0.799782
67.6185
-0.854971
68.0879
-0.891027
68.5654
-0.907418
69.04
-0.904164
69.502
-0.881562
69.9412
-0.840419
70.3489
-0.781984
70.717
-0.70834
71.0391
-0.622007
71.31
-0.525572
71.5261
-0.421652
71.6853
-0.313853
71.789
-0.207958
71.842
-0.110803
71.8501
-0.024372
71.8155
0.0564146
71.7395
0.134955
71.6247
0.209294
71.4751
0.276458
71.2959
0.334012
71.093
0.38001
70.873
0.413097
70.6434
0.431904
70.412
0.435029
70.1872
0.422025
69.9789
0.38933
69.7977
0.33585
69.6516
0.259133
69.56
0.120704
69.5736
-0.127275
69.7066
-0.377353
69.9397
-0.588502
-0.754111
206.327
14.4903
202.366
14.085
198.347
14.038
194.15
14.2843
189.799
14.4679
185.296
14.6339
180.652
14.7778
175.9
14.8471
171.08
14.8272
166.23
14.7173
161.389
14.5149
156.597
14.2223
151.887
13.8476
147.291
13.4031
142.834
12.9042
138.534
12.3685
134.404
11.8147
130.448
11.2607
126.667
10.7224
123.054
10.2113
119.601
9.73278
116.297
9.28473
113.138
8.85823
110.121
8.44024
107.249
8.01773
104.527
7.58176
101.961
7.13004
99.5584
6.6674
97.3194
6.20421
95.2413
5.7537
93.3161
5.32898
91.5317
4.94068
89.8733
4.59563
88.3246
4.29647
86.8695
4.04215
85.493
3.82884
84.1822
3.65094
82.9264
3.50202
81.7171
3.37545
80.5482
3.26485
79.4158
3.16445
78.3177
3.06919
77.2532
2.975
76.223
2.87883
75.2283
2.77832
74.2712
2.67134
73.3543
2.55568
72.4821
2.42898
71.6581
2.28875
70.8885
2.13316
70.1781
1.96226
69.5331
1.77798
68.9571
1.58337
68.455
1.3816
68.028
1.175
67.6786
0.962431
67.408
0.742544
67.2189
0.514085
67.1145
0.27092
67.0975
0.0224872
67.1641
-0.212714
67.3081
-0.429227
67.5221
-0.62791
67.7998
-0.808553
68.1321
-0.968631
68.5101
-1.10436
68.9235
-1.21331
69.3621
-1.29353
69.8147
-1.34377
70.2708
-1.36349
70.7194
-1.35291
71.1506
-1.31272
71.5544
-1.24435
71.9224
-1.14995
72.2469
-1.03292
72.5221
-0.897224
72.7432
-0.746784
72.9073
-0.585772
73.0132
-0.419803
73.0637
-0.258405
73.0657
-0.11294
73.025
0.0163731
72.9423
0.13905
72.8193
0.257951
72.6594
0.369049
72.4678
0.468109
72.25
0.551795
72.0125
0.617428
71.7624
0.663172
71.5071
0.687193
71.2546
0.687516
71.0134
0.663231
70.7933
0.609389
70.6038
0.525339
70.4511
0.41177
70.3463
0.225598
70.3234
-0.104453
70.4015
-0.455416
70.5612
-0.748212
-1.02763
207.42
18.5552
203.627
17.8778
199.819
17.846
195.879
18.2235
191.814
18.5331
187.607
18.8409
183.252
19.1321
178.769
19.3295
174.186
19.4103
169.533
19.3698
164.846
19.2013
160.163
18.9053
155.52
18.4907
150.95
17.9725
146.484
17.3703
142.144
16.7076
137.949
16.0095
133.908
15.3011
130.025
14.6049
126.298
13.938
122.722
13.3088
119.291
12.7153
116.003
12.1462
112.858
11.584
109.864
11.0116
107.028
10.4174
104.359
9.79894
101.862
9.1635
99.5401
8.52591
97.3886
7.90478
95.3986
7.31845
93.557
6.78182
91.8477
6.30447
90.2534
5.89025
88.7572
5.53787
87.3433
5.24214
85.9983
4.99545
84.7108
4.78895
83.4722
4.61353
82.276
4.46046
81.1181
4.32181
79.996
4.19068
78.9091
4.06143
77.8575
3.92981
76.8428
3.79254
75.8668
3.64673
74.9322
3.48943
74.0432
3.31759
73.2034
3.12789
72.4186
2.91763
71.6936
2.68661
71.0343
2.43698
70.4447
2.17235
69.9296
1.89644
69.4916
1.61247
69.1327
1.32109
68.8532
1.02159
68.6549
0.712276
68.5392
0.386218
68.5091
0.0525784
68.5619
-0.265861
68.6913
-0.558636
68.8901
-0.826852
69.1511
-1.06961
69.4647
-1.28235
69.8213
-1.461
70.2105
-1.60266
70.622
-1.70494
71.0445
-1.76643
71.4676
-1.78658
71.8806
-1.76595
72.2735
-1.70566
72.6369
-1.60785
72.9627
-1.47568
73.2437
-1.31405
73.4747
-1.12823
73.6513
-0.923473
73.7712
-0.705582
73.8338
-0.482487
73.844
-0.268671
73.8103
-0.0793373
73.7364
0.0902808
73.622
0.253435
73.4695
0.410436
73.2832
0.555228
73.0687
0.682641
72.8318
0.788595
72.5794
0.869833
72.3184
0.924121
72.0563
0.949289
71.8008
0.942927
71.5604
0.903693
71.344
0.825666
71.1603
0.709068
71.0149
0.557169
70.915
0.325479
70.8809
-0.0703384
70.9287
-0.503285
71.0405
-0.859983
-1.25235
207.242
22.5307
203.547
21.5717
199.855
21.5385
196.061
22.0175
192.163
22.43
188.144
22.8605
183.991
23.2846
179.717
23.6035
175.34
23.7871
170.882
23.8271
166.372
23.7115
161.84
23.4371
157.318
23.0118
152.84
22.4508
148.434
21.7762
144.125
21.0155
139.935
20.1995
135.876
19.3599
131.955
18.5257
128.173
17.7192
124.53
16.9517
121.024
16.2208
117.658
15.512
114.438
14.804
111.373
14.0759
108.475
13.3149
105.754
12.5196
103.216
11.7014
100.861
10.8805
98.6843
10.0813
96.6748
9.32761
94.8177
8.63846
93.0959
8.02588
91.4911
7.49454
89.9859
7.04262
88.5642
6.66339
87.2122
6.34701
85.9185
6.08216
84.6744
5.85718
83.4734
5.66096
82.3113
5.48344
81.1856
5.31585
80.0955
5.15104
79.0412
4.98361
78.024
4.80933
77.0456
4.62451
76.1087
4.42558
75.2171
4.20881
74.3742
3.97012
73.5856
3.706
72.8555
3.41603
72.1898
3.10253
71.5922
2.76928
71.0677
2.42074
70.6193
2.06031
70.2498
1.69046
69.9587
1.3123
69.747
0.923816
69.6148
0.518106
69.5652
0.102172
69.5975
-0.298463
69.7055
-0.666679
69.8821
-1.00374
70.12
-1.30747
70.4086
-1.57112
70.7386
-1.79102
71.0995
-1.9637
71.481
-2.08638
71.8719
-2.15752
72.2621
-2.17669
72.6408
-2.14475
72.9984
-2.06331
73.3257
-1.93522
73.6148
-1.76481
73.8593
-1.55862
74.054
-1.32297
74.195
-1.06455
74.2802
-0.790763
74.3101
-0.512468
74.2921
-0.25066
74.2341
-0.0214534
74.1375
0.186956
74.0021
0.388789
73.8312
0.581251
73.6297
0.756674
73.4033
0.909102
73.158
1.03385
72.9006
1.12721
72.638
1.18662
72.3777
1.20965
72.1269
1.19365
71.8937
1.13688
71.6865
1.03282
71.5127
0.882879
71.3775
0.69242
71.2869
0.41604
71.252
-0.0354892
71.2836
-0.534815
71.363
-0.939406
-1.43783
205.745
26.2786
202.271
25.0465
198.763
25.0461
195.135
25.6452
191.392
26.1721
187.524
26.7284
183.527
27.2821
179.413
27.7168
175.201
27.9987
170.91
28.1176
166.563
28.0585
162.185
27.8153
157.802
27.3941
153.443
26.8096
149.134
26.0845
144.901
25.249
140.762
24.3383
136.732
23.3895
132.819
22.4376
129.029
21.509
125.364
20.6166
121.827
19.7569
118.427
18.9119
115.174
18.0562
112.083
17.1666
109.167
16.2303
106.437
15.2492
103.899
14.2399
101.55
13.2289
99.3836
12.2471
97.3872
11.3236
95.5442
10.481
93.8363
9.73328
92.2448
9.08558
90.7518
8.53511
89.3413
8.07335
87.9997
7.68815
86.7157
7.36563
85.4807
7.09161
84.2885
6.85264
83.1348
6.63654
82.0173
6.43278
80.935
6.23279
79.888
6.03004
78.8775
5.81939
77.905
5.59638
76.9729
5.35682
76.0849
5.09642
75.244
4.81034
74.4554
4.49431
73.7231
4.14766
73.0526
3.77276
72.4479
3.37335
71.9139
2.95448
71.4538
2.51989
71.0709
2.0732
70.7653
1.61744
70.5373
1.15171
70.3854
0.669624
70.3134
0.174132
70.3224
-0.307759
70.4073
-0.751574
70.5605
-1.15716
70.7738
-1.52077
71.037
-1.83456
71.341
-2.09496
71.675
-2.29788
72.0289
-2.44021
72.3916
-2.52035
72.7529
-2.53798
73.1024
-2.49428
73.4304
-2.39133
73.7279
-2.23276
73.9873
-2.02421
74.2025
-1.7739
74.3685
-1.48897
74.4816
-1.17778
74.54
-0.849134
74.5452
-0.517759
74.5072
-0.212659
74.4324
0.0532974
74.3197
0.299648
74.17
0.538393
73.9875
0.763737
73.7772
0.966951
73.5449
1.1414
73.2967
1.28191
73.0395
1.38441
72.78
1.44605
72.5254
1.46423
72.2828
1.43627
72.0596
1.36005
71.8637
1.22869
71.7014
1.04516
71.5775
0.816319
71.4986
0.4949
71.4695
-0.00637486
71.4941
-0.559418
71.5532
-0.998573
-1.59348
203.765
29.9639
200.374
28.437
196.976
28.4441
193.472
29.1486
189.858
29.7858
186.119
30.4677
182.251
31.1496
178.27
31.6977
174.194
32.0742
170.043
32.2686
165.837
32.264
161.599
32.053
157.352
31.6411
153.119
31.0424
148.923
30.2801
144.786
29.386
140.725
28.3986
136.755
27.3595
132.884
26.308
129.119
25.2736
125.467
24.2692
121.935
23.2886
118.536
22.3098
115.288
21.304
112.208
20.2469
109.31
19.1276
106.606
17.953
104.099
16.7464
101.786
15.5415
99.6569
14.3757
97.6972
13.2829
95.8889
12.2889
94.2129
11.4089
92.6502
10.6478
91.1832
10.0017
89.7961
9.46002
88.4757
9.00814
87.2111
8.62972
85.9942
8.3081
84.8188
8.02755
83.681
7.77391
82.5783
7.53497
81.5098
7.30083
80.4754
7.06393
79.4761
6.81824
78.5134
6.55857
77.5893
6.28013
76.7073
5.97809
75.8701
5.6469
75.0827
5.28153
74.3488
4.88098
73.6738
4.44751
73.0618
3.9847
72.518
3.49805
72.0457
2.99175
71.6482
2.47058
71.3264
1.93877
71.0808
1.39721
70.9089
0.841207
70.8148
0.268134
70.8009
-0.294131
70.8637
-0.814352
70.9947
-1.28838
71.1848
-1.7109
71.4248
-2.07478
71.7055
-2.37556
72.0159
-2.60853
72.3461
-2.77033
72.6849
-2.85932
73.0222
-2.87525
73.3475
-2.81969
73.6513
-2.69514
73.9246
-2.50616
74.1602
-2.25976
74.352
-1.96581
74.4951
-1.63208
74.586
-1.26882
74.6231
-0.886222
74.6096
-0.504256
74.557
-0.160107
74.4695
0.140704
74.3451
0.424105
74.1855
0.697939
73.9954
0.953772
73.7801
1.18218
73.5456
1.37596
73.2979
1.52952
73.0438
1.63851
72.7899
1.69988
72.5433
1.71085
72.3106
1.66893
72.099
1.57168
71.9157
1.41199
71.7661
1.19472
71.6548
0.927644
71.5899
0.559797
71.5715
0.0119917
71.5965
-0.584426
71.6452
-1.04733
-1.72809
201.479
33.5959
198.132
31.7842
194.789
31.7872
191.359
32.5785
187.832
33.3125
184.189
34.1104
180.425
34.9132
176.554
35.5688
172.592
36.0351
168.56
36.3005
164.477
36.3465
160.364
36.1655
156.242
35.7629
152.131
35.1533
148.05
34.3605
144.018
33.4179
140.05
32.3665
136.157
31.2517
132.349
30.1158
128.633
28.9892
125.019
27.8833
121.519
26.7877
118.153
25.6762
114.939
24.517
111.9
23.2862
109.05
21.9771
106.399
20.6032
103.949
19.1958
101.694
17.7961
99.6217
16.4479
97.715
15.1892
95.9552
14.0482
94.3227
13.0408
92.7988
12.1712
91.3663
11.4338
90.01
10.8158
88.7174
10.3003
87.4781
9.86844
86.2844
9.50126
85.1306
9.18086
84.0127
8.89123
82.9286
8.61857
81.877
8.35181
80.858
8.08241
79.8723
7.80351
78.9211
7.50916
78.0063
7.19404
77.1313
6.85274
76.2985
6.47903
75.5126
6.06717
74.7772
5.61565
74.098
5.1265
73.479
4.60304
72.9257
4.05113
72.4415
3.47536
72.0298
2.88211
71.6918
2.27638
71.4283
1.66058
71.237
1.03212
71.1225
0.382623
71.0882
-0.260179
71.1309
-0.857032
71.2411
-1.39885
71.4105
-1.8803
71.6302
-2.2946
71.8906
-2.63597
72.1811
-2.89915
72.4913
-3.08054
72.8104
-3.17848
73.1279
-3.19277
73.4335
-3.12538
73.7176
-2.97924
73.9713
-2.75995
74.1877
-2.47608
74.3606
-2.13887
74.4853
-1.7567
74.5582
-1.34187
74.5782
-0.906184
74.5503
-0.476446
74.4867
-0.0964609
74.389
0.238273
74.2557
0.557412
74.0892
0.864359
73.8945
1.14846
73.6769
1.39968
73.4426
1.61031
73.1976
1.77442
72.9486
1.88749
72.7022
1.94627
72.4651
1.94791
72.2438
1.89022
72.0449
1.77052
71.8754
1.58143
71.7399
1.33025
71.6423
1.02522
71.5934
0.608714
71.5899
0.0154563
71.6214
-0.615909
71.6677
-1.09371
-1.84954
198.95
37.1785
195.638
35.096
192.329
35.0964
188.946
35.9613
185.478
36.7802
181.905
37.6827
178.223
38.5956
174.441
39.3498
170.578
39.8988
166.649
40.2292
162.674
40.3209
158.674
40.1659
154.666
39.7704
150.669
39.1498
146.7
38.329
142.775
37.3434
138.904
36.2366
135.099
35.0568
131.366
33.848
127.715
32.6399
124.158
31.4401
120.713
30.233
117.401
28.9876
114.247
27.6705
111.273
26.26
108.494
24.7554
105.919
23.1786
103.545
21.5695
101.363
19.977
99.3604
18.4506
97.5175
17.0318
95.8149
15.7504
94.2331
14.6222
92.7539
13.6501
91.3609
12.8265
90.0396
12.1366
88.7785
11.5611
87.5678
11.0787
86.4003
10.6684
85.2705
10.3102
84.1749
9.98636
83.1113
9.68175
82.0784
9.38418
81.0762
9.08421
80.1051
8.77417
79.1663
8.4474
78.2616
8.09802
77.394
7.72003
76.5659
7.30651
75.7818
6.85103
75.0454
6.35143
74.3623
5.8094
73.7368
5.22792
73.1746
4.6131
72.6795
3.97005
72.2548
3.30668
71.9017
2.62901
71.6215
1.94066
71.4125
1.24084
71.2792
0.515802
71.2264
-0.207615
71.2502
-0.88086
71.3415
-1.49038
71.4928
-2.03159
71.6948
-2.49681
71.9381
-2.8792
72.2117
-3.17295
72.5055
-3.37427
72.8083
-3.48143
73.1098
-3.49426
73.3994
-3.41513
73.6676
-3.24741
73.9054
-2.99793
74.1063
-2.67688
74.264
-2.29668
74.3736
-1.86632
74.4319
-1.4003
74.4381
-0.912287
74.399
-0.437492
74.3267
-0.0241162
74.221
0.343909
74.081
0.697352
73.9099
1.03541
73.7127
1.34565
73.4949
1.61742
73.2627
1.84258
73.0221
2.0149
72.7799
2.12975
72.5423
2.18379
72.3161
2.1741
72.1074
2.09893
71.9225
1.9554
71.7681
1.7358
71.6478
1.45059
71.565
1.10793
71.5341
0.639675
71.549
0.000585844
71.5917
-0.658617
71.6419
-1.14391
-1.96443
196.17
40.7628
192.874
38.392
189.597
38.373
186.266
39.2921
182.86
40.1863
179.355
41.187
175.747
42.2031
172.047
43.0494
168.271
43.6749
164.436
44.0646
160.559
44.1968
156.661
44.0636
152.759
43.672
148.87
43.0387
145.009
42.1903
141.187
41.1644
137.416
40.0077
133.702
38.7706
130.052
37.4973
126.477
36.2149
122.991
34.9256
119.616
33.6076
116.378
32.2252
113.303
30.7447
110.414
29.1488
107.724
27.4446
105.239
25.6634
102.954
23.8541
100.858
22.0733
98.9326
20.3752
97.1598
18.8042
95.5194
17.3904
93.9922
16.1489
92.5608
15.081
91.2097
14.1771
89.9257
13.4201
88.6979
12.7884
87.5174
12.2586
86.3775
11.8077
85.2732
11.4139
84.2011
11.0579
83.159
10.7233
82.1458
10.3969
81.1611
10.0684
80.2053
9.72943
79.2795
9.37263
78.3851
8.99154
77.5253
8.5795
76.7022
8.12889
75.9204
7.63259
75.1835
7.08771
74.4971
6.49549
73.8658
5.85853
73.2957
5.18303
72.7904
4.47481
72.3536
3.74324
71.987
2.99523
71.692
2.23548
71.4673
1.46523
71.3172
0.665857
71.2462
-0.136999
71.2523
-0.886891
71.3269
-1.56523
71.4623
-2.16702
71.6491
-2.68381
71.8778
-3.10782
72.1374
-3.43267
72.4175
-3.65438
72.7071
-3.77115
72.9957
-3.78279
73.2725
-3.69208
73.528
-3.50285
73.7532
-3.22327
73.9416
-2.86526
74.087
-2.44219
74.1846
-1.96384
74.231
-1.44682
74.2257
-0.906948
74.178
-0.389891
74.099
0.0548661
73.9871
0.455741
73.8424
0.842065
73.6684
1.20926
73.4705
1.54356
73.2542
1.8337
73.0256
2.07116
72.791
2.24945
72.5568
2.36389
72.3294
2.4111
72.1153
2.38819
71.9203
2.29391
71.7506
2.12514
71.6124
1.87392
71.5083
1.55465
71.4417
1.17456
71.4308
0.650572
71.4668
-0.0354482
71.5242
-0.71599
71.5826
-1.20237
-2.078
192.672
44.1038
189.609
41.4549
186.501
41.4807
183.299
42.4941
179.996
43.4887
176.582
44.6011
173.059
45.7257
169.444
46.6646
165.753
47.3648
162.007
47.8107
158.224
47.9799
154.422
47.8649
150.62
47.4741
146.833
46.8259
143.074
45.9492
139.353
44.8844
135.68
43.6813
132.058
42.3919
128.495
41.0598
125.002
39.7074
121.598
38.3299
118.307
36.8986
115.157
35.3742
112.177
33.7244
109.388
31.938
106.801
30.0314
104.417
28.0465
102.23
26.0411
100.224
24.0787
98.3817
22.2174
96.6824
20.5032
95.1064
18.966
93.6353
17.6196
92.2528
16.4631
90.9446
15.485
89.6987
14.6657
88.5049
13.9817
87.3554
13.4077
86.2439
12.9188
85.1657
12.4917
84.1177
12.1055
83.0978
11.7428
82.1047
11.3895
81.138
11.0347
80.198
10.669
79.2855
10.2846
78.4019
9.87438
77.5502
9.43095
76.7325
8.94594
75.9533
8.41154
75.2165
7.82399
74.5276
7.18417
73.8913
6.49423
73.3139
5.76022
72.7994
4.98887
72.3515
4.19093
71.9723
3.37407
71.6638
2.5439
71.4249
1.7037
71.2593
0.831445
71.1715
-0.0494698
71.1613
-0.87668
71.2209
-1.62509
71.3423
-2.28842
71.5159
-2.85763
71.7321
-3.324
71.9799
-3.68064
72.249
-3.92338
72.5279
-4.05025
72.8062
-4.06104
73.0729
-3.95897
73.3184
-3.74833
73.5338
-3.43876
73.7125
-3.04392
73.8482
-2.57797
73.936
-2.05167
73.9727
-1.48362
73.958
-0.892202
73.9038
-0.335815
73.8198
0.138899
73.7033
0.572138
73.5555
0.989914
73.3803
1.38435
73.1832
1.74071
72.9697
2.04711
72.7462
2.29469
72.5188
2.47678
72.294
2.58872
72.0779
2.6271
71.877
2.58913
71.6967
2.4742
71.5431
2.27874
71.4221
1.99484
71.3352
1.64158
71.2857
1.22408
71.2969
0.63939
71.3564
-0.0949526
71.4308
-0.790452
71.5006
-1.27215
-2.19431
189.495
47.5494
186.393
44.5564
183.318
44.5555
180.188
45.6241
176.972
46.7045
173.647
47.9258
170.213
49.1593
166.686
50.1918
163.083
50.9671
159.426
51.4681
155.733
51.6722
152.025
51.5731
148.318
51.1806
144.628
50.5155
140.967
49.6095
137.345
48.5064
133.767
47.2591
130.237
45.921
126.764
44.5332
123.358
43.1122
120.043
41.6449
116.846
40.0957
113.796
38.423
110.923
36.5975
108.244
34.6163
105.769
32.5065
103.494
30.3206
101.41
28.1253
99.4983
25.9897
97.7402
23.975
96.1153
22.1277
94.6041
20.4768
93.1893
19.0339
91.8557
17.7963
90.5904
16.7498
89.3825
15.8731
88.223
15.1407
87.1046
14.5256
86.0216
14.0012
84.9699
13.5429
83.9463
13.1285
82.9489
12.7396
81.9763
12.3615
81.0281
11.9824
80.1042
11.5924
79.2054
11.1828
78.3329
10.746
77.4896
10.2739
76.6777
9.75716
75.9017
9.18726
75.1655
8.5596
74.4747
7.87465
73.8341
7.13417
73.2502
6.34386
72.7271
5.51149
72.2689
4.64891
71.878
3.76453
71.557
2.86479
71.3054
1.9549
71.1254
1.01144
71.0215
0.054078
70.9962
-0.85135
71.0421
-1.67126
71.151
-2.39723
71.313
-3.01984
71.5185
-3.5295
71.7565
-3.91878
72.0164
-4.1833
72.2869
-4.32087
72.5571
-4.33123
72.8161
-4.21805
73.054
-3.98619
73.2619
-3.64681
73.4333
-3.21523
73.5614
-2.70623
73.6416
-2.13187
73.6704
-1.51246
73.6482
-0.869981
73.5893
-0.277057
73.5014
0.226809
73.3819
0.691622
73.2324
1.13937
73.0574
1.55927
72.8624
1.93572
72.6531
2.25633
72.4358
2.51194
72.2168
2.69575
72.0023
2.80315
71.7986
2.83075
71.6118
2.77598
71.447
2.63889
71.3105
2.41528
71.2075
2.09777
71.1384
1.71072
71.1069
1.25555
71.1422
0.604081
71.227
-0.179816
71.3202
-0.883643
71.4033
-1.35529
-2.31641
186.44
50.9773
183.311
47.6852
180.217
47.6497
177.095
48.7454
173.915
49.8845
170.646
51.1944
167.282
52.5231
163.833
53.641
160.313
54.4866
156.741
55.0398
153.137
55.2765
149.519
55.1909
145.904
54.7947
142.309
54.1108
138.743
53.1745
135.216
52.0334
131.731
50.7436
128.293
49.359
124.909
47.9168
121.595
46.426
118.375
44.8647
115.28
43.191
112.34
41.3625
109.582
39.3553
107.022
37.1762
104.664
34.8641
102.502
32.4819
100.523
30.1045
98.7064
27.8056
97.0328
25.6483
95.4817
23.6785
94.0344
21.9237
92.675
20.393
91.3895
19.0813
90.1666
17.9724
88.9963
17.043
87.8708
16.2658
86.7834
15.6125
85.7291
15.0551
84.704
14.5677
83.7051
14.127
82.7305
13.7138
81.7788
13.3128
80.8493
12.9115
79.942
12.4993
79.0573
12.067
78.1962
11.6063
77.3617
11.1081
76.5559
10.5623
75.7835
9.95953
75.0483
9.29421
74.3562
8.56651
73.7119
7.77787
73.1221
6.93357
72.5907
6.04234
72.1228
5.11668
71.721
4.16594
71.3884
3.19734
71.1252
2.21772
70.9315
1.20511
70.812
0.173244
70.7723
-0.811629
70.8055
-1.70473
70.9029
-2.49457
71.0546
-3.17173
71.2508
-3.72575
71.4806
-4.14868
71.7332
-4.43589
71.997
-4.58486
72.2611
-4.59529
72.5143
-4.47133
72.7466
-4.21846
72.9491
-3.84951
73.1152
-3.38126
73.2378
-2.82896
73.3121
-2.20618
73.3345
-1.53498
73.3066
-0.842021
73.2444
-0.214964
73.1537
0.317535
73.0323
0.81296
72.8825
1.28917
72.7089
1.7328
72.5171
2.12747
72.3131
2.4603
72.1031
2.72191
71.8934
2.90541
71.6903
3.00631
71.4997
3.02127
71.3277
2.94801
71.1792
2.78732
71.0604
2.53409
70.976
2.18215
70.9249
1.76184
70.9131
1.26738
70.9748
0.542394
71.0854
-0.290448
71.1982
-0.996425
71.2961
-1.45322
-2.44658
183.386
54.3612
180.267
50.8033
177.17
50.7473
174.049
51.8655
170.882
53.0511
167.643
54.4333
164.326
55.8401
160.937
57.0293
157.489
57.9348
153.995
58.5329
150.474
58.7973
146.943
58.7217
143.419
58.319
139.915
57.6146
136.442
56.647
133.007
55.4681
129.613
54.1369
126.265
52.7067
122.972
51.2095
119.752
49.6455
116.633
47.9839
113.645
46.1776
110.822
44.1855
108.186
41.991
105.749
39.6124
103.513
37.1006
101.465
34.5287
99.5911
31.9784
97.8692
29.5271
96.2786
27.2384
94.7995
25.1571
93.4146
23.3081
92.1091
21.698
90.8707
20.3193
89.6892
19.1535
88.556
18.1757
87.4641
17.3573
86.4076
16.6685
85.3819
16.0803
84.3833
15.5656
83.4094
15.1004
82.4579
14.6647
81.5274
14.2427
80.6171
13.8212
79.7267
13.3892
78.8564
12.9367
78.0071
12.4547
77.1817
11.9332
76.3823
11.3611
75.6136
10.7279
74.8799
10.0273
74.1869
9.25919
73.5394
8.42477
72.9439
7.52882
72.4047
6.58099
71.9274
5.59379
71.5151
4.57779
71.1714
3.54094
70.8974
2.49129
70.6906
1.41194
70.5556
0.307875
70.502
-0.757998
70.5232
-1.7262
70.6099
-2.58126
70.7522
-3.31425
70.9404
-3.91385
71.1631
-4.37162
71.4099
-4.68259
71.6687
-4.84379
71.9283
-4.85485
72.1773
-4.7205
72.4058
-4.44692
72.6048
-4.04864
72.7673
-3.54374
72.8861
-2.94783
72.9561
-2.2761
72.9737
-1.55272
72.9415
-0.809849
72.877
-0.150551
72.7844
0.41016
72.6622
0.93514
72.5131
1.43824
72.3419
1.90387
72.1545
2.31491
71.9567
2.65804
71.7549
2.9237
71.5553
3.10494
71.3641
3.19744
71.1874
3.19796
71.0308
3.10459
70.8992
2.91889
70.7987
2.63458
70.7333
2.24746
70.7003
1.79488
70.71
1.25758
70.8005
0.451934
70.9366
-0.426607
71.0692
-1.12895
71.1828
-1.56685
-2.58648
180.269
57.7417
177.163
53.9088
174.086
53.8243
170.993
54.9579
167.855
56.1889
164.649
57.6399
161.372
59.1168
158.034
60.367
154.646
61.3221
151.223
61.9563
147.779
62.2412
144.33
62.1704
140.891
61.7575
137.476
61.0299
134.093
60.0299
130.747
58.8133
127.443
57.4412
124.184
55.9653
120.982
54.4108
117.859
52.7683
114.845
50.9983
111.972
49.0503
109.27
46.8866
106.76
44.5004
104.45
41.9223
102.336
39.2151
100.403
36.4614
98.6322
33.7487
97.0025
31.1565
95.4925
28.7481
94.0833
26.5661
92.7586
24.6324
91.5054
22.951
90.3126
21.5117
89.1715
20.2942
88.0747
19.2722
87.0159
18.4157
85.99
17.6941
84.9928
17.0772
84.021
16.537
83.0721
16.0489
82.144
15.5924
81.2351
15.1511
80.3443
14.7116
79.4712
14.262
78.6156
13.7918
77.7784
13.2912
76.9622
12.7492
76.1693
12.1533
75.4047
11.4923
74.6726
10.7589
73.9789
9.95262
73.3284
9.07478
72.7274
8.12955
72.1806
7.12739
71.694
6.08021
71.2715
4.99993
70.9167
3.89564
70.6312
2.77645
70.4111
1.63193
70.2621
0.456627
70.1953
-0.691167
70.2049
-1.73608
70.2815
-2.65787
70.4152
-3.44813
70.5961
-4.09474
70.813
-4.5887
71.0551
-4.92467
71.3102
-5.09906
71.5668
-5.11145
71.8134
-4.96716
72.0396
-4.6732
72.2367
-4.24585
72.3972
-3.70423
72.5136
-3.06432
72.5805
-2.34304
72.5948
-1.5671
72.5597
-0.774717
72.4937
-0.0845784
72.3998
0.503982
72.2775
1.05735
72.1301
1.58569
71.9623
2.07162
71.7799
2.49725
71.5891
2.84883
71.3962
3.11663
71.2073
3.29374
71.0287
3.37604
70.8663
3.36039
70.7255
3.24534
70.6111
3.03328
70.5294
2.71637
70.4834
2.29337
70.4684
1.80995
70.5013
1.22467
70.6229
0.330269
70.7849
-0.588543
70.9367
-1.2808
71.0662
-1.69634
-2.73724
176.607
60.839
173.745
56.7705
170.829
56.74
167.846
57.9408
164.786
59.2489
161.639
60.7859
158.416
62.3396
155.132
63.6505
151.803
64.6508
148.445
65.3144
145.073
65.6132
141.702
65.5413
138.345
65.1136
135.015
64.3599
131.719
63.3258
128.46
62.0711
125.243
60.6582
122.073
59.1353
118.964
57.5196
115.94
55.7913
113.035
53.9034
110.281
51.8042
107.705
49.4617
105.325
46.8805
103.142
44.1043
101.149
41.2076
99.3287
38.2815
97.6593
35.4176
96.1189
32.6966
94.6866
30.18
93.3444
27.9078
92.0777
25.8986
90.8747
24.1535
89.7261
22.6598
88.6244
21.3955
87.5631
20.333
86.537
19.4413
85.5414
18.6891
84.5726
18.0454
83.6277
17.4815
82.704
16.972
81.7995
16.4963
80.9125
16.0376
80.0416
15.582
79.186
15.117
78.3455
14.6318
77.5204
14.1155
76.7135
13.5558
75.9272
12.939
75.1665
12.2526
74.4361
11.4887
73.7418
10.6466
73.0883
9.72769
72.482
8.7356
71.9275
7.68134
71.4316
6.5759
70.9986
5.43252
70.6323
4.26183
70.334
3.07433
70.101
1.86488
69.9394
0.617937
69.86
-0.611777
69.8583
-1.73459
69.9252
-2.72477
70.0508
-3.57393
70.2252
-4.26912
70.4372
-4.80083
70.6757
-5.16319
70.9284
-5.35188
71.1834
-5.3664
71.4289
-5.21273
71.6544
-4.89872
71.851
-4.44252
72.0108
-3.86403
72.1261
-3.17969
72.1914
-2.40829
72.2035
-1.57934
72.1663
-0.737533
72.0993
-0.0176509
72.0049
0.598345
71.8833
1.17887
71.7382
1.7308
71.5744
2.23533
71.3979
2.6738
71.2146
3.03203
71.0311
3.30015
70.8534
3.47131
70.6878
3.54166
70.54
3.50818
70.4153
3.36995
70.3183
3.13021
70.2556
2.77907
70.2293
2.31967
70.2318
1.80748
70.2897
1.1667
70.4454
0.174595
70.6329
-0.776079
70.8032
-1.4511
70.9483
-1.84146
-2.89961
173.335
64.0932
170.421
59.6844
167.546
59.6154
164.642
60.8445
161.667
62.223
158.601
63.8524
155.449
65.4909
152.232
66.8681
148.967
67.9153
145.674
68.6067
142.372
68.9154
139.075
68.8378
135.798
68.3909
132.55
67.6076
129.338
66.5377
126.164
65.2442
123.033
63.7896
119.951
62.2172
116.935
60.5346
114.014
58.7119
111.222
56.6958
108.59
54.4357
106.143
51.908
103.894
49.1301
101.839
46.159
99.9656
43.0804
98.2547
39.9921
96.6831
36.9889
95.2283
34.1511
93.8702
31.5379
92.5921
29.1856
91.3808
27.1096
90.2261
25.3079
89.1201
23.7654
88.0566
22.4588
87.0301
21.3591
86.0361
20.435
85.0705
19.6543
84.1301
18.9855
83.212
18.3992
82.3137
17.8699
81.4331
17.3765
80.5682
16.9021
79.7175
16.4323
78.8798
15.9543
78.0543
15.4567
77.2414
14.9277
76.4437
14.3532
75.6638
13.7183
74.907
13.0092
74.178
12.2171
73.483
11.3414
72.8264
10.3838
72.2146
9.34721
71.6525
8.24299
71.1471
7.08111
70.7032
5.87604
70.3249
4.64
70.0139
3.38504
69.7682
2.11056
69.5941
0.791689
69.5022
-0.519863
69.4892
-1.72183
69.5467
-2.78226
69.6647
-3.69213
69.8333
-4.43771
70.0412
-5.0089
70.2772
-5.39921
70.5286
-5.60343
70.7832
-5.62104
71.029
-5.45861
71.2552
-5.12492
71.4526
-4.64003
71.613
-4.02445
71.7284
-3.29521
71.7932
-2.47306
71.8041
-1.59035
71.7655
-0.698984
71.6981
0.0497391
71.6037
0.692703
71.4834
1.29911
71.3412
1.87303
71.1819
2.39451
71.0116
2.84411
70.8364
3.20724
70.6626
3.47391
70.4965
3.63739
70.3441
3.69411
70.211
3.64119
70.1026
3.47838
70.0231
3.20964
69.9798
2.82244
69.9728
2.32662
69.9924
1.78793
70.0786
1.08045
70.2708
-0.0176248
70.4824
-0.987691
70.6698
-1.63848
70.8302
-2.00191
-3.07424
170.288
67.3537
167.314
62.6578
164.402
62.5276
161.504
63.7424
158.57
65.1564
155.564
66.858
152.482
68.5727
149.335
70.0149
146.14
71.1101
142.917
71.8295
139.685
72.1467
136.462
72.0604
133.262
71.591
130.094
70.7753
126.964
69.6678
123.873
68.3344
120.826
66.8365
117.832
65.2106
114.912
63.454
112.097
61.5269
109.421
59.3717
106.914
56.9415
104.599
54.2235
102.479
51.2488
100.55
48.0878
98.7944
44.8359
97.1895
41.5966
95.7116
38.4664
94.3385
35.5238
93.051
32.825
91.8337
30.4024
90.6751
28.2678
89.5666
26.4159
88.5016
24.8299
87.4751
23.4848
86.4826
22.3511
85.5202
21.3969
84.5843
20.5896
83.6721
19.8972
82.7808
19.29
81.908
18.7421
81.0515
18.2325
80.2089
17.7441
79.3786
17.2621
78.5588
16.7735
77.7485
16.2664
76.9477
15.7277
76.1589
15.1416
75.3851
14.4914
74.6319
13.7621
73.9041
12.9443
73.2081
12.0372
72.5481
11.043
71.9306
9.96445
71.3607
8.81242
70.8456
7.59597
70.3905
6.33072
70
5.03039
69.676
3.70864
69.4176
2.36894
69.2309
0.978048
69.1263
-0.415243
69.102
-1.69781
69.1503
-2.83055
69.2611
-3.80314
69.4245
-4.60108
69.6291
-5.21367
69.8636
-5.63364
70.1148
-5.85479
70.3703
-5.87651
70.6177
-5.70606
70.8459
-5.3531
71.0454
-4.83965
71.2077
-4.18671
71.3244
-3.41205
71.3897
-2.53835
71.4001
-1.60085
71.3608
-0.659646
71.2933
0.117175
71.1994
0.786601
71.0808
1.41759
70.9419
2.01192
70.7876
2.54872
70.6239
3.00779
70.457
3.37413
70.2932
3.63764
70.1388
3.79178
69.9996
3.83326
69.8814
3.75934
69.7891
3.57065
69.7272
3.27151
69.7032
2.84645
69.715
2.31474
69.752
1.75091
69.8711
0.961397
70.1013
-0.247823
70.334
-1.22048
70.5371
-1.84153
70.7128
-2.17767
-3.26177
167.319
70.5725
164.338
65.6389
161.399
65.4664
158.483
66.6582
155.553
68.0858
152.577
69.8345
149.544