/*--------------------------------*- C++ -*----------------------------------*\
| =========                 |                                                 |
| \\      /  F ield         | OpenFOAM: The Open Source CFD Toolbox           |
|  \\    /   O peration     | Version:  4.1                                   |
|   \\  /    A nd           | Web:      www.OpenFOAM.org                      |
|    \\/     M anipulation  |                                                 |
\*---------------------------------------------------------------------------*/
FoamFile
{
    version     2.0;
    format      ascii;
    class       volVectorField;
    location    "100";
    object      U;
}
// * * * * * * * * * * * * * * * * * * * * * * * * * * * * * * * * * * * * * //

dimensions      [0 1 -1 0 0 0 0];

internalField   nonuniform List<vector> 
26785
(
(2.56736e-18 0.00533762 1.64379)
(-1.09417e-17 0.00490257 1.53159)
(3.40894e-17 0.00454255 1.43127)
(-1.77138e-16 0.00427687 1.34273)
(-9.28293e-17 0.00406195 1.26007)
(-5.18165e-16 0.00387828 1.18272)
(-5.73895e-16 0.00371557 1.1109)
(-6.38369e-16 0.00356443 1.04399)
(-1.12799e-16 0.00341919 0.98149)
(-4.5343e-16 0.00327674 0.923144)
(-5.52666e-16 0.00313523 0.868745)
(-5.55145e-16 0.00299383 0.81808)
(-5.34302e-16 0.00285265 0.770964)
(-4.84047e-16 0.0027125 0.727218)
(-4.58141e-16 0.00257472 0.68666)
(-4.6156e-16 0.00244092 0.649097)
(-3.74586e-16 0.00231275 0.614327)
(-2.67694e-16 0.00219164 0.582139)
(-2.17672e-17 0.00207859 0.552315)
(-3.5152e-16 0.00197397 0.524642)
(-4.15188e-16 0.00187735 0.498917)
(-2.14901e-16 0.00178752 0.474954)
(-7.52872e-16 0.00170277 0.452599)
(-8.64303e-16 0.00162124 0.431727)
(-9.9374e-16 0.00154143 0.412245)
(-1.0881e-15 0.00146258 0.39408)
(-1.25733e-15 0.00138472 0.377174)
(-1.31307e-15 0.00130859 0.361468)
(-1.92554e-15 0.00123532 0.346897)
(-2.77175e-15 0.00116606 0.333388)
(-3.03172e-15 0.00110176 0.320858)
(-3.0274e-15 0.0010429 0.30922)
(-3.28576e-15 0.000989548 0.298387)
(-2.32417e-15 0.000941355 0.288276)
(-3.62725e-15 0.000897726 0.278812)
(-3.89853e-15 0.000857934 0.26993)
(-3.94352e-15 0.00082124 0.261575)
(-3.94241e-15 0.000786957 0.253702)
(-3.85813e-15 0.000754495 0.246275)
(-4.09009e-15 0.00072338 0.239264)
(-2.69017e-15 0.000693267 0.232647)
(-2.3626e-15 0.000663943 0.226402)
(-1.91362e-15 0.000635338 0.220513)
(-3.21934e-15 0.000607484 0.214963)
(-2.95767e-15 0.000580422 0.209737)
(-4.17198e-15 0.00055414 0.204817)
(-4.38223e-15 0.000528539 0.200189)
(-4.3247e-15 0.000503468 0.195839)
(-4.45766e-15 0.000478806 0.191755)
(-4.75346e-15 0.000454643 0.187926)
(-3.34809e-15 0.000431246 0.184341)
(-3.29116e-15 0.00040901 0.180988)
(-3.40811e-15 0.000388337 0.177853)
(-3.76658e-15 0.000369289 0.17492)
(-3.99884e-15 0.000351499 0.172173)
(-3.63984e-15 0.000334389 0.1696)
(-5.24712e-15 0.000317467 0.167192)
(-5.64493e-15 0.000299944 0.164946)
(-5.47658e-15 0.000280818 0.162872)
(-5.24083e-15 0.00026243 0.160972)
(-4.84562e-15 0.000247117 0.159229)
(-4.8271e-15 0.00023427 0.157617)
(-4.68222e-15 0.000223385 0.156116)
(-6.33571e-15 0.000214257 0.154709)
(-6.69115e-15 0.000206833 0.153382)
(-6.79758e-15 0.000201365 0.15212)
(-6.86493e-15 0.000197948 0.150905)
(-6.73191e-15 0.000196629 0.149722)
(-6.89507e-15 0.000197397 0.148554)
(-6.64348e-15 0.000200218 0.147386)
(-7.94881e-15 0.000205005 0.146204)
(-7.90794e-15 0.000211667 0.144995)
(-7.47359e-15 0.00022005 0.143747)
(-6.85678e-15 0.000229952 0.142448)
(-6.35283e-15 0.000241058 0.141092)
(-4.23177e-15 0.000253007 0.139672)
(-3.43022e-15 0.000265455 0.138185)
(-3.01359e-15 0.00027805 0.13663)
(-2.74728e-15 0.000290235 0.135008)
(-2.70423e-15 0.000301147 0.133326)
(-2.32775e-15 0.00030985 0.131593)
(-4.0693e-15 0.000315977 0.129827)
(-4.79886e-15 0.000320208 0.128042)
(-4.92794e-15 0.000323382 0.126247)
(-7.03294e-15 0.000325481 0.124448)
(-8.03473e-15 0.000326097 0.122651)
(-9.14223e-15 0.000324858 0.120867)
(-1.03264e-14 0.000321508 0.119107)
(-1.12527e-14 0.000315882 0.117382)
(-1.17219e-14 0.000307797 0.115706)
(-1.16879e-14 0.000297137 0.11409)
(-1.1092e-14 0.000283998 0.112546)
(-9.77197e-15 0.00026774 0.111088)
(-8.3406e-15 0.000247808 0.109734)
(-6.27293e-15 0.000221204 0.108486)
(-5.935e-15 0.000179476 0.1074)
(-4.35165e-15 0.000120295 0.106531)
(-2.72102e-15 6.82615e-05 0.105987)
(-1.2301e-15 2.00639e-05 0.105596)
(-3.10844e-16 -6.82252e-06 0.105565)
(1.48628e-18 0.014459 1.68621)
(-2.78492e-17 0.01388 1.58311)
(-9.50386e-18 0.0133041 1.48904)
(-4.80587e-17 0.0128304 1.40408)
(1.16789e-16 0.0123665 1.32316)
(-3.46893e-16 0.0119227 1.24622)
(-1.22256e-16 0.0115042 1.17385)
(-3.59027e-17 0.0110956 1.10573)
(-3.21763e-16 0.0106883 1.04154)
(-3.66749e-16 0.0102792 0.981201)
(-3.66313e-16 0.00986577 0.924591)
(-3.48904e-16 0.00944714 0.871583)
(-3.50766e-16 0.00902475 0.822047)
(-2.69529e-16 0.00860161 0.775854)
(-5.93733e-16 0.00818201 0.732857)
(-6.96726e-16 0.00777102 0.692896)
(-1.78926e-16 0.00737392 0.655793)
(-5.8816e-17 0.00699553 0.621358)
(1.46259e-17 0.00663969 0.589388)
(2.02879e-16 0.00630853 0.559678)
(-4.36592e-16 0.006002 0.532025)
(1.63018e-16 0.0057176 0.506239)
(-2.12125e-16 0.00545079 0.482155)
(-3.07321e-16 0.00519605 0.45964)
(-3.89647e-16 0.00494826 0.438588)
(-5.68583e-16 0.004704 0.418924)
(-8.36477e-16 0.00446223 0.400585)
(-1.07391e-15 0.00422423 0.383516)
(-1.20386e-15 0.00399292 0.367659)
(-2.06522e-15 0.00377188 0.352944)
(-2.33279e-15 0.00356437 0.339293)
(-2.41028e-15 0.00337263 0.326619)
(-2.57958e-15 0.00319758 0.314832)
(-2.48086e-15 0.00303882 0.303844)
(-3.17976e-15 0.00289498 0.293574)
(-3.33497e-15 0.00276402 0.283948)
(-3.3688e-15 0.00264369 0.274904)
(-3.38508e-15 0.00253176 0.266391)
(-3.37004e-15 0.00242624 0.258366)
(-3.37632e-15 0.00232547 0.250795)
(-3.46387e-15 0.0022282 0.243651)
(-2.03025e-15 0.00213358 0.236912)
(-1.88741e-15 0.00204122 0.230557)
(-1.37388e-15 0.00195114 0.224569)
(-1.54639e-15 0.00186352 0.218931)
(-1.70673e-15 0.00177849 0.213625)
(-3.44891e-15 0.00169596 0.208634)
(-3.50719e-15 0.00161564 0.203942)
(-5.13067e-15 0.00153712 0.199535)
(-3.69835e-15 0.00146026 0.195399)
(-4.66901e-15 0.00138543 0.191525)
(-4.7103e-15 0.00131344 0.1879)
(-4.27003e-15 0.00124535 0.184513)
(-5.75034e-15 0.00118166 0.18135)
(-4.43314e-15 0.00112191 0.178398)
(-3.90204e-15 0.00106465 0.175644)
(-5.4721e-15 0.00100854 0.173076)
(-5.976e-15 0.000951013 0.170689)
(-4.46863e-15 0.00088796 0.168492)
(-4.15211e-15 0.000825421 0.166487)
(-3.79705e-15 0.000771625 0.164664)
(-5.10524e-15 0.000726196 0.162993)
(-5.36979e-15 0.000687681 0.161452)
(-4.03542e-15 0.000655355 0.16002)
(-4.08989e-15 0.000629077 0.158678)
(-4.47622e-15 0.000609508 0.157406)
(-4.86151e-15 0.000596942 0.156187)
(-4.5298e-15 0.000591525 0.155001)
(-7.40249e-15 0.000593234 0.153828)
(-7.61723e-15 0.000601932 0.152652)
(-7.13698e-15 0.0006173 0.151456)
(-8.16016e-15 0.000638971 0.150225)
(-7.63329e-15 0.000666409 0.148945)
(-7.01702e-15 0.000698943 0.147606)
(-4.42811e-15 0.00073556 0.146198)
(-4.75984e-15 0.000775073 0.144716)
(-4.1128e-15 0.000816314 0.143156)
(-3.46418e-15 0.00085814 0.141519)
(-2.95539e-15 0.000898891 0.139805)
(-2.6098e-15 0.000935909 0.138021)
(-2.14418e-15 0.000966018 0.136181)
(-3.53595e-15 0.000987934 0.134303)
(-4.25994e-15 0.0010039 0.132402)
(-3.26157e-15 0.00101651 0.130486)
(-3.57801e-15 0.0010255 0.128562)
(-5.66137e-15 0.00102965 0.12664)
(-8.32798e-15 0.00102794 0.124731)
(-9.7187e-15 0.0010196 0.122848)
(-9.03702e-15 0.00100417 0.121002)
(-9.69731e-15 0.000981148 0.119208)
(-1.03376e-14 0.00095005 0.117479)
(-1.06392e-14 0.000911086 0.115827)
(-9.81184e-15 0.000862629 0.114266)
(-1.20063e-14 0.000804192 0.112815)
(-1.08799e-14 0.000733322 0.111474)
(-8.56692e-15 0.000628507 0.110275)
(-7.87784e-15 0.000469567 0.10924)
(-5.74899e-15 0.000314195 0.108485)
(-3.49042e-15 0.000171011 0.107918)
(-7.89575e-16 6.32636e-05 0.107624)
(-3.08618e-17 0.0234875 1.70737)
(1.59451e-16 0.0224327 1.60679)
(5.22554e-19 0.0216001 1.51581)
(1.39884e-16 0.0210237 1.43382)
(3.1143e-16 0.0204386 1.35547)
(-9.28986e-17 0.0198604 1.28056)
(2.21442e-16 0.0192981 1.20959)
(2.83696e-16 0.0187233 1.14228)
(2.32051e-16 0.0181266 1.07839)
(1.53434e-16 0.017508 1.01789)
(8.74901e-17 0.0168668 0.960755)
(4.44124e-17 0.0162041 0.906913)
(-5.50393e-18 0.0155244 0.856309)
(-7.31597e-18 0.0148345 0.80887)
(6.94318e-17 0.0141429 0.764505)
(-4.71245e-16 0.0134589 0.723097)
(4.23531e-17 0.0127924 0.684509)
(-1.96858e-16 0.0121524 0.648581)
(9.00781e-18 0.0115464 0.615137)
(-2.161e-16 0.0109794 0.583988)
(-3.79432e-16 0.0104523 0.554942)
(6.40723e-16 0.00996216 0.527818)
(9.15089e-16 0.00950196 0.502454)
(3.52397e-16 0.0090627 0.478719)
(2.53116e-16 0.00863562 0.456513)
(-2.33744e-16 0.00821447 0.435761)
(-9.05985e-16 0.00779693 0.416406)
(-1.02868e-15 0.0073847 0.398394)
(-1.06934e-15 0.00698252 0.381667)
(-1.22924e-15 0.00659652 0.366154)
(-1.40515e-15 0.0062326 0.351776)
(-1.36958e-15 0.00589507 0.33844)
(-1.84592e-15 0.00558607 0.326052)
(-2.39601e-15 0.00530543 0.314516)
(-2.556e-15 0.00505114 0.303745)
(-2.44396e-15 0.00481994 0.29366)
(-2.43298e-15 0.00460799 0.284191)
(-2.55744e-15 0.0044114 0.275283)
(-2.49251e-15 0.00422665 0.266889)
(-2.52777e-15 0.00405074 0.258973)
(-2.70078e-15 0.00388137 0.251503)
(-2.57678e-15 0.00371696 0.244455)
(-2.34878e-15 0.00355669 0.237808)
(-2.2349e-15 0.00340041 0.231544)
(-2.21554e-15 0.00324838 0.225643)
(-2.23338e-15 0.00310084 0.220088)
(-2.41365e-15 0.00295775 0.214861)
(-2.41587e-15 0.00281874 0.209946)
(-2.61268e-15 0.0026831 0.205328)
(-2.8401e-15 0.00255024 0.200993)
(-3.161e-15 0.00242045 0.19693)
(-3.72103e-15 0.0022947 0.193129)
(-4.0554e-15 0.00217441 0.18958)
(-4.37626e-15 0.00206048 0.18627)
(-4.22866e-15 0.00195278 0.183187)
(-5.3586e-15 0.00184963 0.180319)
(-5.9324e-15 0.00174906 0.177651)
(-4.61348e-15 0.00164731 0.175177)
(-4.30092e-15 0.00153769 0.1729)
(-4.0031e-15 0.00142811 0.17082)
(-3.81024e-15 0.00133167 0.168931)
(-3.66896e-15 0.00124968 0.167203)
(-3.6646e-15 0.00118019 0.165609)
(-3.58073e-15 0.00112214 0.164128)
(-3.62012e-15 0.00107557 0.162738)
(-3.88264e-15 0.00104133 0.161416)
(-2.64241e-15 0.00101981 0.160143)
(-2.76285e-15 0.00101116 0.158897)
(-3.45251e-15 0.0010153 0.15766)
(-4.30332e-15 0.00103185 0.156411)
(-4.69196e-15 0.00106018 0.155136)
(-5.24101e-15 0.00109952 0.153818)
(-4.04913e-15 0.00114884 0.152445)
(-2.42024e-15 0.00120687 0.151005)
(-2.2409e-15 0.00127175 0.149492)
(-2.16229e-15 0.00134136 0.147899)
(-2.04135e-15 0.00141368 0.146225)
(-1.75572e-15 0.00148667 0.14447)
(-1.48745e-15 0.00155746 0.142639)
(-1.34371e-15 0.00162124 0.140737)
(-1.31599e-15 0.00167183 0.138781)
(-1.25058e-15 0.00170812 0.136796)
(-3.06922e-15 0.00173559 0.13479)
(-3.54971e-15 0.00175761 0.132772)
(-3.87109e-15 0.00177275 0.130748)
(-4.42164e-15 0.00177898 0.128732)
(-5.19528e-15 0.00177479 0.126735)
(-6.28359e-15 0.00175906 0.12477)
(-6.90214e-15 0.00173116 0.12285)
(-9.38118e-15 0.00169041 0.120989)
(-1.02436e-14 0.00163606 0.1192)
(-1.02755e-14 0.00156821 0.117495)
(-1.16361e-14 0.00148421 0.115888)
(-1.13525e-14 0.0013841 0.114399)
(-1.04356e-14 0.00126857 0.113023)
(-8.30599e-15 0.00111055 0.111787)
(-7.64667e-15 0.000872296 0.110702)
(-5.02655e-15 0.000624626 0.109838)
(-2.10179e-15 0.000399886 0.109186)
(1.89048e-15 0.000190413 0.108699)
(-3.28692e-17 0.0324507 1.71571)
(1.37106e-16 0.0309244 1.61592)
(2.48282e-16 0.029753 1.52609)
(4.44883e-16 0.0289837 1.44547)
(4.37829e-16 0.0282353 1.36867)
(6.55547e-16 0.0275244 1.29534)
(6.70938e-16 0.0268458 1.22587)
(4.53676e-16 0.0261475 1.15987)
(4.06343e-16 0.0254118 1.09704)
(3.98485e-16 0.0246362 1.03732)
(3.81818e-16 0.0238178 0.980659)
(3.77693e-16 0.0229573 0.927021)
(2.82628e-16 0.0220611 0.876363)
(6.23332e-16 0.021139 0.828648)
(6.41984e-16 0.0202034 0.78382)
(4.99044e-16 0.0192682 0.741803)
(3.39608e-16 0.0183484 0.702495)
(7.31418e-16 0.0174579 0.66577)
(3.30683e-16 0.0166089 0.631479)
(2.71257e-16 0.0158096 0.599455)
(1.16507e-16 0.0150631 0.569526)
(7.23667e-16 0.014366 0.541526)
(9.86466e-16 0.0137093 0.51531)
(1.01075e-15 0.0130806 0.49076)
(9.3847e-16 0.0124676 0.467789)
(7.89508e-16 0.0118616 0.446332)
(4.44079e-16 0.0112593 0.426337)
(1.22831e-16 0.0106635 0.407751)
(-1.18371e-16 0.010081 0.390513)
(-4.1777e-16 0.00952108 0.374548)
(-2.00874e-16 0.00899245 0.359767)
(1.59715e-16 0.00850172 0.346073)
(-1.02325e-16 0.0080523 0.333363)
(-2.95314e-16 0.00764427 0.321536)
(-1.42343e-15 0.00727494 0.3105)
(-4.04576e-16 0.00693972 0.30017)
(-1.53997e-15 0.00663308 0.290475)
(-2.04101e-15 0.00634936 0.281355)
(-7.42207e-16 0.00608334 0.272762)
(-1.87349e-15 0.00583061 0.264658)
(-2.25252e-15 0.00558772 0.25701)
(-1.71305e-15 0.00535225 0.249793)
(-1.55241e-15 0.00512284 0.242985)
(-2.99675e-15 0.00489915 0.236568)
(-3.19116e-15 0.00468143 0.230522)
(-3.35593e-15 0.00447001 0.224829)
(-2.31985e-15 0.00426489 0.219472)
(-1.08939e-15 0.00406561 0.214435)
(-9.88067e-16 0.00387119 0.2097)
(-2.91115e-15 0.00368062 0.205255)
(-3.26546e-15 0.00349402 0.201088)
(-5.2104e-15 0.00331253 0.197188)
(-4.63026e-15 0.00313776 0.193544)
(-3.38837e-15 0.00297092 0.190145)
(-3.5784e-15 0.00281225 0.18698)
(-3.60482e-15 0.00266031 0.184036)
(-5.50784e-15 0.00251303 0.181297)
(-4.28678e-15 0.00236579 0.178754)
(-4.38501e-15 0.00220982 0.176409)
(-3.04106e-15 0.00205309 0.174257)
(-3.33574e-15 0.00191288 0.172296)
(-2.32311e-15 0.00179341 0.170499)
(-2.42534e-15 0.0016924 0.168836)
(-2.72787e-15 0.00160851 0.167287)
(-3.13865e-15 0.00154219 0.165824)
(-2.34289e-15 0.00149423 0.164427)
(-2.47432e-15 0.00146497 0.163074)
(-4.25017e-15 0.00145451 0.161745)
(-4.8643e-15 0.00146256 0.16042)
(-5.62244e-15 0.00148847 0.15908)
(-4.556e-15 0.00153117 0.157709)
(-4.97845e-15 0.00158947 0.156293)
(-3.34597e-15 0.00166179 0.15482)
(-3.98699e-15 0.00174618 0.153278)
(-5.27716e-15 0.00183984 0.151662)
(-3.33202e-15 0.00193976 0.149967)
(-2.86462e-15 0.00204311 0.148193)
(-8.60795e-16 0.00214688 0.14634)
(-3.96379e-16 0.00224696 0.144412)
(-2.49157e-16 0.00233559 0.142419)
(-1.83792e-16 0.00240326 0.140383)
(-4.39789e-16 0.00245146 0.138325)
(-1.07651e-15 0.00248962 0.136251)
(-1.8384e-15 0.00251994 0.134167)
(-2.47914e-15 0.00253958 0.132083)
(-3.49641e-15 0.00254595 0.130013)
(-2.92549e-15 0.00253718 0.127969)
(-3.76562e-15 0.00251188 0.125964)
(-4.49502e-15 0.0024693 0.124011)
(-7.39119e-15 0.00240865 0.122123)
(-6.85535e-15 0.002329 0.120314)
(-8.43174e-15 0.00223032 0.118594)
(-1.04331e-14 0.0021094 0.116977)
(-1.03341e-14 0.00196705 0.115481)
(-9.67973e-15 0.00180614 0.114099)
(-6.27124e-15 0.00159726 0.112858)
(-4.27023e-15 0.001291 0.111766)
(1.56553e-15 0.000962195 0.110839)
(4.22389e-15 0.000668226 0.110144)
(7.89983e-15 0.000357235 0.109514)
(-3.40839e-17 0.0407288 1.71398)
(1.47825e-16 0.038935 1.61484)
(1.7196e-16 0.0376075 1.52588)
(3.90312e-16 0.0367019 1.44624)
(5.19487e-16 0.0357966 1.37051)
(2.07651e-16 0.0349462 1.29835)
(6.17748e-16 0.0341472 1.23009)
(6.9621e-16 0.0333312 1.16528)
(7.1224e-16 0.0324728 1.10359)
(6.87236e-16 0.0315652 1.0449)
(6.25266e-16 0.0306004 0.989134)
(7.02214e-16 0.0295765 0.936204)
(6.35726e-16 0.0284989 0.886063)
(7.3552e-16 0.0273784 0.838672)
(8.21525e-16 0.0262298 0.793988)
(4.57668e-16 0.0250708 0.751951)
(4.41461e-16 0.0239208 0.712485)
(5.4152e-16 0.0227989 0.675488)
(5.49576e-16 0.021722 0.640834)
(5.93865e-16 0.0207021 0.60838)
(5.54972e-16 0.0197442 0.577974)
(1.06404e-15 0.0188448 0.549473)
(1.26319e-15 0.0179928 0.522753)
(1.39403e-15 0.0171726 0.497718)
(1.38211e-15 0.0163691 0.474299)
(1.41389e-15 0.0155719 0.452444)
(7.01e-16 0.0147778 0.432106)
(9.18503e-16 0.0139912 0.413231)
(7.88312e-16 0.0132221 0.395752)
(4.64295e-16 0.0124829 0.379587)
(2.04117e-16 0.0117854 0.364638)
(8.88785e-17 0.0111384 0.350799)
(-1.55134e-16 0.0105463 0.337961)
(4.0903e-16 0.0100093 0.326019)
(-3.92888e-16 0.0095239 0.314875)
(-4.22603e-16 0.00908392 0.304444)
(-4.90292e-16 0.00868209 0.294654)
(-7.06454e-16 0.00831088 0.285443)
(-6.72914e-16 0.00796334 0.276763)
(-7.56238e-16 0.00763356 0.268574)
(-1.08708e-15 0.00731693 0.260845)
(-1.22278e-15 0.00701016 0.253551)
(-2.57252e-15 0.00671139 0.246669)
(-3.102e-15 0.00642005 0.24018)
(-3.40224e-15 0.00613635 0.234065)
(-3.63361e-15 0.0058607 0.228307)
(-3.67367e-15 0.00559318 0.222887)
(-3.54967e-15 0.00533332 0.217789)
(-3.08634e-15 0.00507991 0.212995)
(-4.46209e-15 0.00483155 0.208492)
(-4.3897e-15 0.00458828 0.204266)
(-5.77431e-15 0.0043513 0.200307)
(-5.84715e-15 0.00412225 0.196601)
(-5.38995e-15 0.0039025 0.19314)
(-5.2465e-15 0.00369244 0.18991)
(-3.60844e-15 0.00349113 0.186904)
(-3.59373e-15 0.00329696 0.184102)
(-3.38254e-15 0.00310473 0.181494)
(-4.97257e-15 0.00290436 0.179081)
(-4.83505e-15 0.00270204 0.176852)
(-6.05538e-15 0.00251803 0.174815)
(-5.62e-15 0.00236098 0.172943)
(-5.05035e-15 0.00222839 0.171205)
(-4.64747e-15 0.00211883 0.169579)
(-3.78848e-15 0.00203331 0.168038)
(-6.21455e-15 0.00197228 0.166561)
(-6.05487e-15 0.00193601 0.165126)
(-7.40731e-15 0.00192449 0.163713)
(-7.17803e-15 0.00193716 0.162302)
(-8.55901e-15 0.00197305 0.160876)
(-8.42974e-15 0.00203068 0.159418)
(-8.3399e-15 0.00210837 0.157914)
(-6.0654e-15 0.00220398 0.156353)
(-6.55304e-15 0.00231479 0.154725)
(-5.9235e-15 0.00243696 0.153024)
(-4.46458e-15 0.00256675 0.151247)
(-4.92295e-15 0.00270046 0.149393)
(-2.53757e-15 0.00283412 0.147464)
(-1.56963e-15 0.00296198 0.145465)
(3.38652e-16 0.00307224 0.143407)
(1.20541e-15 0.00315374 0.141317)
(-1.56493e-15 0.00321258 0.13921)
(-2.18351e-15 0.00326044 0.137091)
(-1.96309e-15 0.00329741 0.134966)
(-3.21579e-15 0.00331954 0.132847)
(-3.66639e-15 0.00332386 0.130748)
(-3.986e-15 0.00330822 0.12868)
(-4.32679e-15 0.00327109 0.126657)
(-5.04428e-15 0.00321161 0.124692)
(-4.42185e-15 0.00312899 0.122797)
(-5.06313e-15 0.00302221 0.120985)
(-5.41203e-15 0.00289112 0.119266)
(-7.45093e-15 0.00273215 0.117653)
(-7.67896e-15 0.00254703 0.116162)
(-7.23815e-15 0.00234047 0.114785)
(-4.20527e-15 0.00208219 0.113544)
(-2.62564e-16 0.00171664 0.112461)
(3.57952e-15 0.00131784 0.111498)
(3.05826e-15 0.000966894 0.110782)
(1.17703e-14 0.000557526 0.110044)
(-3.05354e-17 0.0499376 1.70089)
(1.46307e-16 0.0470639 1.604)
(1.48069e-16 0.0453124 1.51697)
(3.58184e-16 0.0441937 1.43893)
(4.76946e-16 0.0431177 1.36454)
(4.08003e-16 0.042127 1.29361)
(5.63875e-16 0.0412072 1.22651)
(9.5612e-16 0.0402736 1.16282)
(1.02829e-15 0.0392957 1.10222)
(6.68855e-16 0.0382642 1.04458)
(5.23131e-16 0.0371673 0.989797)
(8.88295e-16 0.0359994 0.93776)
(9.32778e-16 0.0347641 0.888396)
(8.93275e-16 0.0334714 0.841648)
(9.12015e-16 0.0321368 0.797462)
(8.31743e-16 0.0307801 0.755782)
(8.13849e-16 0.0294244 0.716538)
(4.44321e-16 0.028093 0.67964)
(3.98411e-16 0.0268072 0.64498)
(8.6479e-16 0.0255825 0.61243)
(1.37794e-15 0.0244256 0.581861)
(1.40487e-15 0.0233322 0.553154)
(1.77886e-15 0.0222892 0.526211)
(2.3312e-15 0.0212781 0.500961)
(1.81997e-15 0.0202817 0.477353)
(1.70679e-15 0.019289 0.455348)
(1.45367e-15 0.0182982 0.434904)
(1.18815e-15 0.0173165 0.415963)
(1.10929e-15 0.0163574 0.398451)
(4.17625e-16 0.0154368 0.382274)
(2.30571e-16 0.0145696 0.367327)
(-3.99469e-16 0.0137665 0.353495)
(-4.8941e-16 0.0130327 0.340664)
(-4.53569e-16 0.0123681 0.328726)
(-2.5188e-17 0.011768 0.317581)
(4.84726e-16 0.0112247 0.307146)
(3.79048e-16 0.0107289 0.297346)
(1.59695e-16 0.0102714 0.288122)
(-9.58233e-17 0.00984337 0.279426)
(-4.97545e-17 0.00943742 0.271219)
(-1.24292e-15 0.00904778 0.263471)
(-2.68381e-15 0.00867036 0.256156)
(-2.87611e-15 0.00830279 0.249253)
(-4.26219e-15 0.0079443 0.242742)
(-4.50238e-15 0.00759513 0.236604)
(-4.52028e-15 0.00725573 0.230822)
(-4.56182e-15 0.00692634 0.225378)
(-4.52111e-15 0.0066065 0.220253)
(-4.31865e-15 0.00629484 0.215431)
(-4.14409e-15 0.00598961 0.210896)
(-3.81339e-15 0.00569079 0.206635)
(-3.4594e-15 0.00539958 0.202635)
(-3.25641e-15 0.00511746 0.198884)
(-3.16323e-15 0.00484596 0.195373)
(-3.23759e-15 0.00458531 0.19209)
(-3.17683e-15 0.00433523 0.189027)
(-3.25912e-15 0.00409451 0.186167)
(-2.97841e-15 0.00385822 0.183496)
(-4.56642e-15 0.00361588 0.181018)
(-4.92442e-15 0.00336988 0.178716)
(-5.3499e-15 0.00314218 0.176605)
(-4.09692e-15 0.00294733 0.174661)
(-4.05514e-15 0.00278306 0.172852)
(-4.05368e-15 0.00264804 0.171154)
(-3.81025e-15 0.00254361 0.16954)
(-4.89939e-15 0.00246979 0.16799)
(-6.18588e-15 0.0024268 0.166482)
(-7.89133e-15 0.00241446 0.164995)
(-7.65116e-15 0.00243193 0.163511)
(-8.93978e-15 0.0024779 0.162011)
(-8.80035e-15 0.00255044 0.16048)
(-8.54284e-15 0.00264742 0.158905)
(-7.65511e-15 0.00276611 0.157273)
(-7.25095e-15 0.00290292 0.155576)
(-3.67345e-15 0.00305291 0.153808)
(-2.36718e-15 0.00321179 0.151967)
(-1.84184e-15 0.00337488 0.150053)
(2.64308e-16 0.00353735 0.148067)
(9.55992e-16 0.00369125 0.146013)
(1.26328e-15 0.0038196 0.143908)
(1.52433e-15 0.00391234 0.141783)
(1.03167e-15 0.00398127 0.139643)
(1.14872e-15 0.00403768 0.137493)
(3.72612e-15 0.00407963 0.135342)
(2.30508e-15 0.00410245 0.133202)
(-1.71098e-15 0.00410286 0.131087)
(-2.76565e-15 0.00407853 0.129009)
(-3.3801e-15 0.0040278 0.12698)
(-3.90028e-15 0.00394978 0.125014)
(-4.27885e-15 0.00384368 0.123121)
(-4.71335e-15 0.00370857 0.121316)
(-4.68681e-15 0.00354417 0.119605)
(-6.29766e-15 0.00334674 0.118002)
(-6.52356e-15 0.00311914 0.116523)
(-4.66998e-15 0.00286741 0.115155)
(-1.3899e-15 0.0025601 0.11392)
(1.28795e-15 0.00213976 0.112854)
(4.24638e-15 0.00167931 0.111871)
(9.38913e-15 0.00128139 0.111151)
(1.84076e-14 0.00078008 0.110335)
(1.32846e-18 0.0576501 1.68446)
(1.8132e-17 0.0544886 1.58868)
(1.71333e-16 0.0526072 1.503)
(3.88114e-16 0.0513759 1.42633)
(5.32525e-16 0.0501668 1.35327)
(2.5821e-16 0.0490535 1.28358)
(2.95481e-16 0.0480225 1.21765)
(4.60379e-16 0.046977 1.15508)
(4.58958e-16 0.0458837 1.09554)
(3.11828e-16 0.0447325 1.03893)
(4.03489e-16 0.0435096 0.985131)
(5.41314e-16 0.0422076 0.934032)
(6.76425e-16 0.0408284 0.885539)
(7.56471e-16 0.0393808 0.839577)
(8.81372e-16 0.0378801 0.796077)
(6.16196e-16 0.0363473 0.754972)
(6.19073e-16 0.0348075 0.716187)
(1.02621e-15 0.0332877 0.679637)
(9.23029e-16 0.0318125 0.645218)
(1.40215e-15 0.0304002 0.612817)
(1.18749e-15 0.029058 0.582322)
(1.17617e-15 0.0277805 0.553639)
(1.74238e-15 0.0265521 0.526697)
(2.05354e-15 0.0253521 0.501449)
(2.08459e-15 0.0241619 0.477863)
(2.0761e-15 0.0229714 0.455911)
(1.52168e-15 0.0217814 0.43555)
(7.51425e-16 0.0206027 0.416717)
(1.21511e-15 0.0194531 0.399329)
(5.81023e-16 0.0183522 0.383282)
(3.27519e-16 0.0173176 0.368459)
(7.75484e-17 0.0163614 0.354742)
(-1.32755e-16 0.0154893 0.342011)
(-3.00427e-16 0.0147005 0.330158)
(-3.70459e-16 0.013989 0.319085)
(-2.24205e-16 0.0133453 0.308707)
(-1.31373e-16 0.0127583 0.298954)
(-7.53013e-17 0.0122166 0.289768)
(-1.78107e-16 0.0117099 0.281102)
(2.56609e-17 0.0112294 0.27292)
(-1.42499e-15 0.0107681 0.265191)
(-1.85619e-15 0.0103212 0.257891)
(-3.47899e-15 0.00988599 0.251)
(-4.06376e-15 0.00946145 0.244497)
(-4.41673e-15 0.00904785 0.238365)
(-4.6212e-15 0.00864579 0.232584)
(-5.00257e-15 0.00825564 0.227137)
(-4.15049e-15 0.00787707 0.222006)
(-3.34486e-15 0.00750853 0.217173)
(-1.31508e-15 0.007148 0.212622)
(4.99966e-16 0.00679532 0.20834)
(2.46963e-15 0.00645163 0.204312)
(1.66709e-15 0.00611813 0.200526)
(4.78862e-16 0.00579645 0.196975)
(-6.1415e-16 0.00548664 0.193647)
(-1.39115e-15 0.00518886 0.190535)
(-2.27383e-15 0.00490242 0.187623)
(-2.46047e-15 0.00462304 0.184896)
(-4.26118e-15 0.00434087 0.182357)
(-4.71109e-15 0.00405284 0.17999)
(-4.90725e-15 0.00378177 0.177814)
(-4.85584e-15 0.00354864 0.175805)
(-5.1111e-15 0.00335252 0.173935)
(-3.77492e-15 0.00319226 0.172173)
(-4.01086e-15 0.0030689 0.170497)
(-2.80495e-15 0.00298232 0.168885)
(-4.53749e-15 0.00293266 0.167315)
(-6.01648e-15 0.00291953 0.165768)
(-5.51299e-15 0.00294179 0.164223)
(-6.51041e-15 0.00299778 0.162663)
(-5.73197e-15 0.00308511 0.161074)
(-6.20174e-15 0.00320122 0.159441)
(-5.18322e-15 0.0033427 0.157753)
(-4.11245e-15 0.00350508 0.156001)
(-2.4764e-15 0.00368229 0.154182)
(-9.99822e-16 0.00386963 0.152291)
(1.71412e-15 0.00406126 0.15033)
(3.61821e-15 0.00425168 0.148299)
(3.78513e-15 0.00442989 0.146204)
(3.12202e-15 0.00457298 0.144066)
(3.75061e-15 0.00467508 0.141916)
(2.71307e-15 0.00475374 0.139752)
(2.41634e-15 0.00481763 0.137581)
(4.56417e-15 0.00486302 0.135413)
(3.96684e-15 0.00488487 0.133261)
(2.4856e-15 0.00487969 0.131138)
(9.566e-16 0.00484501 0.129057)
(-7.25136e-16 0.00477912 0.127029)
(-6.27428e-16 0.00468112 0.125068)
(-1.61229e-15 0.00455026 0.123184)
(-2.6175e-15 0.00438583 0.12139)
(-3.15435e-15 0.00418741 0.119692)
(-5.35822e-15 0.00395121 0.118104)
(-5.60884e-15 0.00368141 0.116639)
(-5.41814e-15 0.00338485 0.115285)
(-9.68062e-16 0.00302818 0.11406)
(2.7097e-15 0.00255585 0.113019)
(8.55823e-15 0.00204082 0.11203)
(1.07855e-14 0.00160416 0.111318)
(1.84791e-14 0.00101835 0.110452)
(1.22737e-16 0.0655629 1.66569)
(1.0657e-16 0.06193 1.57085)
(2.47737e-16 0.059747 1.4862)
(4.75842e-16 0.0583364 1.41061)
(5.60064e-16 0.056977 1.33864)
(5.0996e-16 0.0557397 1.27006)
(5.21205e-16 0.0546004 1.20523)
(2.16526e-16 0.0534472 1.14373)
(2.22523e-16 0.0522426 1.08522)
(2.78969e-16 0.0509755 1.02962)
(3.50398e-16 0.0496309 0.976792)
(4.27416e-16 0.0482003 0.926632)
(5.19854e-16 0.0466851 0.879035)
(6.24252e-16 0.0450934 0.833915)
(6.83908e-16 0.0434403 0.791188)
(1.05085e-15 0.0417473 0.750773)
(1.03423e-15 0.0400411 0.712589)
(1.10301e-15 0.0383512 0.676542)
(1.07871e-15 0.0367047 0.64253)
(1.20991e-15 0.035121 0.610448)
(1.29661e-15 0.0336069 0.580202)
(1.21989e-15 0.0321551 0.55172)
(1.7065e-15 0.0307472 0.524955)
(2.23119e-15 0.0293606 0.499884)
(2.19952e-15 0.0279768 0.476491)
(2.22038e-15 0.0265878 0.454752)
(1.49385e-15 0.0251982 0.434624)
(1.53252e-15 0.0238233 0.416034)
(1.32629e-15 0.0224855 0.398888)
(1.03476e-15 0.021208 0.383072)
(6.83209e-16 0.0200106 0.368463)
(3.80129e-16 0.0189066 0.354934)
(9.41013e-17 0.0179015 0.342367)
(-1.72187e-16 0.0169936 0.330654)
(-5.27763e-16 0.0161752 0.319698)
(-1.23238e-16 0.0154351 0.30942)
(-1.70273e-16 0.0147601 0.29975)
(-2.70406e-16 0.0141372 0.290634)
(-4.60208e-16 0.0135543 0.282028)
(-3.21851e-16 0.0130013 0.273897)
(-1.69689e-15 0.0124701 0.266212)
(-2.42453e-15 0.0119554 0.258951)
(-4.06049e-15 0.0114539 0.252092)
(-4.52181e-15 0.0109648 0.245617)
(-4.75575e-15 0.0104882 0.239507)
(-4.97794e-15 0.0100249 0.233744)
(-5.23901e-15 0.00957547 0.22831)
(-5.55563e-15 0.00913973 0.223185)
(-4.60716e-15 0.00871601 0.218354)
(-3.10489e-15 0.00830202 0.213798)
(-2.81192e-15 0.00789739 0.209503)
(-2.47183e-15 0.00750313 0.205456)
(-2.36455e-15 0.00712009 0.201646)
(-2.46634e-15 0.00674992 0.198064)
(-2.81509e-15 0.00639249 0.194701)
(-2.80862e-15 0.00604848 0.191548)
(-4.79109e-15 0.00571751 0.18859)
(-3.96742e-15 0.00539623 0.185815)
(-4.55211e-15 0.00507566 0.183223)
(-3.95745e-15 0.00474676 0.180802)
(-4.64559e-15 0.00443268 0.178569)
(-5.44598e-15 0.00416095 0.176508)
(-6.17271e-15 0.00393298 0.174584)
(-6.49488e-15 0.00374754 0.172768)
(-6.92482e-15 0.00360508 0.17104)
(-6.89153e-15 0.0035056 0.169378)
(-8.22621e-15 0.00344917 0.167758)
(-1.02263e-14 0.00343515 0.166161)
(-1.05931e-14 0.00346206 0.164568)
(-1.09706e-14 0.00352793 0.16296)
(-9.43745e-15 0.00362989 0.161324)
(-8.98706e-15 0.00376494 0.159645)
(-8.41928e-15 0.00392894 0.157913)
(-8.0627e-15 0.00411641 0.156118)
(-6.12296e-15 0.0043203 0.154258)
(-5.51144e-15 0.00453559 0.152329)
(-3.23775e-15 0.00475517 0.15033)
(-5.78132e-16 0.00497272 0.148265)
(3.90112e-16 0.00517308 0.146137)
(7.8667e-16 0.00532837 0.143977)
(-3.61964e-16 0.00543906 0.141806)
(-2.52417e-15 0.00552674 0.139624)
(-1.97978e-15 0.00559688 0.137439)
(-1.92771e-15 0.00564427 0.135261)
(-1.9971e-15 0.00566367 0.133103)
(-2.48929e-15 0.00565139 0.130977)
(-3.07605e-15 0.00560489 0.128898)
(-3.79026e-15 0.00552247 0.126876)
(-4.68884e-15 0.00540323 0.124924)
(-3.97172e-15 0.00524648 0.123052)
(-4.32436e-15 0.00505187 0.121273)
(-6.0738e-15 0.00481886 0.119591)
(-8.47866e-15 0.0045436 0.118021)
(-7.54161e-15 0.00423187 0.116575)
(-5.64362e-15 0.00389084 0.115238)
(-2.90641e-15 0.00348374 0.114026)
(9.2248e-16 0.00296053 0.113015)
(3.48141e-15 0.00239656 0.112032)
(7.30716e-15 0.0019277 0.111338)
(1.35907e-14 0.00126522 0.110446)
(1.47545e-16 0.0733204 1.64499)
(1.57395e-16 0.0692137 1.55108)
(2.87786e-16 0.0666961 1.46742)
(5.34742e-16 0.0650855 1.3928)
(4.36131e-16 0.0635688 1.32179)
(4.1326e-16 0.0622052 1.25421)
(6.17633e-16 0.0609567 1.19039)
(5.66837e-16 0.0596962 1.1299)
(4.09204e-16 0.0583819 1.07239)
(6.54552e-16 0.0570014 1.01776)
(6.53132e-16 0.055538 0.965895)
(6.28741e-16 0.0539825 0.916664)
(6.23188e-16 0.0523364 0.869965)
(6.59509e-16 0.0506077 0.825703)
(6.87e-16 0.0488115 0.783785)
(8.21869e-16 0.0469699 0.744119)
(1.0143e-15 0.0451112 0.706612)
(8.22105e-16 0.0432664 0.671161)
(4.47505e-16 0.0414638 0.637663)
(9.67316e-16 0.039723 0.606018)
(1.19205e-15 0.038049 0.576146)
(1.13567e-15 0.0364315 0.547997)
(1.78755e-15 0.0348492 0.521547)
(1.05657e-15 0.0332785 0.496792)
(1.47562e-15 0.0317021 0.473728)
(2.01319e-15 0.0301153 0.45233)
(1.92369e-15 0.0285275 0.43255)
(1.17536e-15 0.0269596 0.414304)
(9.13574e-16 0.0254383 0.397487)
(8.41594e-16 0.0239901 0.381975)
(7.90997e-17 0.0226366 0.367637)
(-8.99051e-18 0.0213918 0.354347)
(-5.14319e-16 0.0202604 0.341985)
(-1.10088e-15 0.0192394 0.330446)
(-1.34346e-15 0.0183195 0.319638)
(-7.58643e-16 0.0174875 0.309484)
(-8.14296e-16 0.0167284 0.29992)
(-9.99241e-16 0.0160275 0.290896)
(-1.22193e-15 0.0153711 0.282369)
(-1.27005e-15 0.0147478 0.274307)
(-1.71887e-15 0.0141488 0.266682)
(-1.97195e-15 0.013568 0.259474)
(-3.84526e-15 0.0130021 0.252661)
(-4.66137e-15 0.0124499 0.246227)
(-5.25343e-15 0.0119119 0.240151)
(-5.71356e-15 0.011389 0.234417)
(-6.06657e-15 0.010882 0.229005)
(-6.3868e-15 0.0103909 0.223897)
(-6.49657e-15 0.00991378 0.219075)
(-6.31853e-15 0.00944829 0.214523)
(-6.07959e-15 0.0089937 0.210225)
(-5.89685e-15 0.00855083 0.206169)
(-5.62253e-15 0.0081201 0.202343)
(-5.38085e-15 0.00770313 0.198738)
(-5.37371e-15 0.00729967 0.195348)