/*--------------------------------*- C++ -*----------------------------------*\
| =========                 |                                                 |
| \\      /  F ield         | OpenFOAM: The Open Source CFD Toolbox           |
|  \\    /   O peration     | Version:  4.1                                   |
|   \\  /    A nd           | Web:      www.OpenFOAM.org                      |
|    \\/     M anipulation  |                                                 |
\*---------------------------------------------------------------------------*/
FoamFile
{
    version     2.0;
    format      ascii;
    class       volScalarField;
    location    "1000";
    object      k;
}
// * * * * * * * * * * * * * * * * * * * * * * * * * * * * * * * * * * * * * //

dimensions      [0 2 -2 0 0 0 0];

internalField   nonuniform List<scalar> 
6820
(
0.257082
0.434211
0.59852
0.709382
0.778145
0.818049
0.838548
0.845896
0.844371
0.836964
0.825768
0.812248
0.797427
0.782016
0.7665
0.751203
0.736339
0.722039
0.708382
0.695405
0.68312
0.671521
0.66059
0.650302
0.640625
0.631528
0.622975
0.614937
0.607354
0.600312
0.59321
0.588714
0.574505
0.811277
1.44613
1.51874
1.38792
1.22323
1.07762
0.95922
0.864569
0.788642
0.727157
0.676842
0.635256
0.600578
0.571431
0.546763
0.525757
0.507776
0.49231
0.478953
0.467376
0.457309
0.44853
0.440857
0.434136
0.428238
0.423055
0.418497
0.414488
0.41096
0.40788
0.40515
0.402936
0.400681
0.368869
0.66416
0.797428
0.829397
0.816589
0.786285
0.750411
0.713991
0.679044
0.646311
0.616001
0.588103
0.562514
0.539088
0.517663
0.498077
0.480172
0.463799
0.44882
0.435106
0.422543
0.411025
0.400456
0.390751
0.381831
0.373626
0.366073
0.359115
0.352701
0.346787
0.341327
0.336302
0.331651
0.240027
0.336287
0.412169
0.460222
0.487105
0.500012
0.504036
0.502508
0.497533
0.490423
0.482012
0.472846
0.463295
0.45361
0.443967
0.434483
0.425241
0.416294
0.407675
0.399404
0.391489
0.383932
0.37673
0.369874
0.363355
0.357161
0.351278
0.345693
0.340392
0.335363
0.330591
0.326065
0.321765
0.214145
0.250649
0.284542
0.31208
0.332947
0.348027
0.358469
0.365345
0.369528
0.371681
0.372296
0.371744
0.370308
0.368202
0.365595
0.362616
0.359368
0.355933
0.352374
0.348742
0.345077
0.341411
0.337769
0.33417
0.330628
0.327157
0.323764
0.320455
0.317236
0.314109
0.311076
0.308138
0.305296
0.20564
0.221937
0.238617
0.25366
0.26644
0.276904
0.285273
0.29185
0.296934
0.300784
0.303614
0.305602
0.306896
0.307615
0.307861
0.307715
0.307246
0.306513
0.305564
0.304438
0.303171
0.301792
0.300324
0.298789
0.297203
0.295582
0.293938
0.292282
0.290622
0.288965
0.287319
0.285689
0.28408
0.202357
0.210378
0.219404
0.228106
0.235957
0.242783
0.248605
0.253514
0.257621
0.261026
0.263824
0.266096
0.267914
0.269339
0.270425
0.271218
0.271758
0.272079
0.272212
0.272182
0.272013
0.271724
0.271333
0.270855
0.270303
0.269689
0.269023
0.268314
0.267571
0.266799
0.266006
0.265196
0.264376
0.201008
0.2051
0.210232
0.215526
0.22054
0.225078
0.229098
0.232621
0.235689
0.238346
0.240635
0.242597
0.244268
0.245681
0.246865
0.247846
0.248647
0.249289
0.249788
0.250162
0.250425
0.25059
0.250667
0.250668
0.250602
0.250476
0.250297
0.250074
0.249811
0.249513
0.249187
0.248835
0.248464
0.200424
0.202508
0.205459
0.208754
0.21204
0.21513
0.217953
0.220495
0.222768
0.224789
0.226579
0.228159
0.229548
0.230765
0.231826
0.232746
0.23354
0.23422
0.234797
0.235281
0.235681
0.236006
0.236262
0.236458
0.236599
0.236691
0.236738
0.236746
0.236719
0.23666
0.236574
0.236463
0.236331
0.200163
0.201193
0.202864
0.204904
0.207067
0.20919
0.211193
0.213044
0.214736
0.216272
0.217659
0.218908
0.220028
0.221031
0.221926
0.222722
0.223428
0.224051
0.224599
0.225079
0.225496
0.225856
0.226164
0.226425
0.226643
0.226822
0.226965
0.227076
0.227157
0.227213
0.227244
0.227255
0.227246
0.200044
0.20052
0.201431
0.202661
0.20406
0.205505
0.206921
0.208268
0.209528
0.210694
0.211766
0.212747
0.213641
0.214454
0.215192
0.215858
0.21646
0.217002
0.217488
0.217924
0.218312
0.218657
0.218962
0.219231
0.219467
0.219671
0.219848
0.219999
0.220126
0.220232
0.220318
0.220386
0.220439
0.199989
0.200177
0.20064
0.201347
0.20222
0.203178
0.204159
0.205125
0.206054
0.206932
0.207754
0.208519
0.209226
0.209879
0.210478
0.211028
0.21153
0.211989
0.212406
0.212786
0.21313
0.213441
0.213722
0.213974
0.214201
0.214403
0.214584
0.214744
0.214885
0.215008
0.215116
0.21521
0.21529
0.199965
0.200004
0.200209
0.200585
0.201099
0.201706
0.202361
0.203034
0.203702
0.204351
0.204971
0.205558
0.206111
0.206627
0.207107
0.207553
0.207966
0.208347
0.208698
0.209021
0.209317
0.209589
0.209837
0.210063
0.21027
0.210457
0.210627
0.210781
0.21092
0.211045
0.211158
0.211259
0.211349
0.199954
0.199918
0.199979
0.20015
0.200426
0.200783
0.201198
0.201645
0.202107
0.20257
0.203025
0.203465
0.203886
0.204286
0.204664
0.205019
0.205352
0.205662
0.205951
0.20622
0.206469
0.2067
0.206913
0.20711
0.207291
0.207458
0.207611
0.207752
0.207881
0.207999
0.208107
0.208206
0.208296
0.199949
0.199877
0.199858
0.199907
0.20003
0.200217
0.200456
0.200733
0.201034
0.201348
0.201667
0.201984
0.202294
0.202594
0.202883
0.203158
0.203419
0.203665
0.203898
0.204116
0.204321
0.204512
0.20469
0.204857
0.205011
0.205155
0.205289
0.205413
0.205528
0.205634
0.205733
0.205824
0.205908
0.199947
0.199857
0.199796
0.199776
0.199803
0.199877
0.199994
0.200145
0.200323
0.20052
0.200729
0.200944
0.20116
0.201375
0.201586
0.201791
0.201988
0.202178
0.202358
0.20253
0.202693
0.202846
0.202991
0.203127
0.203256
0.203376
0.203488
0.203594
0.203693
0.203785
0.203872
0.203953
0.204028
0.199947
0.199847
0.199764
0.199706
0.199676
0.199679
0.199713
0.199776
0.199863
0.19997
0.200092
0.200224
0.200363
0.200506
0.200651
0.200794
0.200936
0.201074
0.201208
0.201337
0.201461
0.201579
0.201692
0.2018
0.201902
0.201999
0.202091
0.202177
0.202259
0.202337
0.20241
0.202479
0.202544
0.199946
0.199843
0.199749
0.199669
0.199608
0.199567
0.199548
0.19955
0.199573
0.199614
0.199669
0.199737
0.199814
0.199898
0.199986
0.200078
0.20017
0.200264
0.200356
0.200447
0.200536
0.200622
0.200705
0.200786
0.200863
0.200938
0.201009
0.201077
0.201142
0.201205
0.201264
0.201321
0.201375
0.199946
0.199841
0.199742
0.199651
0.199571
0.199505
0.199453
0.199417
0.199396
0.199389
0.199396
0.199415
0.199443
0.19948
0.199523
0.199572
0.199624
0.199678
0.199735
0.199792
0.199849
0.199907
0.199964
0.20002
0.200074
0.200128
0.20018
0.20023
0.200279
0.200326
0.200372
0.200416
0.200459
0.199946
0.19984
0.199739
0.199642
0.199553
0.199471
0.1994
0.19934
0.19929
0.199252
0.199225
0.199209
0.199201
0.199202
0.199209
0.199223
0.199242
0.199265
0.199291
0.19932
0.199351
0.199383
0.199416
0.19945
0.199485
0.199519
0.199554
0.199588
0.199622
0.199655
0.199688
0.199721
0.199753
0.199946
0.19984
0.199737
0.199638
0.199543
0.199454
0.199372
0.199297
0.19923
0.199172
0.199122
0.199081
0.199048
0.199022
0.199003
0.198991
0.198984
0.198982
0.198984
0.198989
0.198998
0.19901
0.199023
0.199039
0.199056
0.199074
0.199093
0.199113
0.199134
0.199155
0.199177
0.199199
0.199221
0.199946
0.19984
0.199736
0.199635
0.199538
0.199445
0.199356
0.199273
0.199196
0.199125
0.199061
0.199004
0.198954
0.198911
0.198873
0.198842
0.198817
0.198796
0.19878
0.198768
0.19876
0.198755
0.198753
0.198754
0.198757
0.198763
0.19877
0.198778
0.198788
0.198799
0.198811
0.198825
0.198839
0.199946
0.19984
0.199736
0.199634
0.199536
0.19944
0.199349
0.199261
0.199178
0.1991
0.199028
0.198962
0.198901
0.198846
0.198798
0.198754
0.198716
0.198683
0.198655
0.198631
0.198611
0.198595
0.198583
0.198573
0.198567
0.198562
0.198561
0.198561
0.198563
0.198567
0.198572
0.198578
0.198586
0.199946
0.19984
0.199735
0.199634
0.199534
0.199438
0.199345
0.199255
0.19917
0.199089
0.199013
0.198942
0.198876
0.198816
0.198761
0.198711
0.198667
0.198628
0.198593
0.198563
0.198537
0.198514
0.198496
0.198481
0.198468
0.198459
0.198452
0.198447
0.198445
0.198444
0.198446
0.198448
0.198452
0.199946
0.19984
0.199735
0.199633
0.199534
0.199437
0.199344
0.199254
0.199168
0.199087
0.19901
0.198939
0.198873
0.198812
0.198756
0.198706
0.198661
0.198621
0.198586
0.198555
0.198528
0.198505
0.198485
0.198469
0.198456
0.198446
0.198438
0.198433
0.198429
0.198428
0.198428
0.19843
0.198433
0.199946
0.19984
0.199735
0.199634
0.199534
0.199438
0.199346
0.199257
0.199174
0.199095
0.199022
0.198954
0.198892
0.198836
0.198785
0.19874
0.1987
0.198665
0.198635
0.198609
0.198587
0.198569
0.198554
0.198542
0.198533
0.198527
0.198523
0.198521
0.19852
0.198522
0.198524
0.198529
0.198534
0.199946
0.19984
0.199736
0.199635
0.199537
0.199442
0.199353
0.199269
0.19919
0.199118
0.199053
0.198995
0.198943
0.198898
0.198858
0.198825
0.198797
0.198774
0.198756
0.198741
0.19873
0.198723
0.198718
0.198716
0.198716
0.198718
0.198722
0.198728
0.198734
0.198742
0.19875
0.19876
0.19877
0.199946
0.19984
0.199737
0.199637
0.199542
0.199453
0.19937
0.199295
0.199228
0.19917
0.199121
0.199079
0.199046
0.19902
0.199001
0.198988
0.19898
0.198977
0.198978
0.198982
0.198989
0.198998
0.19901
0.199023
0.199037
0.199052
0.199068
0.199085
0.199102
0.199119
0.199136
0.199153
0.199171
0.199946
0.199841
0.19974
0.199645
0.199557
0.199478
0.19941
0.199354
0.199309
0.199277
0.199255
0.199244
0.199241
0.199247
0.199259
0.199277
0.199299
0.199325
0.199353
0.199384
0.199416
0.199448
0.199481
0.199514
0.199547
0.199579
0.199611
0.199642
0.199672
0.199701
0.199729
0.199756
0.199782
0.199947
0.199844
0.199749
0.199664
0.199592
0.199537
0.199499
0.19948
0.199477
0.19949
0.199516
0.199553
0.199599
0.199652
0.19971
0.199772
0.199836
0.199901
0.199965
0.20003
0.200092
0.200154
0.200213
0.20027
0.200324
0.200376
0.200426
0.200473
0.200518
0.20056
0.200599
0.200637
0.200672
0.199948
0.199852
0.19977
0.199711
0.199677
0.199673
0.199697
0.199746
0.199818
0.199907
0.20001
0.200122
0.200239
0.20036
0.200481
0.2006
0.200717
0.20083
0.200939
0.201043
0.201141
0.201234
0.201322
0.201405
0.201482
0.201554
0.201622
0.201685
0.201743
0.201797
0.201848
0.201894
0.201937
0.199951
0.199872
0.199828
0.199831
0.199884
0.199985
0.200128
0.200302
0.2005
0.200711
0.200928
0.201146
0.201361
0.201569
0.201768
0.201958
0.202136
0.202304
0.20246
0.202606
0.20274
0.202865
0.202981
0.203087
0.203184
0.203274
0.203356
0.203431
0.2035
0.203563
0.203619
0.203671
0.203718
0.19996
0.199932
0.199988
0.200141
0.200383
0.200695
0.201055
0.20144
0.201833
0.202222
0.202597
0.202954
0.203288
0.203599
0.203885
0.204149
0.20439
0.204611
0.204811
0.204994
0.205159
0.205309
0.205445
0.205567
0.205677
0.205777
0.205866
0.205946
0.206017
0.20608
0.206137
0.206186
0.20623
0.19999
0.200113
0.200438
0.200945
0.201582
0.202288
0.203012
0.20372
0.20439
0.205011
0.205578
0.206091
0.206552
0.206965
0.207333
0.207661
0.207953
0.208212
0.208442
0.208646
0.208826
0.208985
0.209126
0.209249
0.209357
0.209451
0.209533
0.209603
0.209664
0.209715
0.209757
0.209792
0.209821
0.200097
0.200698
0.201729
0.20303
0.20443
0.205804
0.207078
0.208222
0.20923
0.210107
0.210866
0.211521
0.212084
0.212568
0.212984
0.213341
0.213648
0.213911
0.214135
0.214327
0.21449
0.214628
0.214743
0.214839
0.214917
0.214979
0.215028
0.215064
0.215089
0.215105
0.215111
0.215109
0.2151
0.200521
0.202675
0.205525
0.20847
0.211189
0.21355
0.215527
0.217152
0.218476
0.219552
0.220424
0.221131
0.221704
0.222168
0.222543
0.222845
0.223087
0.223277
0.223425
0.223537
0.223618
0.223672
0.223703
0.223713
0.223707
0.223684
0.223649
0.223601
0.223542
0.223475
0.223398
0.223315
0.223225
0.202177
0.209422
0.217079
0.223316
0.228003
0.231437
0.233925
0.235719
0.237011
0.237936
0.238593
0.239054
0.239367
0.239569
0.239685
0.239733
0.239727
0.239676
0.239588
0.239469
0.239325
0.239157
0.238971
0.238768
0.23855
0.23832
0.23808
0.23783
0.237573
0.237308
0.237039
0.236764
0.236486
0.208503
0.227596
0.245316
0.25869
0.267554
0.272837
0.275658
0.27695
0.277338
0.277195
0.276744
0.276116
0.275385
0.274596
0.273774
0.272932
0.27208
0.271221
0.270359
0.269495
0.268631
0.267769
0.266908
0.266051
0.265198
0.264351
0.263511
0.262678
0.261853
0.261037
0.260232
0.259437
0.258653
0.248308
0.315061
0.34816
0.362157
0.367118
0.367958
0.366701
0.364185
0.360865
0.357053
0.352965
0.348753
0.344525
0.340356
0.336297
0.332382
0.328633
0.32506
0.321669
0.31846
0.315431
0.312577
0.309891
0.307365
0.304994
0.302768
0.30068
0.298722
0.296886
0.295167
0.293555
0.292046
0.290632
0.205354
0.221127
0.238043
0.254121
0.268995
0.282971
0.296258
0.308938
0.321054
0.332632
0.343696
0.354264
0.36435
0.37397
0.38314
0.391874
0.400187
0.408094
0.415611
0.422753
0.429534
0.435971
0.442077
0.447868
0.453358
0.45856
0.463488
0.468155
0.472574
0.476757
0.480715
0.48446
0.488007
0.618004
0.695153
0.817506
0.966567
1.13136
1.2995
1.46232
1.61272
1.74487
1.85474
1.9408
2.00411
2.04765
2.07542
2.0915
2.09943
2.10191
2.10075
2.09707
2.09152
2.08447
2.07616
2.06682
2.05661
2.0457
2.03419
2.02211
2.00946
1.99617
1.98213
1.96721
1.95126
1.93411
1.91561
1.8956
1.87393
1.85048
1.82515
1.79784
1.76851
1.73714
1.70374
1.66836
1.63109
1.59206
1.55144
1.50943
1.46629
1.42228
1.37771
1.33292
1.28825
1.24405
1.20068
1.15848
1.11779
1.0789
1.0421
1.00761
0.975641
0.946333
0.919797
0.896099
0.875265
0.857282
0.842108
0.829669
0.81987
0.812596
0.807717
0.805089
0.80456
0.805971
0.809155
0.81394
0.82015
0.827603
0.836118
0.845508
0.855589
0.866175
0.877084
0.888141
0.899175
0.910027
0.920547
0.9306
0.940062
0.948826
0.956796
0.963893
0.970046
0.9752
0.9793
0.982328
0.984216
0.985061
0.984607
0.983663
0.980415
0.399149
0.404136
0.417432
0.441496
0.477023
0.524494
0.583817
0.654293
0.734607
0.822901
0.9168
1.0135
1.1099
1.2029
1.28964
1.36784
1.43599
1.49344
1.54034
1.57742
1.60581
1.62676
1.64148
1.65101
1.65624
1.65782
1.6563
1.65206
1.6454
1.63654
1.62565
1.61282
1.59812
1.58161
1.5633
1.54321
1.52133
1.49769
1.47231
1.44521
1.41645
1.38612
1.35431
1.32116
1.28681
1.25146
1.21531
1.1786
1.14159
1.10453
1.06772
1.03144
0.995977
0.961595
0.92856
0.897109
0.867457
0.839786
0.814248
0.79096
0.770004
0.751433
0.735264
0.721491
0.71008
0.700979
0.694118
0.689411
0.686764
0.686072
0.687226
0.690109
0.6946
0.700574
0.707899
0.716442
0.726062
0.736612
0.747945
0.759906
0.772339
0.785088
0.797997
0.810911
0.823684
0.836174
0.848249
0.859787
0.870679
0.880826
0.89014
0.898544
0.905974
0.912367
0.917694
0.921883
0.925012
0.926848
0.928022
0.927821
0.326703
0.321604
0.317077
0.313602
0.311902
0.312735
0.316627
0.324225
0.336405
0.354045
0.377969
0.408857
0.447121
0.492763
0.545262
0.603523
0.665918
0.730426
0.794862
0.857117
0.915392
0.968339
1.01512
1.05538
1.08914
1.11672
1.13856
1.1552
1.16716
1.17492
1.17891
1.17949
1.17698
1.17165
1.16371
1.15336
1.14077
1.12611
1.10951
1.09112
1.0711
1.04958
1.02673
1.00273
0.977754
0.952004
0.925689
0.899028
0.872247
0.845577
0.819249
0.793489
0.768514
0.744531
0.721725
0.700267
0.6803
0.661945
0.645298
0.630429
0.617384
0.606187
0.596841
0.589333
0.583634
0.579702
0.577487
0.576931
0.577968
0.580531
0.584547
0.58994
0.596629
0.604531
0.613558
0.623615
0.634601
0.646409
0.658926
0.672031
0.685597
0.699494
0.713587
0.727741
0.741822
0.755698
0.769244
0.782339
0.794872
0.806741
0.817853
0.828122
0.837475
0.845842
0.853182
0.859415
0.864601
0.868529
0.87165
0.874291
0.317033
0.311838
0.306763
0.301844
0.297175
0.292878
0.289097
0.285975
0.283649
0.28236
0.282413
0.284177
0.288074
0.29457
0.304136
0.317206
0.334115
0.355035
0.379915
0.408445
0.440048
0.473917
0.50908
0.544497
0.57915
0.612137
0.642721
0.670364
0.694725
0.715631
0.733052
0.747056
0.757777
0.765392
0.770094
0.772086
0.771568
0.768738
0.763789
0.756911
0.74829
0.738112
0.726566
0.713838
0.700121
0.685608
0.670495
0.654978
0.639252
0.623509
0.607935
0.592707
0.577992
0.563944
0.550702
0.538387
0.527103
0.516936
0.507955
0.500209
0.493734
0.488551
0.484667
0.482079
0.480777
0.480741
0.481947
0.484366
0.487968
0.492717
0.498577
0.505508
0.513468
0.522409
0.532281
0.543025
0.554577
0.566865
0.579808
0.593318
0.607296
0.621638
0.636233
0.650964
0.665713
0.680359
0.694784
0.708873
0.722515
0.735603
0.748042
0.759738
0.77061
0.780579
0.789591
0.79756
0.804524
0.810295
0.815149
0.820363
0.302098
0.298518
0.294964
0.291424
0.287901
0.284413
0.280991
0.277675
0.274503
0.271523
0.268794
0.266396
0.264424
0.263001
0.26227
0.262401
0.263584
0.266022
0.269912
0.275435
0.282726
0.291857
0.302814
0.315486
0.329663
0.345044
0.361258
0.377889
0.394507
0.410701
0.426097
0.440383
0.453311
0.464702
0.474442
0.482474
0.488788
0.493415
0.496415
0.497872
0.497889
0.496582
0.494079
0.490516
0.486034
0.480778
0.474898
0.468541
0.461855
0.454984
0.448068
0.441237
0.434617
0.42832
0.422452
0.417102
0.41235
0.408265
0.404903
0.402308
0.400515
0.399551
0.399434
0.400175
0.40178
0.404252
0.40759
0.411789
0.416843
0.422744
0.429484
0.43705
0.445428
0.4546
0.464545
0.475235
0.486635
0.498702
0.511386
0.524626
0.538351
0.552484
0.566934
0.581607
0.5964
0.611208
0.625921
0.640431
0.65463
0.668412
0.681677
0.694327
0.706275
0.717431
0.727732
0.737085
0.745504
0.752823
0.759154
0.766617
0.28223
0.280113
0.27797
0.275792
0.273572
0.27131
0.269016
0.266706
0.264393
0.262096
0.259832
0.257622
0.25549
0.253467
0.251587
0.249894
0.24844
0.247288
0.246508
0.246178
0.246379
0.247194
0.248695
0.250944
0.253981
0.257815
0.262428
0.267761
0.273725
0.280197
0.287033
0.294072
0.301146
0.308094
0.314761
0.321014
0.326741
0.331855
0.336293
0.340018
0.343018
0.345299
0.346887
0.347825
0.348167
0.347979
0.347336
0.346318
0.345009
0.343494
0.34186
0.34019
0.338564
0.33706
0.335749
0.334695
0.333958
0.333589
0.333635
0.334133
0.335118
0.336618
0.338655
0.34125
0.344418
0.348173
0.352527
0.357489
0.363071
0.369278
0.376119
0.3836
0.391726
0.400498
0.409915
0.419971
0.430655
0.441947
0.453822
0.466243
0.479166
0.492535
0.506285
0.52034
0.534619
0.54903
0.563478
0.577863
0.592084
0.606039
0.619627
0.632748
0.64531
0.657217
0.668396
0.678749
0.688268
0.696804
0.704322
0.713655
0.263407
0.26227
0.261089
0.259861
0.258578
0.257238
0.255845
0.254404
0.252924
0.251413
0.24988
0.248333
0.246782
0.245236
0.243705
0.242202
0.240743
0.239344
0.238029
0.236821
0.235752
0.234854
0.234161
0.233711
0.233539
0.233675
0.234145
0.234967
0.236147
0.237679
0.239545
0.241715
0.244145
0.246783
0.249572
0.252449
0.255351
0.258218
0.260993
0.263631
0.266091
0.268344
0.270374
0.272171
0.273739
0.275088
0.276239
0.27722
0.278062
0.278803
0.279485
0.280149
0.280839
0.281597
0.282467
0.283488
0.284698
0.286132
0.287821
0.289797
0.292083
0.294705
0.297682
0.301034
0.304779
0.308932
0.313509
0.318526
0.323996
0.329935
0.336358
0.34328
0.350715
0.358677
0.367178
0.376225
0.385823
0.395972
0.406664
0.417885
0.42961
0.441805
0.454429
0.467426
0.480735
0.494282
0.507989
0.521767
0.535527
0.549173
0.562607
0.575733
0.588456
0.600677
0.612315
0.623269
0.633511
0.642911
0.651299
0.662086
0.248006
0.247447
0.246846
0.246201
0.245506
0.244758
0.243958
0.243109
0.242214
0.241279
0.240308
0.239307
0.23828
0.237232
0.236167
0.23509
0.234007
0.232921
0.231842
0.230778
0.229739
0.228738
0.227788
0.226907
0.226112
0.22542
0.22485
0.224418
0.224141
0.224031
0.224095
0.224338
0.224758
0.225351
0.226104
0.227003
0.228029
0.229162
0.23038
0.231659
0.232979
0.234322
0.23567
0.237012
0.238341
0.239651
0.240945
0.242227
0.243508
0.244798
0.246115
0.247477
0.248903
0.250414
0.252032
0.253778
0.255674
0.25774
0.259995
0.262458
0.265146
0.268075
0.271259
0.274712
0.278449
0.282483
0.286828
0.291497
0.296506
0.301869
0.307604
0.313729
0.32026
0.327218
0.33462
0.342482
0.35082
0.359645
0.368963
0.378775
0.389076
0.399851
0.411075
0.422717
0.434733
0.447071
0.459667
0.472453
0.485349
0.498272
0.511134
0.523842
0.536304
0.548424
0.560116
0.571278
0.581866
0.591766
0.600701
0.6125
0.236151
0.235915
0.235644
0.235335
0.234987
0.234594
0.234158
0.233679
0.233159
0.232601
0.232008
0.231383
0.23073
0.230051
0.229348
0.228625
0.227883
0.227125
0.226353
0.225572
0.224784
0.223995
0.223211
0.222439
0.221687
0.220963
0.220279
0.219644
0.21907
0.218565
0.218142
0.217808
0.21757
0.217435
0.217405
0.217483
0.217667
0.217956
0.218346
0.218832
0.219408
0.220068
0.220806
0.221618
0.222499
0.223448
0.224463
0.225546
0.226699
0.227928
0.229238
0.230638
0.232135
0.23374
0.235464
0.237317
0.239309
0.241452
0.243754
0.246228
0.24888
0.251722
0.25476
0.258004
0.261463
0.265144
0.269059
0.273218
0.277632
0.282315
0.287282
0.292549
0.298135
0.304059
0.310341
0.317002
0.324062
0.331538
0.339447
0.347801
0.356607
0.365866
0.37557
0.385705
0.396247
0.407161
0.418404
0.429924
0.441659
0.45354
0.46549
0.477427
0.489266
0.500916
0.512293
0.523296
0.53387
0.543917
0.553076
0.565439
0.227214
0.227151
0.227061
0.226942
0.226791
0.226606
0.226386
0.226132
0.225843
0.225522
0.225171
0.224792
0.224387
0.223959
0.223508
0.223037
0.222548
0.222041
0.221517
0.22098
0.220429
0.219868
0.2193
0.218726
0.218151
0.217581
0.217019
0.216472
0.215947
0.21545
0.214989
0.21457
0.214202
0.213891
0.213643
0.213464
0.21336
0.213333
0.213388
0.213526
0.213751
0.214062
0.214461
0.21495
0.215528
0.216197
0.216959
0.217815
0.218769
0.219823
0.220981
0.222247
0.223627
0.225124
0.226744
0.228493
0.230375
0.232394
0.234556
0.236865
0.239324
0.241937
0.244708
0.247641
0.250739
0.254008
0.257453
0.26108
0.264899
0.268919
0.273151
0.277611
0.282314
0.287277
0.292521
0.298067
0.303935
0.310147
0.316725
0.323687
0.331048
0.33882
0.347009
0.355615
0.364629
0.374034
0.383805
0.393907
0.404296
0.41492
0.425716
0.436616
0.447546
0.458424
0.469171
0.479693
0.48993
0.499797
0.508878
0.521374
0.220482
0.22051
0.220517
0.220501
0.220462
0.220396
0.220303
0.220182
0.220035
0.219861
0.219663
0.219441
0.219199
0.218936
0.218655
0.218357
0.218043
0.217714
0.217371
0.217016
0.216649
0.216271
0.215884
0.215489
0.215089
0.214686
0.214283
0.213883
0.21349
0.213109
0.212745
0.212402
0.212086
0.211804
0.21156
0.211362
0.211213
0.211121
0.211091
0.211126
0.211233
0.211415
0.211677
0.212023
0.212455
0.212978
0.213595
0.21431
0.215125
0.216045
0.217073
0.218211
0.219463
0.220832
0.22232
0.22393
0.225664
0.227523
0.229508
0.231621
0.23386
0.236227
0.238722
0.241344
0.244094
0.246974
0.249985
0.253131
0.256416
0.259848
0.263434
0.267186
0.271117
0.275242
0.279578
0.284146
0.288964
0.294057
0.299445
0.305151
0.311196
0.317596
0.324367
0.331518
0.339054
0.346972
0.355261
0.363903
0.37287
0.382127
0.391627
0.401319
0.41114
0.421023
0.430897
0.44068
0.450308
0.459713
0.468447
0.480679
0.215369
0.215442
0.215499
0.215539
0.215561
0.215563
0.215543
0.215502
0.21544
0.215358
0.215255
0.215135
0.214997
0.214843
0.214675
0.214493
0.2143
0.214095
0.213879
0.213654
0.213421
0.213179
0.212931
0.212677
0.212418
0.212156
0.211893
0.211631
0.211373
0.211121
0.210878
0.210649
0.210438
0.210249
0.210087
0.209956
0.209862
0.209811
0.209808
0.209857
0.209965
0.210137
0.210377
0.210691
0.211084
0.21156
0.212123
0.212778
0.213528
0.214377
0.215329
0.216386
0.217551
0.218825
0.22021
0.221707
0.223316
0.225036
0.226867
0.228806
0.230852
0.233003
0.235256
0.237609
0.240059
0.242604
0.245246
0.247983
0.250817
0.253753
0.256797
0.259955
0.263238
0.266658
0.27023
0.273971
0.2779
0.282037
0.286404
0.291023
0.295917
0.301105
0.306609
0.312443
0.31862
0.325149
0.332029
0.339257
0.346818
0.354692
0.362849
0.371253
0.379856
0.388604
0.39744
0.406294
0.415106
0.423822
0.431989
0.443616
0.211442
0.211535
0.211616
0.211684
0.211737
0.211776
0.211798
0.211804
0.211794
0.211767
0.211725
0.211669
0.211599
0.211517
0.211424
0.211322
0.21121
0.21109
0.210964
0.210831
0.210693
0.21055
0.210404
0.210255
0.210104
0.209953
0.209802
0.209654
0.209509
0.209371
0.209241
0.209123
0.20902
0.208934
0.208871
0.208833
0.208826
0.208854
0.208922
0.209034
0.209196
0.209414
0.209692
0.210034
0.210447
0.210935
0.211503
0.212154
0.212893
0.213723
0.214647
0.215668
0.216788
0.218008
0.219328
0.220748
0.222268
0.223885
0.225598
0.227402
0.229295
0.231272
0.233329
0.235462
0.237667
0.23994
0.242278
0.24468
0.247146
0.249677
0.252275
0.254947
0.257699
0.260541
0.263484
0.266544
0.269736
0.273079
0.276592
0.280296
0.284214
0.288366
0.292775
0.297459
0.302435
0.307719
0.313318
0.319238
0.325477
0.332027
0.338871
0.345986
0.35334
0.360895
0.368606
0.376415
0.384272
0.392136
0.399571
0.410318
0.208391
0.20849
0.208579
0.208659
0.208727
0.208785
0.20883
0.208863
0.208882
0.20889
0.208886
0.20887
0.208845
0.20881
0.208768
0.208718
0.208662
0.208602
0.208537
0.208469
0.208399
0.208328
0.208256
0.208185
0.208115
0.208047
0.207983
0.207923
0.20787
0.207825
0.20779
0.207767
0.207759
0.207768
0.207799
0.207853
0.207936
0.20805
0.208201
0.208391
0.208627
0.208913
0.209253
0.209653
0.210116
0.210647
0.211251
0.211931
0.212692
0.213535
0.214465
0.215483
0.216591
0.217788
0.219075
0.220452
0.221915
0.223462
0.22509
0.226795
0.228572
0.230415
0.23232
0.23428
0.23629
0.238345
0.240441
0.242574
0.244743
0.246946
0.249186
0.251464
0.253786
0.256159
0.258593
0.261099
0.26369
0.266383
0.269195
0.272144
0.275252
0.278538
0.282025
0.285731
0.289677
0.29388
0.298353
0.303109
0.308152
0.313485
0.319101
0.32499
0.331133
0.337503
0.344068
0.350787
0.357617
0.364532
0.371125
0.380798
0.205999
0.206095
0.206184
0.206265
0.206339
0.206404
0.20646
0.206507
0.206544
0.206572
0.20659
0.206601
0.206604
0.2066
0.206591
0.206578
0.20656
0.20654
0.206519
0.206497
0.206476
0.206456
0.206438
0.206423
0.206413
0.206408
0.206409
0.206418
0.206436
0.206464
0.206505
0.206559
0.206631
0.206721
0.206833
0.206969
0.207134
0.207329
0.207559
0.207828
0.20814
0.208499
0.208908
0.209373
0.209897
0.210485
0.21114
0.211866
0.212665
0.213541
0.214496
0.215531
0.216647
0.217844
0.21912
0.220476
0.221906
0.22341
0.224981
0.226615
0.228306
0.230049
0.231836
0.233661
0.235518
0.237401
0.239304
0.241222
0.243153
0.245094
0.247045
0.249008
0.250984
0.25298
0.255003
0.257062
0.259168
0.261335
0.263577
0.265912
0.268357
0.270931
0.273654
0.276546
0.279627
0.282913
0.286423
0.29017
0.294166
0.298417
0.302927
0.307693
0.312706
0.317953
0.323411
0.329051
0.334843
0.34077
0.346469
0.354949
0.204111
0.204199
0.204282
0.20436
0.204433
0.204499
0.204558
0.204611
0.204657
0.204695
0.204728
0.204754
0.204775
0.204791
0.204804
0.204815
0.204824
0.204832
0.204841
0.204851
0.204864
0.204881
0.204902
0.204929
0.204963
0.205004
0.205054
0.205115
0.205187
0.205273
0.205373
0.20549
0.205625
0.205781
0.205961
0.206166
0.206401
0.206667
0.206968
0.207307
0.207689
0.208116
0.208593
0.209122
0.209709
0.210355
0.211065
0.211841
0.212686
0.213602
0.21459
0.215652
0.216788
0.217996
0.219276
0.220625
0.22204
0.223516
0.225049
0.226633
0.228261
0.229928
0.231625
0.233345
0.235081
0.236827
0.238576
0.240323
0.242063
0.243794
0.245514
0.247222
0.248921
0.250614
0.252307
0.254006
0.255722
0.257465
0.259249
0.261087
0.262995
0.26499
0.26709
0.269313
0.271678
0.274202
0.276903
0.279796
0.282895
0.286212
0.289752
0.293522
0.297518
0.301736
0.306165
0.310784
0.315573
0.320524
0.325324
0.332565
0.202616
0.202694
0.202768
0.202839
0.202906
0.202969
0.203028
0.203081
0.20313
0.203173
0.203213
0.203248
0.20328
0.203309
0.203336
0.203363
0.203389
0.203417
0.203446
0.203479
0.203517
0.20356
0.203609
0.203666
0.203732
0.203807
0.203894
0.203994
0.204108
0.204237
0.204383
0.204548
0.204734
0.204942
0.205176
0.205438
0.20573
0.206055
0.206415
0.206815
0.207257
0.207745
0.208281
0.208869
0.209512
0.210214
0.210975
0.2118
0.21269
0.213647
0.214671
0.215763
0.216922
0.218148
0.219437
0.220787
0.222195
0.223655
0.225161
0.226708
0.228289
0.229896
0.231522
0.233159
0.234799
0.236435
0.23806
0.239668
0.241255
0.242816
0.244348
0.245852
0.247327
0.248777
0.250204
0.251615
0.253018
0.254421
0.255835
0.257273
0.258749
0.260277
0.261872
0.263552
0.265332
0.267231
0.269263
0.271446
0.273793
0.276317
0.279028
0.281935
0.285041
0.288346
0.291846
0.295531
0.299388
0.303414
0.30735
0.313366
0.201434
0.2015
0.201564
0.201627
0.201686
0.201743
0.201797
0.201848
0.201896
0.201941
0.201983
0.202023
0.20206
0.202097
0.202133
0.20217
0.202208
0.202248
0.202292
0.20234
0.202395
0.202456
0.202525
0.202603
0.202692
0.202793
0.202907
0.203035
0.203179
0.203341
0.203522
0.203723
0.203948
0.204197
0.204474
0.20478
0.205118
0.20549
0.205899
0.206348
0.206841
0.207378
0.207965
0.208603
0.209294
0.210043
0.21085
0.211718
0.212648
0.213641
0.214698
0.215818
0.217
0.218242
0.219542
0.220896
0.222299
0.223747
0.225234
0.226752
0.228294
0.229853
0.231421
0.232989
0.23455
0.236096
0.237619
0.239114
0.240574
0.241996
0.243377
0.244714
0.246008
0.24726
0.248473
0.249652
0.250802
0.251932
0.253051
0.254169
0.255297
0.256449
0.257639
0.25888
0.260188
0.261577
0.263064
0.264663
0.266388
0.268252
0.270267
0.272442
0.274784
0.277298
0.279984
0.282839
0.285855
0.289033
0.292168
0.297021
0.200507
0.200561
0.200614
0.200666
0.200717
0.200766
0.200814
0.200861
0.200906
0.200949
0.200991
0.201032
0.201072
0.201112
0.201153
0.201196
0.201241
0.20129
0.201343
0.201402
0.201467
0.201541
0.201624
0.201717
0.201822
0.20194
0.202073
0.202222
0.202388
0.202573
0.202779
0.203008
0.203261
0.203541
0.20385
0.204189
0.204562
0.204971
0.205418
0.205906
0.206437
0.207015
0.207641
0.208318
0.209049
0.209836
0.21068
0.211583
0.212545
0.213568
0.214651
0.215793
0.216993
0.218248
0.219556
0.220911
0.22231
0.223747
0.225214
0.226706
0.228215
0.229732
0.231249
0.232758
0.234251
0.23572
0.237157
0.238556
0.239911
0.241217
0.242472
0.243672
0.244818
0.245909
0.246948
0.247938
0.248886
0.249796
0.250677
0.251538
0.252388
0.253239
0.254104
0.254993
0.255921
0.256901
0.257946
0.25907
0.260287
0.261609
0.263047
0.264612
0.266312
0.268154
0.270141
0.272274
0.274551
0.276976
0.279388
0.283171
0.199789
0.199831
0.199872
0.199914
0.199956
0.199998
0.200039
0.20008
0.200121
0.200161
0.200201
0.200241
0.200281
0.200323
0.200366
0.200412
0.200461
0.200515
0.200574
0.200639
0.200712
0.200793
0.200885
0.200988
0.201103
0.201233
0.201378
0.20154
0.201721
0.201923
0.202146
0.202394
0.202667
0.202968
0.2033
0.203663
0.204062
0.204497
0.204971
0.205487
0.206047
0.206654
0.20731
0.208017
0.208776
0.209591
0.210462
0.21139
0.212376
0.21342
0.214521
0.215677
0.216888
0.21815
0.219459
0.220811
0.222201
0.223623
0.22507
0.226535
0.22801
0.229487
0.230957
0.232412
0.233843
0.235244
0.236605
0.237921
0.239185
0.240393
0.241541
0.242627