/*--------------------------------*- C++ -*----------------------------------*\
| =========                 |                                                 |
| \\      /  F ield         | OpenFOAM: The Open Source CFD Toolbox           |
|  \\    /   O peration     | Version:  4.1                                   |
|   \\  /    A nd           | Web:      www.OpenFOAM.org                      |
|    \\/     M anipulation  |                                                 |
\*---------------------------------------------------------------------------*/
FoamFile
{
    version     2.0;
    format      ascii;
    class       volScalarField;
    location    "1000";
    object      nut;
}
// * * * * * * * * * * * * * * * * * * * * * * * * * * * * * * * * * * * * * //

dimensions      [0 2 -1 0 0 0 0];

internalField   nonuniform List<scalar> 
6820
(
3.5437e-05
5.0672e-05
6.21565e-05
6.89859e-05
7.29393e-05
7.51484e-05
7.62608e-05
7.66561e-05
7.65742e-05
7.61754e-05
7.5569e-05
7.48309e-05
7.40141e-05
7.31562e-05
7.22833e-05
7.14134e-05
7.0559e-05
6.97284e-05
6.89269e-05
6.81576e-05
6.74223e-05
6.67216e-05
6.60554e-05
6.5423e-05
6.48233e-05
6.42551e-05
6.3717e-05
6.32077e-05
6.27239e-05
6.22719e-05
6.18133e-05
6.15236e-05
6.06198e-05
0.00135033
0.000930454
0.000725657
0.000569941
0.000453328
0.000372218
0.000316223
0.000276488
0.000247303
0.000225195
0.000208006
0.000194348
0.000183294
0.000174213
0.000166657
0.000160305
0.000154915
0.000150308
0.000146344
0.000142913
0.000139929
0.000137323
0.000135038
0.000133028
0.000131254
0.000129684
0.00012829
0.000127049
0.00012594
0.000124949
0.000124041
0.00012327
0.000122385
0.0034439
0.00180034
0.00133708
0.00108081
0.000912409
0.000791562
0.000700947
0.00063099
0.000575611
0.000530789
0.000493806
0.000462783
0.000436392
0.00041367
0.000393906
0.000376563
0.000361229
0.000347582
0.000335368
0.000324381
0.000314454
0.00030545
0.000297254
0.000289771
0.000282918
0.000276627
0.000270837
0.000265497
0.000260559
0.000255985
0.000251733
0.000247785
0.000244058
0.00637392
0.00310291
0.00217847
0.00173334
0.00146616
0.00128428
0.00115082
0.00104807
0.000966257
0.000899457
0.000843822
0.000796729
0.000756324
0.000721254
0.000690513
0.000663333
0.000639119
0.000617405
0.000597815
0.00058005
0.000563862
0.00054905
0.000535444
0.000522903
0.000511306
0.00050055
0.000490549
0.000481224
0.000472509
0.000464346
0.000456679
0.000449467
0.000442643
0.00899737
0.00527271
0.00366202
0.00284163
0.00235737
0.00203856
0.00181195
0.00164188
0.00150906
0.00140219
0.00131419
0.00124038
0.00117752
0.00112331
0.00107604
0.00103445
0.00099755
0.000964584
0.000934945
0.000908145
0.00088379
0.000861556
0.000841173
0.000822417
0.000805097
0.000789052
0.000774144
0.000760254
0.000747277
0.000735122
0.000723706
0.000712961
0.000702802
0.0103765
0.00752965
0.00561349
0.00443387
0.0036773
0.00316202
0.00279169
0.00251363
0.0022974
0.00212446
0.001983
0.00186512
0.00176535
0.00167982
0.00160567
0.00154077
0.00148348
0.00143254
0.00138694
0.00134589
0.00130874
0.00127495
0.00124409
0.0012158
0.00118976
0.00116572
0.00114345
0.00112277
0.0011035
0.0010855
0.00106864
0.00105282
0.00103792
0.0109773
0.00922098
0.00752197
0.0062241
0.00528073
0.00458893
0.00406896
0.0036676
0.00335004
0.00309329
0.00288184
0.00270491
0.00255483
0.00242601
0.0023143
0.00221656
0.00213035
0.00205378
0.00198533
0.0019238
0.0018682
0.00181774
0.00177173
0.00172962
0.00169095
0.00165531
0.00162236
0.00159182
0.00156343
0.00153697
0.00151225
0.00148911
0.00146738
0.0112223
0.01026
0.00902119
0.00786209
0.00689742
0.00612296
0.00550365
0.00500431
0.00459663
0.00425932
0.00397663
0.00373691
0.00353147
0.0033537
0.00319855
0.00306211
0.00294128
0.0028336
0.00273711
0.00265019
0.00257152
0.00250003
0.00243479
0.00237505
0.00232016
0.00226956
0.00222279
0.00217944
0.00213916
0.00210163
0.0020666
0.00203383
0.0020031
0.0113196
0.0108286
0.0100355
0.0091472
0.00830321
0.00755759
0.00691829
0.00637539
0.00591434
0.00552103
0.00518335
0.0048914
0.0046372
0.00441435
0.00421773
0.00404321
0.00388746
0.00374774
0.00362181
0.00350781
0.0034042
0.00330969
0.00322316
0.0031437
0.00307051
0.0030029
0.00294029
0.00288216
0.00282808
0.00277765
0.00273052
0.00268642
0.00264505
0.0113579
0.0111187
0.0106546
0.0100468
0.00939296
0.00875749
0.00817148
0.00764509
0.00717794
0.0067652
0.00640062
0.00607796
0.00579148
0.00553618
0.00530775
0.00510255
0.00491749
0.00474997
0.00459776
0.00445901
0.00433211
0.00421569
0.00410859
0.00400979
0.00391842
0.00383371
0.00375502
0.00368174
0.00361338
0.00354949
0.00348967
0.00343358
0.00338089
0.0113728
0.01126
0.0110057
0.0106242
0.0101642
0.00967403
0.00918759
0.0087244
0.00829365
0.0078983
0.00753798
0.00721063
0.0069135
0.00664366
0.00639828
0.00617472
0.00597059
0.00578378
0.00561241
0.00545483
0.00530959
0.00517542
0.00505121
0.00493598
0.00482886
0.00472908
0.00463598
0.00454896
0.00446748
0.00439108
0.00431933
0.00425187
0.00418835
0.0113787
0.0113266
0.011194
0.0109703
0.0106711
0.0103231
0.00995189
0.00957698
0.00921101
0.0088614
0.00853191
0.00822401
0.00793771
0.00767228
0.00742652
0.00719905
0.00698846
0.00679335
0.00661239
0.00644434
0.00628807
0.00614255
0.00600685
0.00588011
0.00576157
0.00565055
0.00554642
0.00544863
0.00535667
0.0052701
0.00518849
0.0051115
0.00503878
0.0113809
0.0113572
0.0112906
0.0111664
0.010984
0.0107537
0.0104904
0.0102084
0.00991919
0.00963123
0.00935017
0.00907955
0.00882139
0.00857664
0.00834558
0.00812803
0.00792354
0.0077315
0.00755122
0.00738198
0.00722304
0.0070737
0.00693329
0.00680118
0.00667677
0.00655951
0.00644889
0.00634445
0.00624574
0.00615239
0.00606401
0.00598029
0.00590092
0.0113818
0.0113708
0.0113383
0.0112723
0.0111671
0.0110237
0.0108485
0.0106497
0.0104355
0.0102131
0.00998805
0.00976448
0.00954535
0.00933266
0.00912766
0.00893107
0.00874325
0.00856428
0.00839405
0.00823234
0.00807883
0.00793319
0.00779502
0.00766395
0.00753959
0.00742155
0.00730949
0.00720305
0.0071019
0.00700574
0.00691428
0.00682723
0.00674436
0.0113822
0.0113768
0.0113611
0.0113273
0.0112692
0.0111846
0.0110744
0.0109422
0.0107927
0.0106308
0.0104607
0.0102863
0.0101105
0.00993552
0.00976319
0.0095947
0.00943092
0.0092724
0.00911949
0.00897238
0.00883112
0.00869566
0.00856592
0.00844174
0.00832295
0.00820936
0.00810075
0.00799692
0.00789765
0.00780275
0.00771199
0.0076252
0.00754218
0.0113823
0.0113794
0.0113717
0.0113547
0.0113238
0.011276
0.0112101
0.0111268
0.0110279
0.0109162
0.0107945
0.0106655
0.0105317
0.0103951
0.0102574
0.0101201
0.00998406
0.00985026
0.00971926
0.00959151
0.00946731
0.00934688
0.00923032
0.00911769
0.009009
0.00890422
0.00880327
0.00870608
0.00861256
0.00852259
0.00843607
0.00835287
0.00827288
0.0113824
0.0113805
0.0113765
0.0113679
0.0113519
0.0113259
0.0112881
0.0112379
0.0111757
0.0111025
0.0110197
0.010929
0.0108321
0.0107305
0.0106258
0.010519
0.0104112
0.0103034
0.0101961
0.01009
0.0099855
0.00988293
0.00978256
0.00968458
0.00958914
0.00949632
0.00940617
0.00931872
0.00923397
0.0091519
0.00907249
0.00899567
0.00892141
0.0113824
0.0113809
0.0113786
0.0113741
0.0113658
0.0113519
0.011331
0.0113021
0.0112646
0.0112187
0.011165
0.0111041
0.0110372
0.0109652
0.0108891
0.0108098
0.0107282
0.0106451
0.010561
0.0104765
0.0103922
0.0103084
0.0102255
0.0101436
0.0100631
0.00998398
0.00990652
0.00983076
0.00975678
0.00968463
0.00961434
0.00954592
0.00947938
0.0113824
0.0113811
0.0113795
0.0113769
0.0113724
0.0113651
0.0113537
0.0113375
0.0113158
0.0112882
0.0112548
0.0112157
0.0111715
0.0111227
0.0110698
0.0110135
0.0109543
0.0108929
0.0108297
0.0107653
0.0107
0.0106342
0.0105683
0.0105025
0.010437
0.0103722
0.010308
0.0102447
0.0101824
0.0101212
0.0100611
0.0100022
0.0099446
0.0113824
0.0113812
0.0113798
0.0113781
0.0113755
0.0113714
0.0113653
0.0113563
0.011344
0.011328
0.011308
0.0112839
0.0112559
0.0112241
0.0111889
0.0111505
0.0111093
0.0110657
0.0110202
0.0109729
0.0109243
0.0108746
0.0108242
0.0107732
0.010722
0.0106706
0.0106193
0.0105682
0.0105175
0.0104672
0.0104175
0.0103684
0.01032
0.0113824
0.0113812
0.01138
0.0113786
0.0113768
0.0113744
0.0113709
0.0113659
0.011359
0.0113499
0.0113382
0.0113238
0.0113067
0.0112868
0.0112641
0.011239
0.0112114
0.0111816
0.0111499
0.0111165
0.0110816
0.0110454
0.0110081
0.0109699
0.0109311
0.0108917
0.0108519
0.010812
0.0107719
0.0107318
0.0106918
0.010652
0.0106125
0.0113824
0.0113812
0.01138
0.0113788
0.0113774
0.0113757
0.0113735
0.0113706
0.0113666
0.0113614
0.0113547
0.0113463
0.011336
0.0113238
0.0113097
0.0112937
0.0112758
0.0112561
0.0112347
0.0112117
0.0111873
0.0111616
0.0111348
0.0111069
0.0110782
0.0110487
0.0110186
0.010988
0.010957
0.0109257
0.0108942
0.0108625
0.0108308
0.0113824
0.0113812
0.01138
0.0113789
0.0113776
0.0113763
0.0113747
0.0113728
0.0113703
0.0113672
0.0113632
0.0113582
0.0113521
0.0113447
0.011336
0.0113259
0.0113143
0.0113014
0.0112871
0.0112715
0.0112546
0.0112365
0.0112174
0.0111972
0.0111761
0.0111541
0.0111315
0.0111081
0.0110842
0.0110598
0.011035
0.0110099
0.0109845
0.0113824
0.0113812
0.01138
0.0113789
0.0113777
0.0113765
0.0113752
0.0113737
0.011372
0.0113699
0.0113673
0.0113642
0.0113603
0.0113555
0.0113499
0.0113432
0.0113355
0.0113267
0.0113167
0.0113057
0.0112936
0.0112805
0.0112663
0.0112512
0.0112351
0.0112182
0.0112006
0.0111822
0.0111632
0.0111436
0.0111235
0.0111029
0.011082
0.0113824
0.0113812
0.01138
0.0113789
0.0113777
0.0113766
0.0113753
0.011374
0.0113726
0.0113709
0.0113689
0.0113665
0.0113635
0.0113599
0.0113556
0.0113504
0.0113444
0.0113375
0.0113297
0.0113208
0.011311
0.0113002
0.0112885
0.0112759
0.0112624
0.011248
0.0112329
0.0112171
0.0112006
0.0111835
0.0111658
0.0111476
0.011129
0.0113824
0.0113812
0.01138
0.0113789
0.0113777
0.0113765
0.0113753
0.011374
0.0113725
0.0113707
0.0113686
0.0113661
0.011363
0.0113593
0.0113548
0.0113496
0.0113434
0.0113364
0.0113284
0.0113194
0.0113095
0.0112986
0.0112868
0.0112741
0.0112606
0.0112462
0.0112311
0.0112152
0.0111987
0.0111816
0.011164
0.0111458
0.0111272
0.0113824
0.0113812
0.01138
0.0113789
0.0113777
0.0113764
0.011375
0.0113734
0.0113715
0.0113691
0.0113662
0.0113626
0.0113583
0.011353
0.0113468
0.0113395
0.0113312
0.0113218
0.0113113
0.0112998
0.0112872
0.0112735
0.0112589
0.0112434
0.0112271
0.0112099
0.011192
0.0111734
0.0111542
0.0111344
0.0111142
0.0110935
0.0110725
0.0113824
0.0113812
0.01138
0.0113788
0.0113775
0.011376
0.0113742
0.0113718
0.0113688
0.0113648
0.0113599
0.0113537
0.0113462
0.0113373
0.011327
0.0113153
0.0113021
0.0112875
0.0112715
0.0112543
0.0112359
0.0112164
0.0111959
0.0111744
0.0111521
0.011129
0.0111053
0.011081
0.0110562
0.011031
0.0110054
0.0109795
0.0109535
0.0113824
0.0113812
0.01138
0.0113787
0.011377
0.0113748
0.0113718
0.0113676
0.0113618
0.0113543
0.0113449
0.0113333
0.0113196
0.0113037
0.0112857
0.0112656
0.0112436
0.0112198
0.0111944
0.0111675
0.0111393
0.01111
0.0110797
0.0110486
0.0110167
0.0109843
0.0109514
0.0109182
0.0108847
0.010851
0.0108173
0.0107836
0.0107498
0.0113824
0.0113813
0.0113799
0.0113781
0.0113755
0.0113714
0.0113652
0.0113564
0.0113446
0.0113295
0.0113109
0.0112888
0.0112634
0.0112347
0.0112031
0.0111689
0.0111323
0.0110938
0.0110535
0.0110117
0.0109688
0.010925
0.0108805
0.0108355
0.0107902
0.0107447
0.0106992
0.0106538
0.0106086
0.0105637
0.0105192
0.0104751
0.0104314
0.0113825
0.0113812
0.0113794
0.0113761
0.0113704
0.0113611
0.0113472
0.0113279
0.0113028
0.011272
0.0112356
0.011194
0.0111477
0.0110974
0.0110436
0.0109871
0.0109282
0.0108677
0.0108058
0.0107431
0.0106799
0.0106166
0.0105533
0.0104902
0.0104277
0.0103658
0.0103047
0.0102444
0.0101851
0.0101268
0.0100696
0.0100135
0.00995843
0.0113825
0.0113808
0.011377
0.0113691
0.0113545
0.0113315
0.0112988
0.011256
0.0112036
0.0111424
0.0110735
0.0109982
0.0109178
0.0108335
0.0107465
0.0106576
0.0105676
0.0104773
0.0103873
0.0102978
0.0102094
0.0101223
0.0100368
0.00995291
0.00987085
0.00979069
0.00971249
0.00963627
0.00956206
0.00948984
0.00941961
0.00935134
0.00928498
0.0113825
0.0113787
0.0113679
0.0113447
0.0113054
0.011248
0.0111728
0.0110816
0.0109771
0.0108621
0.0107396
0.0106119
0.0104814
0.0103497
0.0102183
0.0100882
0.00996015
0.00983483
0.00971263
0.00959381
0.00947855
0.00936694
0.00925901
0.00915476
0.00905413
0.00895705
0.00886343
0.00877317
0.00868616
0.00860229
0.00852144
0.00844349
0.00836833
0.011382
0.0113691
0.0113325
0.0112633
0.0111587
0.0110222
0.0108601
0.0106799
0.0104883
0.010291
0.0100925
0.00989597
0.00970363
0.00951703
0.00933708
0.0091643
0.0089989
0.00884087
0.00869011
0.00854639
0.00840945
0.00827899
0.0081547
0.00803627
0.00792338
0.00781572
0.00771301
0.00761497
0.00752132
0.00743182
0.00734624
0.00726436
0.00718595
0.0113786
0.0113249
0.0111997
0.0110009
0.0107442
0.0104511
0.0101407
0.00982717
0.00952002
0.00922488
0.00894479
0.00868112
0.00843415
0.00820345
0.00798818
0.00778733
0.00759986
0.00742474
0.00726098
0.00710764
0.00696388
0.00682892
0.00670203
0.00658258
0.00646998
0.0063637
0.00626325
0.00616819
0.00607814
0.00599272
0.00591161
0.0058345
0.00576114
0.0113536
0.011126
0.0107259
0.0102229
0.00968832
0.00916705
0.00868064
0.00823688
0.00783646
0.00747677
0.00715407
0.00686443
0.00660376
0.00636828
0.00615475
0.0059604
0.00578286
0.00562011
0.00547044
0.00533237
0.00520463
0.00508614
0.00497595
0.00487325
0.0047773
0.00468747
0.00460323
0.00452407
0.00444955
0.0043793
0.00431296
0.00425023
0.00419083
0.0111683
0.0102731
0.00924316
0.00829367
0.00748992
0.00682636
0.00627847
0.00582284
0.00544041
0.00511624
0.00483928
0.00459995
0.00439098
0.00420686
0.00404337
0.00389717
0.00376565
0.00364667
0.00353852
0.00343977
0.00334924
0.00326594
0.00318905
0.00311784
0.00305171
0.00299013
0.00293266
0.0028789
0.00282849
0.00278115
0.0027366
0.00269459
0.00265493
0.00982658
0.0072389
0.00577405
0.00486951
0.00424873
0.00378755
0.00342701
0.00314024
0.00290887
0.00271813
0.00255776
0.00242093
0.00230279
0.00219976
0.00210909
0.00202868
0.00195685
0.0018923
0.00183394
0.00178091
0.00173249
0.0016881
0.00164724
0.0016095
0.00157452
0.001542
0.00151169
0.00148336
0.00145683
0.00143192
0.00140848
0.00138639
0.00136553
0.00414167
0.00254161
0.00204418
0.00174836
0.00154034
0.00137827
0.00124767
0.00114134
0.00105377
0.000980907
0.000919641
0.000867559
0.000822819
0.000784018
0.000750076
0.000720159
0.000693608
0.0006699
0.000648615
0.000629409
0.000612003
0.000596165
0.000581699
0.000568442
0.000556256
0.000545022
0.000534638
0.000525017
0.000516082
0.000507766
0.000500012
0.000492768
0.000485982
0.000119434
0.000124352
0.000129424
0.000134072
0.000138235
0.000142037
0.000145562
0.000148849
0.000151924
0.000154806
0.000157512
0.000160054
0.000162444
0.000164691
0.000166805
0.000168794
0.000170666
0.000172428
0.000174087
0.000175649
0.000177119
0.000178503
0.000179806
0.000181034
0.00018219
0.000183279
0.000184304
0.00018527
0.00018618
0.000187038
0.000187846
0.000188607
0.000189325
6.59367e-05
7.81661e-05
9.79906e-05
0.000124216
0.000156131
0.00019247
0.000231993
0.000273369
0.000315249
0.000356419
0.000395988
0.000433495
0.000468888
0.000502418
0.0005345
0.000565572
0.000596009
0.000626073
0.000655912
0.000685582
0.000715088
0.000744417
0.000773565
0.000802548
0.0008314
0.000860168
0.000888903
0.000917654
0.00094646
0.000975355
0.00100436
0.0010335
0.00106278
0.00109221
0.0011218
0.00115156
0.0011815
0.00121163
0.00124196
0.00127251
0.00130332
0.0013344
0.00136582
0.00139761
0.00142986
0.00146263
0.00149603
0.00153017
0.00156517
0.00160118
0.00163837
0.00167692
0.00171702
0.00175888
0.00180275
0.00184884
0.00189741
0.0019487
0.00200294
0.00206036
0.00212116
0.00218551
0.00225354
0.00232534
0.00240095
0.00248036
0.00256349
0.00265022
0.00274037
0.00283371
0.00292996
0.00302882
0.00312995
0.00323298
0.00333753
0.0034432
0.0035496
0.0036563
0.00376292
0.00386904
0.00397429
0.00407828
0.00418065
0.00428108
0.00437924
0.00447484
0.00456765
0.00465743
0.00474398
0.00482715
0.00490679
0.00498278
0.00505503
0.00512344
0.00518802
0.00524859
0.00530548
0.00535818
0.00540635
0.00547054
0.000121879
0.000121685
0.000123488
0.000128415
0.000136235
0.000146982
0.000160759
0.00017767
0.00019776
0.000221014
0.000247325
0.000276467
0.000308089
0.000341718
0.000376796
0.000412729
0.000448946
0.000484958
0.000520406
0.000555075
0.00058889
0.000621881
0.000654144
0.000685806
0.000716993
0.000747817
0.00077837
0.000808729
0.000838957
0.000869109
0.000899234
0.000929378
0.000959583
0.000989885
0.00102032
0.00105092
0.00108172
0.00111274
0.00114402
0.00117559
0.0012075
0.00123979
0.00127253
0.00130577
0.00133959
0.0013741
0.00140939
0.00144559
0.00148284
0.0015213
0.00156113
0.00160254
0.00164573
0.00169092
0.00173834
0.00178822
0.00184081
0.00189631
0.00195496
0.00201693
0.0020824
0.00215147
0.00222424
0.00230073
0.00238091
0.00246471
0.00255199
0.00264258
0.00273624
0.00283272
0.00293173
0.00303293
0.00313599
0.00324057
0.00334631
0.00345285
0.00355981
0.00366685
0.0037736
0.00387972
0.00398486
0.00408869
0.0041909
0.00429117
0.00438924
0.00448483
0.00457771
0.00466768
0.00475454
0.00483814
0.00491833
0.00499499
0.00506803
0.00513732
0.00520288
0.00526451
0.00532253
0.00537644
0.00542574
0.00549174
0.000240042
0.000235416
0.000230588
0.000226142
0.000222692
0.000220735
0.000220476
0.000222047
0.000225694
0.000231702
0.000240351
0.00025188
0.000266445
0.000284104
0.000304792
0.000328333
0.000354446
0.00038277
0.000412897
0.0004444
0.000476861
0.000509898
0.00054319
0.000576483
0.000609603
0.000642449
0.000674979
0.000707203
0.000739162
0.000770912
0.000802521
0.000834055
0.000865577
0.000897148
0.000928824
0.000960658
0.000992703
0.00102501
0.00105763
0.00109063
0.00112406
0.001158
0.00119251
0.00122769
0.00126363
0.00130043
0.00133824
0.00137717
0.0014174
0.00145909
0.00150243
0.00154762
0.00159486
0.00164438
0.0016964
0.00175113
0.00180879
0.00186956
0.00193361
0.00200108
0.00207207
0.00214662
0.00222473
0.00230636
0.0023914
0.00247971
0.00257109
0.0026653
0.00276209
0.00286116
0.00296221
0.00306492
0.00316898
0.00327406
0.00337985
0.00348604
0.00359233
0.00369841
0.003804
0.0039088
0.00401254
0.00411493
0.00421571
0.00431462
0.00441142
0.00450588
0.00459778
0.00468692
0.00477314
0.00485627
0.00493618
0.00501272
0.00508581
0.00515532
0.00522124
0.00528336
0.00534198
0.00539664
0.00544663
0.00551388
0.000435156
0.000426903
0.000418791
0.000410913
0.000403398
0.000396339
0.000389807
0.000383899
0.000378696
0.00037425
0.00037068
0.000368189
0.000367065
0.000367659
0.000370356
0.000375525
0.000383468
0.000394384
0.000408337
0.000425263
0.000444979
0.000467217
0.000491653
0.000517944
0.000545749
0.000574752
0.000604678
0.000635294
0.000666422
0.000697927
0.000729723
0.000761759
0.000794019
0.000826509
0.000859256
0.000892298
0.000925685
0.000959474
0.000993727
0.00102852
0.00106392
0.00110001
0.0011369
0.00117468
0.00121347
0.0012534
0.00129461
0.00133725
0.00138149
0.00142752
0.0014755
0.00152566
0.00157817
0.00163325
0.00169107
0.00175182
0.00181565
0.00188269
0.00195304
0.00202675
0.00210382
0.00218423
0.00226788
0.00235464
0.00244433
0.00253674
0.0026316
0.00272866
0.00282762
0.00292819
0.00303005
0.00313293
0.00323653
0.0033406
0.00344486
0.00354909
0.00365304
0.00375649
0.00385923
0.00396105
0.00406173
0.00416108
0.00425887
0.00435491
0.00444899
0.00454093
0.00463052
0.0047176
0.004802
0.00488356
0.00496215
0.00503763
0.00510989
0.00517879
0.0052443
0.00530622
0.00536481
0.00541962
0.00546978
0.00553758
0.000691652
0.000679407
0.000667533
0.000656176
0.000645423
0.000635264
0.000625649
0.000616516
0.000607857
0.000599624
0.000591765
0.000584254
0.000577107
0.0005704
0.000564271
0.000558921
0.000554615
0.000551664
0.000550408
0.000551181
0.000554285
0.000559956
0.000568347
0.000579513
0.000593417
0.000609943
0.000628918
0.000650129
0.000673349
0.000698352
0.000724931
0.000752899
0.000782104
0.000812422
0.000843763
0.000876069
0.000909308
0.000943473
0.000978582
0.00101467
0.00105179
0.00109002
0.00112943
0.00117014
0.00121225
0.00125589
0.00130121
0.00134834
0.00139745
0.00144871
0.00150227
0.00155831
0.00161699
0.00167844
0.00174281
0.00181019
0.00188068
0.0019543
0.00203107
0.00211094
0.00219383
0.00227962
0.00236812
0.00245913
0.00255241
0.00264769
0.00274467
0.00284307
0.00294258
0.00304291
0.0031438
0.00324498
0.00334621
0.0034473
0.00354804
0.00364829
0.00374788
0.00384668
0.00394458
0.00404143
0.00413711
0.00423149
0.00432444
0.00441581
0.00450545
0.0045932
0.00467891
0.00476243
0.0048436
0.00492228
0.00499832
0.00507157
0.00514193
0.00520923
0.00527343
0.00533431
0.00539208
0.00544634
0.00549604
0.00556356
0.00102162
0.00100382
0.000986671
0.000970312
0.000954844
0.000940268
0.000926522
0.000913521
0.000901184
0.000889438
0.000878202
0.000867406
0.000857007
0.000846985
0.000837354
0.000828157
0.000819472
0.000811408
0.00080411
0.000797753
0.00079254
0.000788695
0.000786455
0.000786052
0.000787704
0.000791597
0.000797877
0.000806641
0.000817934
0.000831756
0.000848065
0.00086679
0.000887839
0.000911114
0.000936514
0.000963948
0.000993338
0.00102462
0.00105776
0.00109272
0.00112952
0.00116817
0.00120871
0.0012512
0.00129571
0.00134233
0.00139115
0.00144229
0.00149586
0.00155197
0.00161073
0.00167225
0.00173661
0.00180388
0.00187412
0.00194734
0.00202353
0.00210264
0.00218458
0.00226922
0.00235639
0.00244588
0.00253746
0.00263084
0.00272574
0.00282184
0.00291886
0.00301646
0.00311436
0.00321229
0.00331
0.00340728
0.00350394
0.00359983
0.00369485
0.0037889
0.00388193
0.00397389
0.00406474
0.00415445
0.00424299
0.00433031
0.00441635
0.00450103
0.00458428
0.00466597
0.00474601
0.00482425
0.00490057
0.00497483
0.00504687
0.00511656
0.00518375
0.00524829
0.00531009
0.00536893
0.00542498
0.00547784
0.00552633
0.00559256
0.00144366
0.0014179
0.0013932
0.00136965
0.00134733
0.00132625
0.00130634
0.00128752
0.00126969
0.00125276
0.00123664
0.00122126
0.00120657
0.00119253
0.00117915
0.00116643
0.00115441
0.00114314
0.00113269
0.00112312
0.00111453
0.00110702
0.00110069
0.00109569
0.00109214
0.0010902
0.00109001
0.00109172
0.00109549
0.00110145
0.00110971
0.00112038
0.00113352
0.00114921
0.00116748
0.00118834
0.00121182
0.00123791
0.00126662
0.00129795
0.0013319
0.00136848
0.00140772
0.00144963
0.00149426
0.00154164
0.00159183
0.00164486
0.0017008
0.00175968
0.00182155
0.00188641
0.00195429
0.00202517
0.00209901
0.00217574
0.00225525
0.00233741
0.00242204
0.00250894
0.00259786
0.00268853
0.00278064
0.00287389
0.00296793
0.00306244
0.00315708
0.00325155
0.00334556
0.00343883
0.00353116
0.00362237
0.0037123
0.00380089
0.00388806
0.00397382
0.00405818
0.00414118
0.00422288
0.00430334
0.00438262
0.00446077
0.0045378
0.00461374
0.00468856
0.00476222
0.00483465
0.00490576
0.00497545
0.00504358
0.00511001
0.00517461
0.00523721
0.00529765
0.00535582
0.00541147
0.00546472
0.0055152
0.00556161
0.00562538
0.00196961
0.00193332
0.00189858
0.00186544
0.00183395
0.0018041
0.00177581
0.001749
0.00172356
0.0016994
0.00167643
0.00165456
0.00163375
0.00161396
0.00159519
0.00157745
0.00156077
0.0015452
0.0015308
0.0015176
0.00150568
0.00149509
0.00148589
0.00147815
0.00147193
0.00146731
0.00146435
0.00146316
0.00146383
0.00146644
0.00147111
0.00147796
0.00148708
0.00149858
0.00151258
0.00152917
0.00154843
0.00157046
0.00159534
0.00162312
0.00165387
0.00168764
0.00172449
0.00176445
0.00180756
0.00185387
0.00190338
0.00195613
0.00201211
0.00207133
0.00213376
0.00219937
0.0022681
0.00233985
0.00241452
0.00249197
0.00257201
0.00265444
0.00273901
0.00282546
0.00291347
0.00300273
0.00309288
0.00318356
0.00327442
0.00336509
0.00345523
0.00354452
0.00363266
0.00371941
0.00380454
0.00388792
0.00396943
0.00404903
0.0041267
0.00420251
0.00427652
0.00434887
0.00441968
0.00448912
0.00455733
0.00462445
0.0046906
0.00475589
0.00482037
0.00488407
0.004947
0.00500911
0.00507033
0.00513057
0.00518969
0.00524757
0.00530403
0.00535891
0.00541206
0.00546324
0.0055125
0.00555949
0.00560283
0.00566281
0.00259994
0.00255106
0.00250425
0.00245952
0.00241689
0.00237631
0.00233771
0.00230099
0.00226605
0.0022328
0.00220114
0.00217099
0.00214228
0.002115
0.00208912
0.00206468
0.00204169
0.00202021
0.00200029
0.00198198
0.00196534
0.00195043
0.0019373
0.00192599
0.00191654
0.001909
0.00190341
0.00189981
0.00189824
0.00189876
0.00190142
0.00190629
0.00191345
0.00192297
0.00193493
0.00194944
0.00196659
0.00198646
0.00200916
0.00203477
0.00206339
0.0020951
0.00212996
0.00216805
0.00220941
0.00225409
0.00230211
0.00235348
0.00240821
0.00246625
0.00252757
0.00259209
0.0026597
0.00273028
0.00280366
0.00287966
0.00295805
0.00303856
0.0031209
0.00320476
0.00328979
0.00337562
0.00346187
0.00354814
0.00363406
0.00371924
0.00380332
0.00388597
0.00396689
0.00404583
0.00412259
0.00419702
0.00426903
0.00433861
0.00440577
0.0044706
0.00453325
0.00459388
0.00465269
0.00470993
0.00476581
0.00482057
0.00487442
0.00492756
0.00498013
0.00503226
0.00508401
0.00513543
0.00518649
0.00523713
0.00528728
0.0053368
0.00538555
0.00543335
0.00548004
0.00552538
0.00556935
0.00561162
0.00565082
0.00570552
0.00332333
0.00326085
0.00320091
0.00314348
0.00308854
0.00303604
0.00298589
0.00293801
0.0028923
0.00284865
0.00280698
0.00276721
0.00272927
0.00269313
0.00265879
0.00262626
0.00259557
0.00256676
0.0025399
0.00251504
0.00249225
0.00247157
0.00245306
0.00243676
0.00242273
0.00241099
0.00240156
0.00239449
0.00238978
0.00238747
0.00238758
0.00239014
0.0023952
0.00240278
0.00241295
0.00242576
0.00244128
0.00245957
0.0024807
0.00250476
0.00253182
0.00256194
0.0025952
0.00263165
0.00267135
0.00271433
0.00276062
0.00281021
0.00286309
0.00291922
0.00297853
0.00304093
0.00310629
0.00317445
0.00324524
0.00331841
0.00339372
0.00347088
0.00354955
0.0036294
0.00371004
0.00379109
0.00387214
0.00395278
0.0040326
0.00411123
0.00418827
0.0042634
0.00433632
0.00440676
0.00447453
0.00453948
0.00460154
0.00466069
0.00471697
0.00477049
0.00482142
0.00486996
0.00491636
0.0049609
0.00500389
0.00504563
0.0050864
0.00512649
0.00516615
0.00520558
0.00524494
0.00528434
0.00532384
0.00536346
0.00540315
0.00544283
0.00548238
0.00552164
0.00556044
0.00559856
0.00563592
0.00567222
0.00570614
0.00575397
0.00411876
0.00404302
0.00397013
0.00390006
0.00383276
0.00376818
0.00370624
0.00364685
0.00358994
0.00353541
0.00348317
0.00343314
0.00338529
0.00333958
0.00329599
0.00325455
0.00321528
0.00317823
0.00314345
0.00311101
0.00308097
0.00305339
0.00302832
0.00300582
0.00298592
0.00296868
0.00295411
0.00294223
0.00293308
0.00292666
0.00292298
0.00292206
0.00292392
0.00292857
0.00293604
0.00294636
0.00295955
0.00297565
0.00299471
0.00301677
0.00304188
0.00307008
0.00310141
0.00313591
0.00317361
0.00321452
0.00325864
0.00330597
0.00335647
0.00341008
0.0034667
0.00352624
0.00358854
0.00365344
0.00372071
0.00379011
0.00386137
0.00393417
0.00400818
0.00408303
0.00415832
0.00423366
0.00430863
0.00438281
0.00445579
0.00452717
0.00459658
0.00466369
0.00472818
0.0047898
0.00484836
0.00490372
0.00495578
0.00500454
0.00505005
0.00509241
0.0051318
0.00516845
0.00520263
0.00523465
0.00526484
0.00529356
0.00532116
0.005348
0.00537439
0.00540062
0.00542695
0.00545356
0.00548062
0.00550819
0.00553632
0.00556498
0.00559409
0.00562354
0.00565318
0.00568279
0.00571229
0.00574137
0.0057689
0.00580824
0.00495883
0.00487151
0.00478715
0.00470572
0.00462718
0.00455149
0.00447857
0.00440837
0.00434081
0.00427582
0.00421333
0.00415328
0.00409563
0.00404036
0.00398747
0.00393696
0.00388888
0.00384327
0.00380019
0.0037597
0.00372186
0.00368674
0.0036544
0.0036249
0.00359829
0.0035746
0.00355387
0.00353614
0.00352141
0.00350971
0.00350104
0.00349542
0.00349286
0.00349334
0.0034969
0.00350352
0.00351324
0.00352604
0.00354196
0.00356101
0.0035832
0.00360855
0.00363707
0.00366876
0.00370364
0.00374169
0.00378287
0.00382716
0.0038745
0.00392479
0.00397794
0.0040338
0.00409222
0.00415299
0.0042159
0.00428067
0.00434701
0.00441461
0.0044831
0.00455212
0.00462127
0.00469014
0.00475831
0.00482537
0.0048909
0.00495452
0.00501586
0.00507459
0.0051304
0.00518305
0.00523235
0.00527814
0.00532036
0.00535899
0.00539407
0.0054257
0.00545407
0.0054794
0.00550195
0.00552204
0.00554003
0.0055563
0.00557123
0.00558521
0.00559861
0.00561181
0.0056251
0.00563879
0.00565308
0.00566815
0.00568412
0.00570102
0.00571886
0.00573756
0.00575703
0.0057771
0.00579766
0.00581842
0.00583854
0.00586788
0.00581333
0.00571725
0.00562401
0.0055336
0.00544601
0.00536119
0.00527911
0.00519974
0.00512303
0.00504892
0.00497737
0.00490834
0.00484182
0.00477778
0.00471625
0.00465725
0.00460081
0.00454698
0.00449583
0.00444742
0.00440182
0.00435911
0.00431934
0.00428258
0.00424888
0.0042183
0.00419087
0.00416664
0.00414562
0.00412784
0.00411331
0.00410204
0.00409405
0.00408932
0.00408786
0.00408968
0.00409476
0.00410312
0.00411473
0.0041296
0.00414773
0.00416909
0.00419369
0.00422149
0.00425248
0.0042866
0.00432382
0.00436405
0.00440722
0.00445322
0.00450191
0.00455314
0.00460672
0.00466243
0.00472004
0.00477926
0.0048398
0.00490131
0.00496343
0.0050258
0.00508801
0.00514966
0.00521033
0.00526963
0.00532714
0.0053825
0.00543534
0.00548534
0.00553223
0.00557576
0.00561574
0.00565205
0.0056846
0.00571338
0.00573843
0.00575985
0.00577781
0.0057925
0.00580421
0.00581323
0.0058199
0.00582461
0.00582775
0.00582972
0.00583094
0.00583178
0.00583263
0.00583382
0.00583564
0.00583833
0.0058421
0.00584705
0.00585327
0.00586075
0.00586946
0.00587926
0.00589011
0.00590171
0.00591359
0.00593163
0.0066525
0.00655126
0.00645253
0.00635632
0.00626264
0.00617149
0.00608287
0.00599675
0.00591314
0.005832
0.00575333
0.0056771
0.00560334
0.00553203
0.00546322
0.00539693
0.00533322
0.00527214
0.00521376
0.00515817
0.00510542
0.0050556
0.00500878
0.00496503
0.00492441
0.00488699
0.00485282
0.00482192
0.00479436
0.00477014
0.00474929
0.00473184
0.00471778
0.00470713
0.00469988
0.00469603
0.00469558
0.00469852
0.00470483
0.00471449
0.00472748
0.00474378
0.00476335
0.00478615
0.00481213
0.00484123
0.00487336
0.00490844
0.00494636
0.00498698
0.00503015
0.00507569
0.00512339
0.00517303
0.00522434
0.00527703
0.00533079
0.00538528
0.00544014
0.00549498
0.00554943
0.00560308
0.00565553
0.00570639
0.00575527
0.00580182
0.0058457
0.0058866
0.00592426
0.00595846
0.00598903
0.00601585
0.00603885
0.00605801
0.00607337