/*--------------------------------*- C++ -*----------------------------------*\
| =========                 |                                                 |
| \\      /  F ield         | OpenFOAM: The Open Source CFD Toolbox           |
|  \\    /   O peration     | Version:  4.1                                   |
|   \\  /    A nd           | Web:      www.OpenFOAM.org                      |
|    \\/     M anipulation  |                                                 |
\*---------------------------------------------------------------------------*/
FoamFile
{
    version     2.0;
    format      ascii;
    class       volScalarField;
    location    "1000";
    object      omega;
}
// * * * * * * * * * * * * * * * * * * * * * * * * * * * * * * * * * * * * * //

dimensions      [0 0 -1 0 0 0 0];

internalField   nonuniform List<scalar> 
6820
(
7254.63
8569.06
9629.25
10283
10668.4
10885.8
10995.8
11035
11026.8
10987.3
10927.3
10854.4
10774
10689.7
10604.1
10519.1
10435.8
10355
10277.3
10202.9
10132
10064.5
10000.5
9939.96
9882.64
9828.45
9777.22
9728.83
9682.97
9640.18
9596.81
9568.9
9477.18
600.799
1554.22
2092.91
2435.19
2698.34
2895.12
3033.36
3126.97
3188.97
3229.02
3253.95
3268.66
3276.58
3280.07
3280.76
3279.74
3277.76
3275.34
3272.79
3270.35
3268.14
3266.24
3264.68
3263.49
3262.67
3262.21
3262.12
3262.42
3263.15
3264.37
3266.25
3268.73
3273.94
107.108
368.908
596.394
767.386
894.981
993.333
1070.57
1131.54
1179.69
1217.64
1247.46
1270.8
1289.01
1303.18
1314.18
1322.69
1329.28
1334.36
1338.29
1341.34
1343.74
1345.64
1347.19
1348.48
1349.61
1350.65
1351.63
1352.62
1353.63
1354.72
1355.91
1357.23
1358.9
37.6577
108.378
189.201
265.511
332.231
389.334
437.981
479.461
514.908
545.244
571.225
593.484
612.561
628.919
642.952
655
665.355
674.264
681.942
688.568
694.299
699.266
703.584
707.348
710.642
713.536
716.091
718.362
720.393
722.226
723.901
725.449
726.919
23.8008
47.5371
77.7008
109.824
141.237
170.722
197.836
222.517
244.873
265.071
283.289
299.702
314.481
327.785
339.76
350.541
360.251
369.001
376.893
384.016
390.451
396.273
401.545
406.326
410.669
414.62
418.222
421.511
424.523
427.288
429.837
432.196
434.399
19.8177
29.4751
42.5079
57.2096
72.4553
87.5719
102.186
116.107
129.248
141.581
153.108
163.851
173.844
183.124
191.733
199.715
207.112
213.965
220.315
226.198
231.652
236.708
241.4
245.755
249.8
253.561
257.062
260.323
263.364
266.205
268.863
271.355
273.701
18.4341
22.8152
29.1685
36.6489
44.6826
52.9063
61.0978
69.1227
76.9009
84.3846
91.547
98.3752
104.866
111.021
116.849
122.36
127.565
132.477
137.112
141.481
145.601
149.485
153.146
156.598
159.853
162.924
165.822
168.558
171.143
173.587
175.9
178.091
180.169
17.9115
19.9902
23.3042
27.4134
31.9742
36.7598
41.6266
46.4842
51.2743
55.9588
60.5124
64.9191
69.1691
73.2568
77.1803
80.9398
84.5373
87.9759
91.2599
94.3942
97.3839
100.235
102.952
105.542
108.01
110.363
112.605
114.742
116.78
118.724
120.578
122.348
124.039
17.7059
18.7013
20.4733
22.8216
25.5371
28.4654
31.5038
34.5853
37.6657
40.7151
43.7129
46.6449
49.5015
52.2761
54.9646
57.5647
60.0753
62.4963
64.8286
67.0733
69.2322
71.3075
73.3015
75.2166
77.0554
78.8208
80.5153
82.1418
83.703
85.2017
86.6404
88.0216
89.3482
17.6233
18.0951
19.0401
20.3949
22.0449
23.887
25.8451
27.8668
29.9161
31.9683
34.006
36.0167
37.9918
39.9249
41.8117
43.6491
45.4353
47.169
48.8497
50.4773
52.0523
53.5751
55.0467
56.4681
57.8405
59.165
60.4431
61.6761
62.8655
64.0127
65.1191
66.186
67.2149
17.5896
17.8082
18.3025
19.0753
20.0762
21.243
22.5218
23.8719
25.2637
26.6759
28.0932
29.5047
30.9021
32.2796
33.6327
34.9584
36.2544
37.5191
38.7513
39.9506
41.1165
42.2491
43.3485
44.415
45.449
46.4512
47.4221
48.3624
49.2729
50.1543
51.0073
51.8328
52.6315
17.5758
17.6732
17.924
18.3539
18.9503
19.682
20.5146
21.4186
22.3704
23.3521
24.3502
25.3549
26.3585
27.3555
28.3414
29.3132
30.2685
31.2053
32.1225
33.019
33.8943
34.748
35.5797
36.3896
37.1776
37.9439
38.6887
39.4124
40.1153
40.7978
41.4603
42.1031
42.7267
17.5702
17.6104
17.7324
17.9633
18.3084
18.7568
19.2901
19.889
20.5362
21.2175
21.9216
22.6397
23.3649
24.0918
24.8164
25.5355
26.2466
26.9478
27.6377
28.315
28.9791
29.6293
30.2651
30.8863
31.4927
32.0843
32.661
33.2229
33.7702
34.303
34.8215
35.3258
35.8163
17.5678
17.5817
17.6374
17.7559
17.9479
18.2137
18.5461
18.9343
19.3672
19.8343
20.3268
20.8373
21.3597
21.8894
22.4224
22.9557
23.4869
24.0139
24.5354
25.05
25.5568
26.0551
26.5443
27.0239
27.4937
27.9535
28.403
28.8422
29.2712
29.6898
30.0982
30.4964
30.8845
17.5669
17.5687
17.5913
17.6483
17.7501
17.9012
18.1009
18.3448
18.6268
18.9402
19.2785
19.6362
20.0084
20.3909
20.7803
21.1739
21.5693
21.9647
22.3585
22.7494
23.1364
23.5188
23.8959
24.2671
24.632
24.9904
25.3419
25.6865
26.0239
26.3541
26.677
26.9926
27.3009
17.5665
17.563
17.5695
17.5941
17.6444
17.7258
17.8404
17.9877
18.1651
18.369
18.5955
18.8405
19.1005
19.3722
19.6527
19.9397
20.2311
20.5251
20.8203
21.1155
21.4097
21.702
21.9918
22.2784
22.5614
22.8404
23.1151
23.3853
23.6507
23.9112
24.1667
24.4171
24.6623
17.5663
17.5605
17.5594
17.5675
17.5897
17.6303
17.6923
17.7769
17.8837
18.0113
18.1577
18.3205
18.4972
18.6856
18.8834
19.0888
19.2999
19.5153
19.7338
19.9541
20.1753
20.3967
20.6176
20.8372
21.0553
21.2713
21.4849
21.6958
21.9038
22.1087
22.3103
22.5085
22.7032
17.5662
17.5595
17.5549
17.5548
17.5621
17.5799
17.6107
17.6561
17.7169
17.7929
17.8836
17.9876
18.1036
18.2302
18.3657
18.5089
18.6583
18.8128
18.9713
19.1329
19.2967
19.4619
19.628
19.7943
19.9605
20.126
20.2906
20.4539
20.6157
20.7757
20.9337
21.0897
21.2434
17.5662
17.559
17.5529
17.5489
17.5487
17.5542
17.5672
17.5891
17.6211
17.6636
17.7166
17.7799
17.8528
17.9345
18.0241
18.1207
18.2233
18.3311
18.4432
18.559
18.6776
18.7985
18.9211
19.045
19.1696
19.2947
19.4198
19.5447
19.6691
19.7927
19.9155
20.0371
20.1576
17.5662
17.5588
17.552
17.5462
17.5424
17.5415
17.5447
17.5532
17.5679
17.5894
17.6181
17.6542
17.6975
17.7477
17.8043
17.8668
17.9347
18.0074
18.0842
18.1648
18.2484
18.3347
18.4232
18.5135
18.6052
18.698
18.7916
18.8856
18.98
19.0743
19.1685
19.2624
19.3558
17.5662
17.5588
17.5516
17.5451
17.5395
17.5354
17.5335
17.5346
17.5394
17.5483
17.562
17.5807
17.6044
17.6332
17.667
17.7054
17.7484
17.7954
17.8462
17.9004
17.9576
18.0175
18.0797
18.144
18.2101
18.2776
18.3463
18.416
18.4865
18.5575
18.629
18.7006
18.7724
17.5662
17.5587
17.5515
17.5445
17.5381
17.5325
17.5281
17.5253
17.5246
17.5265
17.5312
17.5392
17.5506
17.5656
17.5843
17.6065
17.6322
17.6612
17.6934
17.7286
17.7666
17.807
17.8498
17.8946
17.9413
17.9896
18.0394
18.0905
18.1426
18.1956
18.2494
18.3038
18.3586
17.5662
17.5587
17.5514
17.5443
17.5376
17.5313
17.5256
17.5209
17.5174
17.5153
17.5151
17.5169
17.5211
17.5277
17.5369
17.5487
17.5632
17.5804
17.6002
17.6225
17.6471
17.6741
17.7031
17.7342
17.7671
17.8017
17.8378
17.8753
17.914
17.9538
17.9947
18.0363
18.0788
17.5662
17.5587
17.5514
17.5442
17.5373
17.5307
17.5245
17.5189
17.514
17.5101
17.5074
17.506
17.5063
17.5083
17.5122
17.5181
17.5261
17.5363
17.5486
17.563
17.5795
17.5981
17.6186
17.6409
17.665
17.6907
17.718
17.7467
17.7767
17.8079
17.8402
17.8735
17.9077
17.5662
17.5587
17.5514
17.5442
17.5372
17.5306
17.5242
17.5183
17.513
17.5084
17.5048
17.5022
17.501
17.5012
17.503
17.5065
17.5117
17.5189
17.5279
17.5389
17.5517
17.5664
17.5829
17.6012
17.6212
17.6427
17.6657
17.6902
17.716
17.743
17.7711
17.8002
17.8303
17.5662
17.5587
17.5514
17.5442
17.5373
17.5307
17.5244
17.5187
17.5136
17.5094
17.5062
17.5041
17.5034
17.5042
17.5067
17.5108
17.5168
17.5246
17.5343
17.5459
17.5593
17.5746
17.5917
17.6104
17.6308
17.6528
17.6762
17.701
17.727
17.7543
17.7826
17.8119
17.8422
17.5662
17.5587
17.5514
17.5443
17.5376
17.5312
17.5255
17.5205
17.5166
17.5139
17.5127
17.5131
17.5153
17.5194
17.5256
17.5338
17.5442
17.5568
17.5714
17.5881
17.6068
17.6274
17.6498
17.674
17.6998
17.7271
17.7558
17.7858
17.817
17.8493
17.8826
17.9167
17.9517
17.5662
17.5587
17.5515
17.5446
17.5383
17.5328
17.5283
17.5254
17.5242
17.5251
17.5284
17.5344
17.543
17.5544
17.5687
17.5858
17.6056
17.6281
17.6531
17.6805
17.7101
17.7417
17.7753
17.8106
17.8475
17.8859
17.9255
17.9663
18.0082
18.0509
18.0944
18.1386
18.1834
17.5662
17.5588
17.5518
17.5455
17.5403
17.5368
17.5355
17.5371
17.542
17.5507
17.5634
17.5803
17.6014
17.6267
17.656
17.689
17.7256
17.7655
17.8084
17.854
17.902
17.9521
18.0042
18.0579
18.1131
18.1695
18.227
18.2853
18.3443
18.4039
18.4639
18.5242
18.5847
17.5663
17.5591
17.5527
17.548
17.5458
17.5473
17.5535
17.5653
17.5834
17.6079
17.6392
17.677
17.7211
17.771
17.8263
17.8865
17.9509
18.0192
18.0908
18.1652
18.2419
18.3207
18.4011
18.4827
18.5654
18.6489
18.7328
18.817
18.9014
18.9858
19.0699
19.1538
19.2372
17.5663
17.5598
17.5555
17.5552
17.5611
17.5751
17.5988
17.6332
17.6786
17.7349
17.8015
17.8776
17.9624
18.0547
18.1535
18.2578
18.3668
18.4796
18.5954
18.7136
18.8336
18.9548
19.0768
19.1993
19.3218
19.4441
19.566
19.6872
19.8076
19.927
20.0452
20.1623
20.278
17.5666
17.5622
17.5642
17.5767
17.6039
17.6486
17.7124
17.7951
17.896
18.0132
18.145
18.289
18.4433
18.606
18.7753
18.9497
19.1279
19.3087
19.4912
19.6746
19.8581
20.0413
20.2237
20.4048
20.5843
20.762
20.9376
21.111
21.282
21.4506
21.6166
21.7799
21.9406
17.5674
17.5706
17.5924
17.6417
17.7245
17.8427
17.995
18.1778
18.3868
18.6172
18.8646
19.125
19.3951
19.6719
19.953
20.2365
20.5208
20.8047
21.0871
21.3673
21.6446
21.9185
22.1886
22.4547
22.7164
22.9737
23.2264
23.4745
23.7178
23.9565
24.1903
24.4195
24.6441
17.5706
17.6016
17.687
17.8408
18.065
18.3527
18.6933
19.0751
19.4875
19.9213
20.3693
20.8257
21.2861
21.7468
22.2054
22.6598
23.1087
23.5511
23.9862
24.4134
24.8323
25.2429
25.6448
26.0381
26.4227
26.7987
27.1662
27.5252
27.8759
28.2185
28.553
28.8797
29.1987
17.5854
17.7219
18.012
18.4558
19.0269
19.692
20.4205
21.1884
21.9779
22.7761
23.5742
24.3656
25.1458
25.912
26.6624
27.3959
28.112
28.8105
29.4913
30.1545
30.8004
31.4293
32.0415
32.6374
33.2175
33.7821
34.3317
34.8666
35.3874
35.8943
36.3879
36.8684
37.3364
17.6614
18.2163
19.1616
20.3924
21.7983
23.2954
24.8285
26.3634
27.8795
29.3646
30.811
32.2141
33.5725
34.8867
36.158
37.3876
38.5772
39.7282
40.8423
41.9208
42.9651
43.9767
44.9567
45.9065
46.8271
47.7196
48.5852
49.4248
50.2393
51.0298
51.797
52.5418
53.2651
18.1027
20.3856
23.4854
26.9261
30.4414
33.9035
37.2583
40.4819
43.5648
46.506
49.3035
51.9688
54.5134
56.9473
59.2787
61.5147
63.6615
65.7246
67.7086
69.6179
71.4564
73.2276
74.9349
76.5812
78.1694
79.7023
81.1822
82.6116
83.9926
85.3275
86.6181
87.8663
89.0742
21.2182
31.4407
42.4859
53.1245
62.9728
72.0352
80.4369
88.1941
95.3421
101.98
108.198
114.053
119.587
124.83
129.807
134.537
139.039
143.329
147.42
151.324
155.055
158.621
162.033
165.301
168.432
171.434
174.316
177.083
179.742
182.299
184.761
187.131
189.415
59.9537
123.961
170.318
207.141
238.336
266.971
293.908
319.086
342.453
364.003
383.807
401.994
418.713
434.118
448.35
461.54
473.802
485.236
495.933
505.967
515.408
524.313
532.734
540.716
548.298
555.515
562.399
568.975
575.27
581.304
587.097
592.665
598.03
1719.4
1778.23
1839.24
1895.41
1945.93
1992.23
2035.28
2075.52
2113.26
2148.7
2182.04
2213.4
2242.93
2270.74
2296.93
2321.61
2344.85
2366.74
2387.37
2406.81
2425.12
2442.37
2458.63
2473.95
2488.38
2501.98
2514.8
2526.87
2538.26
2548.98
2559.1
2568.62
2577.62
9372.68
8893.29
8342.7
7781.32
7246.25
6751.67
6303.32
5899.43
5534.89
5203.81
4901.16
4623.15
4367.04
4130.86
3913
3712.05
3526.64
3355.43
3197.18
3050.72
2914.98
2788.98
2671.81
2562.6
2460.55
2364.87
2274.84
2189.78
2109.09
2032.22
1958.67
1888.02
1819.87
1753.89
1689.78
1627.29
1566.21
1506.36
1447.59
1389.78
1332.86
1276.78
1221.51
1167.06
1113.44
1060.72
1008.96
958.252
908.705
860.433
813.563
768.222
724.539
682.634
642.618
604.587
568.617
534.766
503.067
473.529
446.139
420.862
397.641
376.403
357.059
339.51
323.648
309.359
296.528
285.039
274.778
265.635
257.503
250.281
243.875
238.194
233.154
228.679
224.695
221.137
217.945
215.062
212.441
210.035
207.805
205.716
203.737
201.841
200.006
198.211
196.441
194.68
192.917
191.141
189.346
187.52
185.669
183.758
181.946
179.217
3274.96
3321.17
3380.35
3438.04
3501.46
3568.42
3631.62
3682.63
3714.64
3723.29
3706.86
3665.88
3602.54
3520.16
3422.65
3314.14
3198.59
3079.53
2959.88
2841.81
2726.85
2615.88
2509.35
2407.41
2309.97
2216.89
2127.91
2042.79
1961.25
1883.01
1807.81
1735.37
1665.44
1597.77
1532.17
1468.43
1406.41
1345.95
1286.96
1229.35
1173.05
1118.03
1064.27
1011.79
960.598
910.749
862.295
815.308
769.864
726.047
683.942
643.629
605.187
568.68
534.164
501.676
471.238
442.852
416.504
392.16
369.768
349.264
330.568
313.592
298.239
284.406
271.991
260.886
250.988
242.195
234.41
227.539
221.493
216.188
211.546
207.493
203.961
200.884
198.204
195.866
193.818
192.014
190.412
188.972
187.66
186.445
185.3
184.2
183.126
182.059
180.984
179.889
178.763
177.596
176.382
175.113
173.792
172.39
171.041
168.948
1361.02
1366.11
1375.08
1386.75
1400.6
1416.79
1436.11
1460.17
1490.54
1528.02
1572.57
1623.22
1678.1
1734.45
1788.96
1838.14
1878.76
1908.26
1925.08
1928.71
1919.62
1899.08
1868.81
1830.72
1786.64
1738.22
1686.81
1633.48
1579.04
1524.07
1469.01
1414.17
1359.77
1305.97
1252.88
1200.59
1149.16
1098.63
1049.05
1000.45
952.877
906.372
860.982
816.762
773.769
732.067
691.723
652.806
615.384
579.522
545.282
512.716
481.869
452.772
425.446
399.894
376.108
354.065
333.727
315.044
297.956
282.392
268.276
255.526
244.055
233.778
224.608
216.46
209.25
202.9
197.335
192.481
188.272
184.643
181.534
178.889
176.654
174.78
173.219
171.928
170.864
169.989
169.269
168.669
168.159
167.714
167.308
166.92
166.53
166.124
165.685
165.204
164.669
164.072
163.406
162.665
161.85
160.939
160.035
158.562
728.55
730.464
732.497
734.569
736.679
738.958
741.642
744.922
749.014
754.468
761.879
771.823
784.806
801.204
821.198
844.699
871.297
900.228
930.396
960.453
988.919
1014.34
1035.45
1051.27
1061.2
1065.04
1062.92
1055.2
1042.47
1025.37
1004.56
980.698
954.357
926.054
896.234
865.278
833.51
801.208
768.61
735.925
703.336
671.004
639.077
607.687
576.957
546.998
517.913
489.794
462.725
436.779
412.018
388.493
366.242
345.291
325.653
307.33
290.311
274.573
260.084
246.804
234.684
223.672
213.709
204.736
196.691
189.512
183.138
177.51
172.572
168.267
164.544
161.353
158.647
156.382
154.514
153.004
151.813
150.903
150.239
149.788
149.516
149.393
149.39
149.478
149.632
149.828
150.045
150.261
150.461
150.628
150.749
150.813
150.808
150.726
150.562
150.307
149.963
149.511
149.028
148.145
436.778
439.38
441.871
444.125
446.066
447.709
449.119
450.393
451.592
452.822
454.224
455.959
458.189
461.081
464.794
469.478
475.257
482.216
490.386
499.718
510.073
521.213
532.797
544.398
555.534
565.699
574.413
581.253
585.889
588.1
587.777
584.916
579.604
571.996
562.293
550.725
537.539
522.977
507.28
490.674
473.373
455.573
437.458
419.195
400.935
382.818
364.967
347.494
330.497
314.062
298.26
283.151
268.782
255.19
242.397
230.418
219.256
208.906
199.355
190.582
182.564
175.271
168.671
162.73
157.412
152.681
148.502
144.84
141.659
138.927
136.613
134.685
133.114
131.872
130.93
130.263
129.843
129.645
129.643
129.812
130.127
130.565
131.1
131.71
132.373
133.068
133.775
134.476
135.154
135.793
136.381
136.906
137.356
137.723
138
138.178
138.259
138.225
138.127
137.793
276.258
279.047
281.725
284.231
286.509
288.545
290.351
291.953
293.384
294.676
295.868
297.002
298.119
299.257
300.454
301.747
303.171
304.764
306.56
308.589
310.873
313.421
316.223
319.247
322.432
325.69
328.907
331.946
334.653
336.874
338.456
339.265
339.19
338.15
336.099
333.02
328.933
323.881
317.93
311.166
303.684
295.589
286.989
277.993
268.707
259.236
249.675
240.116
230.642
221.328
212.239
203.433
194.958
186.853
179.15
171.873
165.037
158.653
152.723
147.246
142.217
137.626
133.462
129.711
126.358
123.385
120.776
118.513
116.579
114.958
113.631
112.583
111.796
111.255
110.942
110.842
110.938
111.213
111.649
112.227
112.931
113.741
114.639
115.605
116.62
117.667
118.727
119.783
120.819
121.821
122.774
123.667
124.487
125.225
125.873
126.422
126.87
127.204
127.448
127.608
182.458
184.97
187.402
189.728
191.918
193.959
195.848
197.593
199.202
200.688
202.063
203.341
204.532
205.643
206.679
207.645
208.542
209.374
210.145
210.861
211.526
212.15
212.74
213.3
213.835
214.341
214.81
215.226
215.562
215.788
215.863
215.744
215.386
214.742
213.771
212.438
210.717
208.591
206.055
203.113
199.783
196.089
192.066
187.752
183.193
178.438
173.536
168.536
163.489
158.44
153.433
148.509
143.703
139.048
134.571
130.295
126.238
122.414
118.834
115.506
112.432
109.616
107.055
104.748
102.691
100.878
99.3035
97.9611
96.8436
95.9438
95.2541
94.7668
94.4737
94.3668
94.4372
94.6758
95.0729
95.6181
96.3002
97.107
98.0257
99.0425
100.143
101.312
102.534
103.792
105.072
106.358
107.634
108.886
110.099
111.261
112.36
113.385
114.327
115.176
115.927
116.571
117.106
117.696
125.916
127.991
130.016
131.98
133.867
135.668
137.378
138.999
140.532
141.979
143.345
144.635
145.849
146.988
148.05
149.032
149.93
150.738
151.452
152.068
152.582
152.993
153.301
153.508
153.616
153.628
153.549
153.379
153.12
152.772
152.33
151.789
151.141
150.376
149.482
148.449
147.265
145.92
144.408
142.725
140.87
138.846
136.661
134.327
131.857
129.271
126.588
123.83
121.021
118.184
115.343
112.522
109.741
107.021
104.382
101.839
99.4064
97.0978
94.9231
92.8906
91.0069
89.277
87.7043
86.2908
85.0377
83.9452
83.0126
82.2388
81.6221
81.1605
80.8518
80.6931
80.6816
80.814
81.0865
81.4948
82.034
82.6985
83.4817
84.3763
85.3737
86.4645
87.6381
88.883
90.1868
91.5365
92.9184
94.3187
95.7233
97.1183
98.4902
99.8257
101.113
102.339
103.494
104.568
105.554
106.443
107.214
108.162
90.8295
92.4773
94.0976
95.6833
97.2269
98.7223
100.166
101.556
102.892
104.174
105.403
106.58
107.703
108.771
109.782
110.731
111.615
112.426
113.16
113.811
114.374
114.844
115.218
115.493
115.67
115.748
115.729
115.614
115.407
115.11
114.726
114.257
113.706
113.072
112.358
111.561
110.683
109.721
108.676
107.546
106.334
105.039
103.667
102.22
100.705
99.1302
97.5033
95.835
94.1361
92.4187
90.6951
88.9776
87.2787
85.6105
83.9844
82.4113
80.901
79.4626
78.1038
76.8318
75.6524
74.5705
73.5904
72.7153
71.9478
71.29
70.7433
70.3088
69.9873
69.7792
69.6848
69.7041
69.8367
70.0822
70.4398
70.9081
71.4855
72.1696
72.9572
73.8443
74.8262
75.8969
77.0492
78.2752
79.5655
80.9102
82.298
83.7173
85.1557
86.6007
88.0395
89.4594
90.8479
92.1929
93.4834
94.7077
95.8586
96.9268
97.8752
99.1039
68.3694
69.6601
70.9364
72.1945
73.4299
74.6388
75.8186
76.9676
78.0843
79.168
80.2182
81.2343
82.2152
83.1593
84.0639
84.926
85.7415
86.5061
87.215
87.8632
88.4461
88.9592
89.3985
89.7608
90.0436
90.2455
90.3657
90.4045
90.3627
90.2421
90.0447
89.7731
89.43
89.0181
88.5402
87.9989
87.3967
86.736
86.019
85.2481
84.4257
83.5546
82.6377
81.6786
80.6812
79.6502
78.5907
77.5086
76.4101
75.302
74.1913
73.0854
71.9916
70.9174
69.8699
68.8561
67.8825
66.9554
66.0804
65.2628
64.507
63.8172
63.1971
62.6498
62.1779
61.7839
61.4699
61.2375
61.0884
61.0241
61.0459
61.1548
61.352
61.6384
62.0146
62.4813
63.0385
63.6859
64.4227
65.2475
66.1581
67.1513
68.223
69.3681
70.5803
71.8525
73.1763
74.5424
75.9407
77.3604
78.7903
80.2185
81.6334
83.0231
84.3765
85.6816
86.9299
88.1133
89.1808
90.6112
53.5311
54.5408
55.5439
56.538
57.5204
58.4888
59.4411
60.376
61.2921
62.1884
63.0642
63.9185
64.7503
65.558
66.3396
67.0928
67.8146
68.5017
69.1505
69.7574
70.3184
70.8299
71.2884
71.6908
72.0345
72.3171
72.5373
72.6941
72.7871
72.8166
72.7834
72.6889
72.5348
72.3232
72.0562
71.7366
71.3668
70.9496
70.4877
69.9841
69.4416
68.8632
68.252
67.6112
66.9444
66.2551
65.5473
64.825
64.0928
63.355
62.6164
61.882
61.1565
60.4449
59.7521
59.0828
58.4415
57.8325
57.26
56.7277
56.2391
55.7974
55.4055
55.0661
54.7814
54.5537
54.3849
54.2769
54.2314
54.2501
54.3346
54.4865
54.7072
54.9984
55.3615
55.7979
56.3086
56.8946
57.5565
58.2946
59.1083
59.9967
60.9579
61.9892
63.087
64.2466
65.4624
66.7275
68.0343
69.3742
70.7378
72.1151
73.4954
74.868
76.2222
77.5464
78.8314
80.0702
81.2022
82.7581
43.4314
44.2249
45.0162
45.8037
46.5858
47.3609
48.1276
48.8848
49.6314
50.3664
51.0891
51.7987
52.4942
53.1742
53.8374
54.482
55.1057
55.7064
56.2812
56.8276
57.3425
57.8232
58.267
58.671
59.0331
59.3511
59.6232
59.8482
60.0251
60.1533
60.233
60.2643
60.2482
60.1856
60.078
59.9271
59.7348
59.5033
59.2349
58.932
58.5972
58.2332
57.8426
57.4284
56.9936
56.5413
56.0745
55.5967
55.1112
54.6214
54.1309
53.6433
53.1621
52.6909
52.2333
51.7926
51.3722
50.9753
50.6048
50.2636
49.9543
49.6794
49.4411
49.2416
49.0827
48.9662
48.894
48.8675
48.8884
48.9583
49.0787
49.2512
49.4774
49.759
50.0977
50.4951
50.9528
51.4723
52.0551
52.7021
53.4142
54.1917
55.0343
55.9411
56.9106
57.9401
59.0263
60.1648
61.3502
62.5763
63.8357
65.1204
66.4216
67.7299
69.0356
70.3284
71.5988
72.8413
73.9893
75.6007
36.3719
36.9994
37.6272
38.2542
38.8794
39.5016
40.12
40.7336
41.3415
41.9431
42.5376
43.1243
43.7025
44.271
44.8289
45.3748
45.9071
46.4243
46.9243
47.4052
47.8649
48.3012
48.7121
49.0955
49.4493
49.7719
50.0617
50.3172
50.5375
50.7217
50.8694
50.9803
51.0546
51.0927
51.0953
51.0635
50.9983
50.9013
50.7741
50.6185
50.4364
50.2301
50.0017
49.7536
49.4882
49.208
48.9157
48.614
48.3054
47.9929
47.6791
47.367
47.0591
46.7583
46.4674
46.1888
45.9251
45.6787
45.4519
45.2469
45.0657
44.9101
44.7819
44.6828
44.6143
44.5778
44.5746
44.6062
44.6739
44.779
44.9229
45.107
45.3328
45.6018
45.9157
46.2762
46.6848
47.1435
47.6536
48.217
48.8348
49.5082
50.238
51.0245
51.8674
52.7658
53.7182
54.722
55.7741
56.8701
58.005
59.1727
60.3664
61.5784
62.8007
64.0241
65.2402
66.4445
67.5682
69.1747
31.3252
31.8244
32.3252
32.8269
33.329
33.8305
34.3308
34.8293
35.3251
35.8179
36.307
36.7917
37.2715
37.7457
38.2133
38.6735
39.1251
39.5668
39.9974
40.4154
40.8193
41.2074
41.5783
41.9303
42.2618
42.5716
42.8581
43.1204
43.3572
43.5679
43.7517
43.9083
44.0374
44.1391
44.2136
44.2614
44.2832
44.2799
44.2525
44.2024
44.1308
44.0394
43.9298
43.804
43.6637
43.511
43.348
43.1768
42.9996
42.8186
42.636
42.454
42.2748
42.1007
41.9336
41.7757
41.6288
41.495
41.3759
41.2732
41.1884
41.123
41.0784
41.0557
41.0563
41.0811
41.1313
41.2079
41.312
41.4447
41.607
41.8002
42.0256
42.2844
42.5782
42.9083
43.2765
43.6844
44.1335
44.6257
45.1625
45.7454
46.3756
47.0542
47.7819
48.5588
49.3846
50.2583
51.1783
52.142
53.1464
54.1871
55.2594
56.3574
57.4747
58.604
59.7378
60.8732
61.942
63.4951
27.6519
28.0505
28.4517
28.8548
29.2594
29.665
30.071
30.4769
30.8822
31.2865
31.6893
32.0901
32.4884
32.8836
33.2752
33.6624
34.0445
34.4204
34.7893
35.1502
35.5018
35.843
36.1728
36.4898
36.793
37.0812
37.3533
37.6084
37.8456
38.0642
38.2635
38.443
38.6025
38.7417
38.8607
38.9596
39.0388
39.0988
39.1402
39.1639
39.1709
39.1622
39.1391
39.1029
39.0551
38.9973
38.931
38.8579
38.7797
38.6983
38.6153
38.5324
38.4516
38.3744
38.3025
38.2375
38.181
38.1344
38.0991
38.0763
38.0673
38.0731
38.0948
38.1333
38.1894
38.264
38.358
38.472
38.607
38.7637
38.943
39.1458
39.3732
39.6262
39.906
40.214
40.5515
40.92
41.321
41.7561
42.2269
42.7351
43.282
43.8691
44.4974
45.1679
45.881
46.6367
47.4346
48.2735
49.1517
50.0667
51.0153
51.9933
52.9962
54.0182
55.0531
56.0998
57.0929
58.5571
24.9423
25.2611
25.5829
25.9074
26.2341
26.5627
26.8927
27.2238
27.5556
27.8877
28.2198
28.5514
28.8823
29.2119
29.5399
29.8655
30.1884
30.5078
30.8231
31.1335
31.4381
31.7362
32.0269
32.3093
32.5825
32.8458
33.0982
33.339
33.5675
33.783
33.9851
34.1733
34.3472
34.5065
34.6513
34.7815
34.8972
34.9988
35.0866
35.1611
35.2231
35.2732
35.3125
35.3418
35.3622
35.3749
35.3812
35.3823
35.3795
35.3742
35.3679
35.3618
35.3574
35.3559
35.3587
35.3671
35.3822
35.4051
35.4368
35.4784
35.5308
35.5946
35.6708
35.7599
35.8626
35.9794
36.111
36.2578
36.4205
36.5997
36.7959
37.0099
37.2424
37.4944
37.7666
38.0603
38.3765
38.7164
39.0815
39.4731
39.8927
40.3418
40.822
41.3345
41.8808
42.4621
43.0793
43.733
44.4235
45.1507
45.914
46.7119
47.5428
48.4039
49.2921
50.2034
51.1331
52.081
52.9865
54.3393
22.9261
23.1808
23.4388
23.6998
23.9635
24.2296
24.4979
24.768
25.0397
25.3126
25.5865
25.8611
26.136
26.411
26.6857
26.9597
27.2325
27.5038
27.773
28.0395
28.3028
28.5624
28.8174
29.0674
29.3117
29.5496
29.7805
30.0039
30.2191
30.4258
30.6234
30.8115
30.9899
31.1583
31.3167
31.4648
31.6029
31.731
31.8494
31.9584
32.0585
32.1501
32.2341
32.311
32.3816
32.4469
32.5077
32.5651
32.6201
32.6736
32.7268
32.7808
32.8366
32.8951
32.9575
33.0247
33.0976
33.1769
33.2636
33.3582
33.4614
33.5738
33.696
33.8282
33.971
34.1247
34.2898
34.4664
34.655
34.856
35.0697
35.2967
35.5376
35.7928
36.0632
36.3495
36.6527
36.9737
37.3137
37.6739
38.0555
38.4599
38.8885
39.3426
39.8236
40.3328
40.8713
41.4401
42.0399
42.6712
43.3341
44.0282
44.7526
45.5059
46.2862
47.0908
47.9162
48.7636
49.5776
50.8077
21.4201
21.6228
21.8288
22.0382
22.2505
22.4657
22.6834
22.9035
23.1257
23.3498
23.5755
23.8028
24.0312
24.2607
24.4908
24.7214
24.9521
25.1825
25.4124
25.6413
25.8688
26.0945
26.318
26.5387
26.7562
26.9701
27.1798
27.3851
27.5853
27.7803
27.9696
28.1529
28.33
28.5007
28.6649
28.8225
28.9735
29.118
29.2562
29.3883
29.5146
29.6355
29.7514
29.863
29.9707
30.0753
30.1774
30.2778
30.3773
30.4766
30.5765
30.678
30.7817
30.8885
30.9991
31.1142
31.2345
31.3605
31.4929
31.632
31.7783
31.9322
32.094
32.2639
32.4421
32.6289
32.8244
33.0287
33.242
33.4646
33.6967
33.9385
34.1904
34.4528
34.7261
35.0111
35.3083
35.6186
35.9428
36.2819
36.637
37.0091
37.3996
37.8096
38.2404
38.6933
39.1694
39.6699
40.1957
40.7475
41.326
41.9313
42.5633
43.2214
43.9046
44.6114
45.3394
46.0906
46.8151
47.921
20.2966
20.4568
20.6205
20.7875
20.9577
21.131
21.3072
21.486
21.6674
21.8511
22.0371
22.2251
22.4149
22.6064
22.7993
22.9935
23.1888
23.3848
23.5814
23.7783
23.9751
24.1717
24.3676
24.5625
24.7562
24.9482
25.1383
25.3262
25.5115
25.694
25.8735
26.0496
26.2224
26.3915
26.557
26.7188
26.8768
27.0312
27.1821
27.3296
27.474
27.6155
27.7546
27.8916
28.027
28.1613
28.295
28.4286
28.5629
28.6983
28.8354
28.975
29.1175
29.2637
29.4139
29.5687
29.7285
29.8938
30.0649
30.2421
30.4257
30.6157
30.8124
31.0159
31.2261
31.4431
31.6669
31.8975
32.1349
32.3792
32.6303
32.8885
33.1539
33.4267
33.7072
33.9958
34.293
34.5993
34.9155
35.2422
35.5804
35.9309
36.2948
36.6731
37.067
37.4776
37.906
38.3533
38.8206
39.3087
39.8185
40.3504
40.905
41.482
42.0813
42.7021
43.3429
44.0062
44.6477
45.6352
19.4642
19.5898
19.7189
19.8514
19.9872
20.1262
20.2682
20.4132
20.561
20.7115
20.8645
21.02
21.1779
21.3379
21.5
21.664
21.8297
21.997
22.1657
22.3357
22.5066
22.6784
22.8508
23.0236
23.1966
23.3694
23.5421
23.7142
23.8857
24.0563
24.2259
24.3943
24.5615
24.7273
24.8918
25.0548
25.2164
25.3767
25.5358
25.6938
25.851
26.0075
26.1637
26.3199
26.4764
26.6336
26.7919
26.9519
27.1138
27.2783
27.4457
27.6164
27.791
27.9699
28.1533
28.3417
28.5353
28.7344
28.9391
29.1496
29.366
29.5883
29.8165
30.0504
30.2901
30.5353
30.786
31.042
31.3032
31.5694
31.8406
32.1167
32.3977
32.6837
32.9748
33.2713
33.5734
33.8815
34.1961
34.5178
34.8472
35.185
35.5321
35.8893
36.2576
36.6379
37.0314
37.439
37.8617
38.3005
38.7562
39.2296
39.7213
40.2317
40.7608
41.3086
41.8743
42.4608
43.0284
43.9082
18.8562
18.954
19.0552
19.1598
19.2677
19.3789
19.4932
19.6107
19.7312
19.8546
19.9809
20.1099
20.2416
20.376
20.5128
20.652
20.7935
20.9372
21.083
21.2308
21.3804
21.5317
21.6846
21.8388
21.9944
22.1512
22.3089
22.4676
22.6271
22.7872
22.9479
23.1092
23.2709
23.433
23.5956
23.7586
23.9222
24.0863
24.2511
24.4168
24.5835
24.7515
24.921
25.0922
25.2655
25.4412
25.6195
25.801
25.9858
26.1744
26.3671
26.5642
26.7661
26.9729
27.1851
27.4026
27.6258
27.8547
28.0894
28.3298
28.576
28.8277
29.0849
29.3473
29.6148
29.887
30.1638
30.4448
30.7297
31.0184
31.3106
31.6061
31.9048
32.2066
32.5115
32.8195
33.1308
33.4456
33.7642
34.0869
34.4143
34.7469
35.0854
35.4304
35.7828
36.1433
36.5128
36.8924
37.2828
37.685
38.0999
38.5282
38.9708
39.4282
39.9008
40.3889
40.8921
41.4137
41.9182
42.7042
18.4232
18.4993
18.5786
18.6612
18.7472
18.8365
18.9289
19.0246
19.1235
19.2254
19.3304
19.4384
19.5494
19.6633
19.7801
19.8996
20.0219
20.1468
20.2744
20.4045
20.5371
20.672
20.8093
20.9489
21.0906
21.2344
21.3803
21.5282
21.678
21.8297
21.9833
22.1387
22.296
22.4551
22.6162
22.7793
22.9444
23.1117
23.2813
23.4534
23.6282
23.8057
23.9864
24.1703
24.3579
24.5493
24.7448
24.9447
25.1493
25.3589
25.5737
25.794
26.02
26.2518
26.4896
26.7335
26.9835
27.2397
27.5019
27.77
28.0439
28.3234
28.6082
28.898
29.1924
29.4911
29.7937
30.0999
30.4091
30.7211
31.0356
31.3521
31.6705
31.9905
32.312
32.6349
32.9592
33.285
33.6123
33.9415
34.2728
34.6067
34.9436
35.284
35.6287
35.9782
36.3333
36.6948
37.0636
37.4404
37.8261
38.2215
38.6273
39.0444
39.4732
39.9143
40.3677
40.8367
41.289
41.997
18.1291
18.189
18.252
18.3183
18.3879
18.4607
18.5368
18.6161
18.6987
18.7845
18.8735
18.9657
19.0611
19.1596
19.2613
19.366
19.4739
19.5848
19.6987
19.8156
19.9355
20.0583
20.1841
20.3127
20.4443
20.5787
20.7159
20.8561
20.999
21.1449
21.2936
21.4453
21.6
21.7577
21.9186
22.0827
22.2502
22.4212
22.5958
22.7742
22.9567
23.1434
23.3345
23.5303
23.731
23.9369
24.1482
24.3651
24.5879
24.8169
25.0521
25.2938
25.5422
25.7973
26.0591
26.3278
26.6031
26.8852
27.1737
27.4685
27.7694
28.076
28.3879
28.7047
29.0261
29.3515
29.6804
30.0124
30.347
30.6836
31.0219
31.3614
31.7017
32.0425
32.3835
32.7245
33.0654
33.4061
33.7466
34.087
34.4274
34.7682
35.1097
35.4522
35.7963
36.1424
36.4913
36.8436
37.1999
37.561
37.9278
38.3009
38.6812
39.0693
39.466
39.8719
40.2873
40.7157
41.127
41.773
17.9486
17.9976
18.0498
18.1051
18.1637
18.2255
18.2905
18.3588
18.4305
18.5054
18.5836
18.6652
18.7501
18.8383
18.9299
19.0248
19.123
19.2246
19.3295
19.4378
19.5494
19.6645
19.7829
19.9047
20.03
20.1588
20.291
20.4268
20.5662
20.7093
20.8561
21.0068
21.1613
21.3199
21.4826
21.6496
21.8211
21.9971
22.178
22.3638
22.5549
22.7513
22.9534
23.1614
23.3755
23.5959
23.8229
24.0567
24.2975
24.5454
24.8008
25.0635
25.3339
25.6118
25.8974
26.1905
26.491
26.7988
27.1136
27.4352
27.7632
28.0972
28.4367
28.7813
29.1305
29.4836
29.8401
30.1994
30.561
30.9241
31.2883
31.6531