/*--------------------------------*- C++ -*----------------------------------*\
| =========                 |                                                 |
| \\      /  F ield         | OpenFOAM: The Open Source CFD Toolbox           |
|  \\    /   O peration     | Version:  4.1                                   |
|   \\  /    A nd           | Web:      www.OpenFOAM.org                      |
|    \\/     M anipulation  |                                                 |
\*---------------------------------------------------------------------------*/
FoamFile
{
    version     2.0;
    format      ascii;
    class       volScalarField;
    location    "1000";
    object      p;
}
// * * * * * * * * * * * * * * * * * * * * * * * * * * * * * * * * * * * * * //

dimensions      [0 2 -2 0 0 0 0];

internalField   nonuniform List<scalar> 
6820
(
6.15738
-4.54153
-8.06816
-8.81339
-9.206
-9.53724
-9.72561
-9.81894
-9.88184
-9.93452
-9.9776
-10.0126
-10.0428
-10.07
-10.0949
-10.1178
-10.1392
-10.1594
-10.1786
-10.1969
-10.2145
-10.2316
-10.2481
-10.264
-10.2796
-10.2947
-10.3093
-10.3233
-10.3365
-10.3489
-10.3593
-10.3695
-10.3662
-15.5619
-12.0146
-11.2128
-10.4084
-10.0253
-9.9431
-9.92918
-9.92431
-9.93633
-9.96141
-9.98952
-10.0165
-10.0424
-10.0674
-10.0911
-10.1135
-10.1348
-10.155
-10.1743
-10.1929
-10.2107
-10.228
-10.2447
-10.2609
-10.2766
-10.292
-10.3068
-10.3212
-10.335
-10.3483
-10.3603
-10.3728
-10.3785
-13.3714
-9.86345
-9.60136
-9.59111
-9.57843
-9.66897
-9.76216
-9.82439
-9.87503
-9.92219
-9.96367
-9.99912
-10.0303
-10.0585
-10.0843
-10.1081
-10.1302
-10.151
-10.1707
-10.1895
-10.2075
-10.2249
-10.2417
-10.258
-10.2738
-10.2893
-10.3043
-10.319
-10.3332
-10.347
-10.3602
-10.374
-10.385
-10.9445
-9.4736
-9.62407
-9.73439
-9.7145
-9.76361
-9.82774
-9.87134
-9.90755
-9.9436
-9.97728
-10.0075
-10.0351
-10.0608
-10.0848
-10.1074
-10.1287
-10.1489
-10.1682
-10.1868
-10.2046
-10.2219
-10.2387
-10.2551
-10.271
-10.2866
-10.3019
-10.3168
-10.3315
-10.3461
-10.3604
-10.3753
-10.3896
-10.4922
-9.77766
-9.81631
-9.82721
-9.77771
-9.79961
-9.8461
-9.88234
-9.91471
-9.94789
-9.97968
-10.0088
-10.0357
-10.0609
-10.0846
-10.1068
-10.1279
-10.1479
-10.1671
-10.1855
-10.2033
-10.2205
-10.2373
-10.2536
-10.2695
-10.2852
-10.3006
-10.3157
-10.3308
-10.3458
-10.3609
-10.3768
-10.3931
-10.4115
-9.93182
-9.88378
-9.85778
-9.81392
-9.82722
-9.86371
-9.89575
-9.92569
-9.95635
-9.98601
-10.0136
-10.0393
-10.0635
-10.0864
-10.108
-10.1286
-10.1482
-10.167
-10.1852
-10.2027
-10.2198
-10.2364
-10.2526
-10.2685
-10.2842
-10.2997
-10.315
-10.3303
-10.3458
-10.3615
-10.378
-10.3955
-10.2886
-9.96218
-9.90789
-9.88243
-9.84921
-9.85723
-9.88507
-9.91235
-9.9391
-9.96677
-9.99394
-10.0197
-10.044
-10.0671
-10.0891
-10.11
-10.13
-10.1491
-10.1676
-10.1854
-10.2027
-10.2196
-10.236
-10.2522
-10.268
-10.2837
-10.2992
-10.3146
-10.3302
-10.3459
-10.362
-10.3789
-10.3969
-10.1796
-9.97414
-9.92944
-9.9072
-9.88132
-9.88557
-9.90651
-9.92934
-9.95296
-9.9778
-10.0026
-10.0265
-10.0495
-10.0714
-10.0925
-10.1126
-10.132
-10.1507
-10.1687
-10.1862
-10.2032
-10.2199
-10.2361
-10.2521
-10.2679
-10.2834
-10.2989
-10.3144
-10.3301
-10.3459
-10.3622
-10.3793
-10.3974
-10.1086
-9.98492
-9.94739
-9.92749
-9.90763
-9.91009
-9.92624
-9.94555
-9.9665
-9.98886
-10.0115
-10.0338
-10.0554
-10.0762
-10.0963
-10.1158
-10.1345
-10.1527
-10.1703
-10.1874
-10.2041
-10.2204
-10.2365
-10.2523
-10.2679
-10.2834
-10.2988
-10.3143
-10.3299
-10.3458
-10.3621
-10.3791
-10.397
-10.0643
-9.99155
-9.96039
-9.94336
-9.92885
-9.93082
-9.94383
-9.9605
-9.97924
-9.99951
-10.0203
-10.041
-10.0613
-10.0811
-10.1004
-10.1191
-10.1372
-10.1548
-10.172
-10.1887
-10.2051
-10.2212
-10.237
-10.2526
-10.2681
-10.2834
-10.2987
-10.3141
-10.3297
-10.3455
-10.3616
-10.3784
-10.3959
-10.0365
-9.9949
-9.9702
-9.95634
-9.94618
-9.94827
-9.95922
-9.97392
-9.99087
-10.0094
-10.0286
-10.048
-10.0671
-10.0859
-10.1044
-10.1223
-10.1399
-10.157
-10.1737
-10.1901
-10.2061
-10.2219
-10.2375
-10.2529
-10.2681
-10.2833
-10.2985
-10.3137
-10.3291
-10.3447
-10.3607
-10.377
-10.394
-10.02
-9.99698
-9.97827
-9.9674
-9.96059
-9.96301
-9.97261
-9.98581
-10.0013
-10.0184
-10.0362
-10.0544
-10.0725
-10.0904
-10.1081
-10.1254
-10.1423
-10.159
-10.1753
-10.1913
-10.207
-10.2225
-10.2378
-10.2529
-10.268
-10.283
-10.298
-10.313
-10.3281
-10.3435
-10.3591
-10.375
-10.3914
-10.0112
-9.99894
-9.98531
-9.9771
-9.97284
-9.97563
-9.98428
-9.99631
-10.0106
-10.0264
-10.043
-10.0601
-10.0773
-10.0944
-10.1114
-10.1281
-10.1445
-10.1606
-10.1765
-10.1922
-10.2076
-10.2228
-10.2378
-10.2527
-10.2675
-10.2823
-10.297
-10.3118
-10.3267
-10.3417
-10.3569
-10.3723
-10.388
-10.0074
-10.0013
-9.99173
-9.98581
-9.98346
-9.9866
-9.99456
-10.0056
-10.0188
-10.0335
-10.0491
-10.0653
-10.0816
-10.0979
-10.1142
-10.1303
-10.1463
-10.162
-10.1774
-10.1927
-10.2078
-10.2227
-10.2374
-10.2521
-10.2666
-10.2811
-10.2956
-10.3101
-10.3246
-10.3392
-10.354
-10.3688
-10.3838
-10.007
-10.0042
-9.99776
-9.99376
-9.99287
-9.9963
-10.0037
-10.0139
-10.0262
-10.0399
-10.0546
-10.0698
-10.0853
-10.101
-10.1166
-10.1322
-10.1476
-10.1628
-10.1779
-10.1928
-10.2076
-10.2222
-10.2366
-10.251
-10.2652
-10.2794
-10.2936
-10.3077
-10.3219
-10.3361
-10.3503
-10.3646
-10.379
-10.0088
-10.0077
-10.0036
-10.0011
-10.0013
-10.005
-10.0119
-10.0214
-10.0328
-10.0456
-10.0594
-10.0738
-10.0885
-10.1035
-10.1185
-10.1335
-10.1485
-10.1633
-10.178
-10.1925
-10.2069
-10.2212
-10.2353
-10.2494
-10.2633
-10.2772
-10.291
-10.3048
-10.3185
-10.3323
-10.346
-10.3597
-10.3734
-10.0119
-10.0116
-10.0092
-10.008
-10.009
-10.0128
-10.0194
-10.0282
-10.0388
-10.0508
-10.0637
-10.0773
-10.0913
-10.1056
-10.12
-10.1345
-10.1489
-10.1633
-10.1776
-10.1917
-10.2058
-10.2197
-10.2335
-10.2473
-10.2609
-10.2744
-10.2879
-10.3012
-10.3146
-10.3278
-10.3411
-10.3542
-10.3672
-10.0159
-10.016
-10.0148
-10.0145
-10.016
-10.0199
-10.0261
-10.0344
-10.0443
-10.0554
-10.0675
-10.0804
-10.0937
-10.1073
-10.1211
-10.1351
-10.149
-10.1629
-10.1768
-10.1906
-10.2042
-10.2178
-10.2313
-10.2447
-10.2579
-10.2711
-10.2841
-10.2971
-10.31
-10.3228
-10.3355
-10.348
-10.3604
-10.0205
-10.0207
-10.0202
-10.0206
-10.0225
-10.0264
-10.0323
-10.04
-10.0492
-10.0596
-10.071
-10.0831
-10.0957
-10.1087
-10.1219
-10.1353
-10.1487
-10.1622
-10.1756
-10.189
-10.2023
-10.2155
-10.2286
-10.2416
-10.2545
-10.2673
-10.2799
-10.2925
-10.3049
-10.3172
-10.3293
-10.3413
-10.3531
-10.0253
-10.0255
-10.0255
-10.0264
-10.0285
-10.0323
-10.0379
-10.045
-10.0536
-10.0633
-10.0739
-10.0854
-10.0973
-10.1097
-10.1223
-10.1352
-10.1481
-10.1611
-10.1741
-10.1871
-10.2
-10.2128
-10.2255
-10.2381
-10.2506
-10.263
-10.2752
-10.2873
-10.2993
-10.3111
-10.3227
-10.3341
-10.3453
-10.0302
-10.0304
-10.0308
-10.0318
-10.0341
-10.0377
-10.0429
-10.0495
-10.0575
-10.0665
-10.0765
-10.0873
-10.0986
-10.1103
-10.1224
-10.1347
-10.1472
-10.1597
-10.1723
-10.1848
-10.1973
-10.2097
-10.2221
-10.2343
-10.2464
-10.2583
-10.2701
-10.2818
-10.2932
-10.3045
-10.3156
-10.3265
-10.3371
-10.0352
-10.0354
-10.0359
-10.037
-10.0392
-10.0426
-10.0474
-10.0535
-10.0609
-10.0693
-10.0786
-10.0887
-10.0994
-10.1106
-10.1222
-10.134
-10.1459
-10.158
-10.1701
-10.1822
-10.1943
-10.2063
-10.2183
-10.2301
-10.2418
-10.2533
-10.2647
-10.2758
-10.2868
-10.2976
-10.3082
-10.3185
-10.3286
-10.0402
-10.0404
-10.0409
-10.042
-10.0439
-10.0471
-10.0514
-10.057
-10.0638
-10.0716
-10.0803
-10.0898
-10.0999
-10.1105
-10.1215
-10.1328
-10.1443
-10.156
-10.1677
-10.1794
-10.191
-10.2027
-10.2142
-10.2256
-10.2368
-10.248
-10.2589
-10.2696
-10.2801
-10.2904
-10.3005
-10.3103
-10.3198
-10.0452
-10.0453
-10.0457
-10.0466
-10.0483
-10.051
-10.0549
-10.0599
-10.0661
-10.0733
-10.0814
-10.0904
-10.0999
-10.11
-10.1205
-10.1314
-10.1424
-10.1536
-10.1649
-10.1762
-10.1875
-10.1987
-10.2098
-10.2208
-10.2317
-10.2423
-10.2528
-10.2631
-10.2732
-10.283
-10.2925
-10.3018
-10.3108
-10.0502
-10.0503
-10.0505
-10.0511
-10.0523
-10.0545
-10.0578
-10.0623
-10.0678
-10.0745
-10.082
-10.0904
-10.0995
-10.1091
-10.1191
-10.1295
-10.1401
-10.1509
-10.1618
-10.1727
-10.1836
-10.1944
-10.2051
-10.2158
-10.2262
-10.2365
-10.2465
-10.2564
-10.266
-10.2753
-10.2844
-10.2932
-10.3017
-10.0553
-10.0554
-10.0553
-10.0553
-10.056
-10.0575
-10.0602
-10.064
-10.0689
-10.075
-10.082
-10.0899
-10.0984
-10.1076
-10.1172
-10.1272
-10.1374
-10.1478
-10.1583
-10.1689
-10.1794
-10.1899
-10.2002
-10.2104
-10.2205
-10.2304
-10.24
-10.2494
-10.2586
-10.2675
-10.2761
-10.2844
-10.2924
-10.0606
-10.0606
-10.0601
-10.0594
-10.0592
-10.06
-10.0619
-10.065
-10.0694
-10.0748
-10.0813
-10.0887
-10.0968
-10.1055
-10.1148
-10.1244
-10.1343
-10.1443
-10.1545
-10.1647
-10.1749
-10.185
-10.195
-10.2049
-10.2146
-10.224
-10.2333
-10.2423
-10.2511
-10.2595
-10.2677
-10.2756
-10.2831
-10.0662
-10.0662
-10.065
-10.0633
-10.0621
-10.0619
-10.063
-10.0653
-10.069
-10.0738
-10.0798
-10.0868
-10.0945
-10.1029
-10.1118
-10.121
-10.1306
-10.1404
-10.1502
-10.1601
-10.17
-10.1798
-10.1895
-10.199
-10.2084
-10.2175
-10.2264
-10.235
-10.2433
-10.2514
-10.2591
-10.2666
-10.2737
-10.0724
-10.0724
-10.0702
-10.0671
-10.0646
-10.0632
-10.0632
-10.0647
-10.0677
-10.072
-10.0775
-10.084
-10.0914
-10.0995
-10.1081
-10.1171
-10.1264
-10.1359
-10.1455
-10.1552
-10.1648
-10.1743
-10.1837
-10.1929
-10.2019
-10.2107
-10.2192
-10.2275
-10.2354
-10.2431
-10.2505
-10.2575
-10.2642
-10.0797
-10.0796
-10.0759
-10.0708
-10.0665
-10.0637
-10.0625
-10.063
-10.0653
-10.069
-10.0741
-10.0803
-10.0874
-10.0953
-10.1037
-10.1125
-10.1216
-10.1309
-10.1403
-10.1497
-10.159
-10.1683
-10.1774
-10.1864
-10.1951
-10.2036
-10.2118
-10.2197
-10.2273
-10.2346
-10.2416
-10.2483
-10.2546
-10.0889
-10.0885
-10.0823
-10.0744
-10.0678
-10.0631
-10.0605
-10.06
-10.0615
-10.0648
-10.0695
-10.0755
-10.0824
-10.0901
-10.0983
-10.107
-10.116
-10.1251
-10.1343
-10.1436
-10.1527
-10.1618
-10.1707
-10.1794
-10.1878
-10.196
-10.204
-10.2116
-10.2189
-10.2259
-10.2326
-10.2389
-10.2449
-10.1014
-10.1001
-10.0899
-10.0779
-10.0682
-10.0611
-10.0569
-10.0553
-10.0562
-10.059
-10.0635
-10.0693
-10.0761
-10.0837
-10.0919
-10.1005
-10.1094
-10.1184
-10.1276
-10.1367
-10.1457
-10.1546
-10.1633
-10.1718
-10.1801
-10.188
-10.1957
-10.2031
-10.2102
-10.2169
-10.2232
-10.2293
-10.235
-10.1196
-10.1159
-10.0987
-10.0807
-10.0671
-10.0572
-10.0511
-10.0485
-10.0487
-10.0512
-10.0555
-10.0613
-10.0681
-10.0757
-10.084
-10.0926
-10.1015
-10.1106
-10.1197
-10.1287
-10.1377
-10.1465
-10.1551
-10.1635
-10.1716
-10.1794
-10.1869
-10.1941
-10.2009
-10.2074
-10.2136
-10.2194
-10.2248
-10.15
-10.1387
-10.1082
-10.0814
-10.0629
-10.0499
-10.042
-10.0385
-10.0384
-10.0407
-10.045
-10.0509
-10.0578
-10.0656
-10.074
-10.0828
-10.0918
-10.1009
-10.1101
-10.1192
-10.1282
-10.137
-10.1456
-10.1539
-10.162
-10.1697
-10.1771
-10.1842
-10.191
-10.1974
-10.2034
-10.2091
-10.2143
-10.205
-10.1766
-10.1215
-10.0807
-10.0545
-10.0368
-10.0269
-10.0229
-10.0229
-10.0256
-10.0306
-10.0371
-10.0448
-10.0532
-10.0622
-10.0715
-10.0809
-10.0904
-10.0998
-10.1091
-10.1183
-10.1272
-10.1358
-10.1442
-10.1523
-10.16
-10.1673
-10.1743
-10.181
-10.1873
-10.1932
-10.1987
-10.2038
-10.288
-10.2249
-10.1403
-10.0868
-10.0481
-10.02
-10.0049
-9.99835
-9.99659
-9.99849
-10.0034
-10.0105
-10.0189
-10.0284
-10.0384
-10.0489
-10.0595
-10.0701
-10.0806
-10.0909
-10.101
-10.1108
-10.1203
-10.1294
-10.1381
-10.1464
-10.1544
-10.1619
-10.169
-10.1756
-10.1819
-10.1877
-10.193
-10.4382
-10.2047
-10.0753
-10.062
-10.0472
-10.0297
-10.0238
-10.0233
-10.0236
-10.0251
-10.0283
-10.033
-10.0386
-10.045
-10.0521
-10.0597
-10.0677
-10.0759
-10.0843
-10.0927
-10.101
-10.1092
-10.1173
-10.1252
-10.1328
-10.1401
-10.1472
-10.1539
-10.1603
-10.1664
-10.1721
-10.1775
-10.1825
-11.3945
-10.1713
-9.58096
-9.50168
-9.51482
-9.55243
-9.60793
-9.66387
-9.71453
-9.76121
-9.8042
-9.84301
-9.87774
-9.90889
-9.93694
-9.96226
-9.98519
-10.006
-10.025
-10.0424
-10.0584
-10.0731
-10.0867
-10.0992
-10.1108
-10.1216
-10.1315
-10.1407
-10.1492
-10.157
-10.1642
-10.1707
-10.1766
-15.1636
-12.9607
-11.9295
-11.2932
-10.8661
-10.6153
-10.4534
-10.3303
-10.238
-10.1737
-10.1301
-10.1006
-10.0812
-10.0694
-10.0634
-10.0615
-10.0627
-10.066
-10.0708
-10.0768
-10.0835
-10.0907
-10.0981
-10.1057
-10.1132
-10.1206
-10.1278
-10.1348
-10.1415
-10.1479
-10.154
-10.1599
-10.1654
-1.24988
-5.34254
-7.46635
-8.23887
-8.67769
-9.04141
-9.30757
-9.48382
-9.60789
-9.70378
-9.77929
-9.83826
-9.88499
-9.92316
-9.95508
-9.98221
-10.0056
-10.026
-10.0442
-10.0604
-10.0751
-10.0884
-10.1006
-10.1119
-10.1222
-10.1317
-10.1406
-10.1487
-10.1562
-10.1632
-10.1695
-10.1753
-10.1806
-10.35
-10.1325
-10.421
-10.6901
-10.7941
-10.8263
-10.8374
-10.8347
-10.8246
-10.8167
-10.8177
-10.8309
-10.8573
-10.8965
-10.9468
-11.0054
-11.0696
-11.1363
-11.2028
-11.2667
-11.3258
-11.3785
-11.4235
-11.4598
-11.4868
-11.5041
-11.5115
-11.509
-11.4966
-11.4743
-11.4422
-11.4002
-11.3484
-11.2866
-11.2149
-11.133
-11.0409
-10.9382
-10.8249
-10.7006
-10.5652
-10.4185
-10.2602
-10.0902
-9.90832
-9.71454
-9.50886
-9.2914
-9.06238
-8.82211
-8.57105
-8.30977
-8.039
-7.75957
-7.47246
-7.17877
-6.87969
-6.57654
-6.27068
-5.96356
-5.65662
-5.35135
-5.04917
-4.7515
-4.45963
-4.17481
-3.89814
-3.63059
-3.373
-3.12604
-2.89025
-2.66599
-2.4535
-2.25289
-2.06414
-1.88711
-1.72158
-1.56723
-1.42363
-1.29035
-1.16688
-1.05268
-0.947215
-0.849932
-0.760288
-0.677754
-0.601818
-0.531998
-0.467819
-0.408875
-0.354684
-0.305009
-0.259119
-0.217422
-0.177778
-0.14358
-0.106045
-0.0824517
-0.0341141
-0.0420789
-10.3962
-10.3941
-10.5879
-10.7327
-10.7645
-10.7584
-10.7505
-10.7408
-10.7317
-10.7298
-10.7393
-10.7614
-10.7956
-10.8409
-10.8953
-10.9565
-11.0221
-11.0893
-11.1558
-11.2194
-11.2781
-11.3303
-11.3749
-11.4108
-11.4376
-11.4547
-11.4621
-11.4596
-11.4473
-11.4251
-11.393
-11.3512
-11.2995
-11.2379
-11.1664
-11.0847
-10.9928
-10.8904
-10.7774
-10.6535
-10.5186
-10.3724
-10.2148
-10.0456
-9.86468
-9.67201
-9.46762
-9.25164
-9.02427
-8.78585
-8.53683
-8.27777
-8.00939
-7.73251
-7.44808
-7.15718
-6.86098
-6.56074
-6.25782
-5.95361
-5.64953
-5.34702
-5.04748
-4.75228
-4.46273
-4.18001
-3.90523
-3.63935
-3.38319
-3.13744
-2.90262
-2.67913
-2.4672
-2.26696
-2.0784
-1.90141
-1.73577
-1.58117
-1.43724
-1.30353
-1.17955
-1.06478
-0.958711
-0.860787
-0.770479
-0.687266
-0.610642
-0.54013
-0.475257
-0.41562
-0.360734
-0.310372
-0.263776
-0.221417
-0.181003
-0.146307
-0.107653
-0.0845721
-0.0330479
-0.0472344
-10.4086
-10.4226
-10.5094
-10.6105
-10.6671
-10.6956
-10.7146
-10.7247
-10.728
-10.7311
-10.7394
-10.7558
-10.782
-10.8182
-10.8639
-10.9176
-10.9772
-11.04
-11.1036
-11.1652
-11.2228
-11.2744
-11.3187
-11.3546
-11.3814
-11.3987
-11.4063
-11.4041
-11.3921
-11.3702
-11.3385
-11.297
-11.2457
-11.1844
-11.1132
-11.0319
-10.9404
-10.8385
-10.726
-10.6027
-10.4685
-10.323
-10.1663
-9.99812
-9.81837
-9.62703
-9.42414
-9.20983
-8.98433
-8.74796
-8.50118
-8.24453
-7.97873
-7.70457
-7.42298
-7.13502
-6.84183
-6.54464
-6.24477
-5.94357
-5.64245
-5.34279
-5.04597
-4.75334
-4.46616
-4.18562
-3.9128
-3.64865
-3.39399
-3.14949
-2.91571
-2.69302
-2.48168
-2.28184
-2.09349
-1.91654
-1.75079
-1.59595
-1.45166
-1.31749
-1.19298
-1.07762
-0.970903
-0.872299
-0.781286
-0.697351
-0.619994
-0.548745
-0.483132
-0.422757
-0.367132
-0.31604
-0.268698
-0.225631
-0.18442
-0.149166
-0.109416
-0.0867083
-0.0322001
-0.0521498
-10.4124
-10.4365
-10.5041
-10.5976
-10.6609
-10.6906
-10.7051
-10.7118
-10.7142
-10.7175
-10.7266
-10.7439
-10.7703
-10.8057
-10.8492
-10.8993
-10.954
-11.0111
-11.0686
-11.1244
-11.1767
-11.224
-11.2648
-11.2983
-11.3234
-11.3398
-11.3469
-11.3446
-11.3326
-11.311
-11.2796
-11.2385
-11.1876
-11.1268
-11.0561
-10.9754
-10.8844
-10.7831
-10.6712
-10.5487
-10.4153
-10.2708
-10.1151
-9.94808
-9.76966
-9.57981
-9.37858
-9.16612
-8.94264
-8.70848
-8.46408
-8.21
-7.9469
-7.67559
-7.39697
-7.11206
-6.82199
-6.52795
-6.23123
-5.93315
-5.63507
-5.33835
-5.04435
-4.75438
-4.46967
-4.1914
-3.92062
-3.65828
-3.40519
-3.16203
-2.92934
-2.70752
-2.49683
-2.29742
-2.10932
-1.93243
-1.76659
-1.61151
-1.46686
-1.33223
-1.20717
-1.09119
-0.983802
-0.884485
-0.792728
-0.70803
-0.629898
-0.557867
-0.49147
-0.430312
-0.373904
-0.322035
-0.273907
-0.230087
-0.188048
-0.152183
-0.111336
-0.0888998
-0.0315358
-0.0568719
-10.4164
-10.4472
-10.5032
-10.5754
-10.6282
-10.6563
-10.6733
-10.6855
-10.6946
-10.7037
-10.7166
-10.7355
-10.7615
-10.7947
-10.8347
-10.8805
-10.9304
-10.9828
-11.0357
-11.0872
-11.1355
-11.179
-11.2166
-11.2471
-11.2698
-11.2841
-11.2896
-11.286
-11.2732
-11.251
-11.2194
-11.1782
-11.1274
-11.0669
-10.9965
-10.9161
-10.8257
-10.725
-10.6138
-10.492
-10.3595
-10.216
-10.0615
-9.89572
-9.71872
-9.53047
-9.33101
-9.12049
-8.89913
-8.66728
-8.42536
-8.17392
-7.91362
-7.64525
-7.36969
-7.08793
-6.80106
-6.51027
-6.21679
-5.92193
-5.62699
-5.33333
-5.04225
-4.75504
-4.47291
-4.19702
-3.9284
-3.66798
-3.41657
-3.17484
-2.94334
-2.72247
-2.5125
-2.31359
-2.12578
-1.94901
-1.7831
-1.62781
-1.48281
-1.34771
-1.22209
-1.10549
-0.9974
-0.89734
-0.804808
-0.719311
-0.640364
-0.56751
-0.500286
-0.438301
-0.381066
-0.328376
-0.279419
-0.234801
-0.191901
-0.15537
-0.113429
-0.0911489
-0.0310791
-0.0613515
-10.4193
-10.4514
-10.4983
-10.5556
-10.6028
-10.6333
-10.654
-10.6696
-10.6818
-10.6934
-10.7075
-10.7265
-10.7514
-10.7825
-10.8195
-10.8616
-10.9073
-10.9552
-11.0035
-11.0505
-11.0947
-11.1344
-11.1687
-11.1963
-11.2166
-11.229
-11.2329
-11.228
-11.2142
-11.1913
-11.1591
-11.1175
-11.0665
-11.0059
-10.9355
-10.8554
-10.7653
-10.665
-10.5544
-10.4333
-10.3016
-10.1591
-10.0056
-9.84115
-9.66559
-9.47894
-9.28128
-9.07274
-8.85355
-8.62405
-8.38467
-8.13594
-7.87852
-7.61316
-7.34073
-7.0622
-6.77863
-6.49118
-6.20106
-5.90952
-5.61785
-5.32736
-5.03933
-4.75501
-4.4756
-4.20222
-3.93588
-3.67751
-3.4279
-3.18773
-2.95752
-2.7377
-2.52854
-2.33021
-2.14276
-1.96615
-1.80023
-1.64475
-1.49943
-1.36388
-1.23771
-1.12046
-1.01167
-0.91085
-0.817517
-0.73119
-0.651394
-0.577679
-0.509589
-0.446735
-0.388631
-0.335076
-0.285249
-0.239787
-0.195994
-0.158739
-0.115711
-0.0934523
-0.0308616
-0.0655264
-10.4205
-10.4519
-10.4927
-10.5403
-10.5825
-10.613
-10.635
-10.6524
-10.6669
-10.6807
-10.6964
-10.716
-10.7403
-10.7698
-10.8043
-10.843
-10.8848
-10.9284
-10.9723
-11.0149
-11.0549
-11.0908
-11.1215
-11.1461
-11.1638
-11.1739
-11.1759
-11.1696
-11.1546
-11.1307
-11.0978
-11.0557
-11.0043
-10.9435
-10.8731
-10.7931
-10.7031
-10.6032
-10.493
-10.3726
-10.2416
-10.1
-9.94758
-9.78433
-9.61017
-9.42512
-9.22925
-9.0227
-8.8057
-8.57859
-8.34179
-8.09582
-7.84133
-7.57905
-7.30983
-7.03462
-6.75446
-6.47046
-6.1838
-5.8957
-5.60743
-5.32025
-5.03541
-4.75412
-4.47756
-4.20683
-3.94291
-3.68672
-3.43904
-3.20053
-2.97174
-2.75307
-2.54481
-2.34715
-2.16015
-1.98377
-1.81788
-1.66227
-1.51665
-1.38068
-1.25397
-1.13609
-1.02658
-0.924989
-0.830836
-0.743655
-0.662982
-0.588374
-0.51938
-0.45562
-0.396606
-0.342145
-0.291409
-0.245056
-0.200339
-0.162299
-0.118195
-0.0958092
-0.030909
-0.0693442
-10.4204
-10.4505
-10.4867
-10.5274
-10.5649
-10.5943
-10.6171
-10.6359
-10.6522
-10.6678
-10.6848
-10.7046
-10.7283
-10.7563
-10.7883
-10.8239
-10.862
-10.9016
-10.9414
-10.9799
-11.0159
-11.0481
-11.0754
-11.0969
-11.1118
-11.1195
-11.1195
-11.1114
-11.095
-11.0699
-11.036
-10.9932
-10.9413
-10.8801
-10.8095
-10.7293
-10.6395
-10.5397
-10.4299
-10.31
-10.1797
-10.0389
-9.88747
-9.72541
-9.55263
-9.36916
-9.17506
-8.9705
-8.75571
-8.53101
-8.29682
-8.05365
-7.80214
-7.54301
-7.27709
-7.00529
-6.72862
-6.44817
-6.16508
-5.88054
-5.59578
-5.31202
-5.03049
-4.75237
-4.47879
-4.21082
-3.94945
-3.69556
-3.44993
-3.2132
-2.98592
-2.76851
-2.56125
-2.36434
-2.17785
-2.00177
-1.83598
-1.68028
-1.53441
-1.39804
-1.27081
-1.15231
-1.0421
-0.939726
-0.844742
-0.756689
-0.675115
-0.599585
-0.529658
-0.464956
-0.404996
-0.349589
-0.297905
-0.250617
-0.204946
-0.16606
-0.120893
-0.0982194
-0.0312409
-0.0727603
-10.4193
-10.4478
-10.4804
-10.5159
-10.5494
-10.5775
-10.6005
-10.6202
-10.6377
-10.6545
-10.6722
-10.6922
-10.7152
-10.7416
-10.7714
-10.8041
-10.8389
-10.8748
-10.9106
-10.9452
-10.9774
-11.0059
-11.0298
-11.0483
-11.0604
-11.0657
-11.0636
-11.0537
-11.0357
-11.0093
-10.9743
-10.9306
-10.8779
-10.8162
-10.7452
-10.6649
-10.5749
-10.4753
-10.3657
-10.2462
-10.1164
-9.97638
-9.82592
-9.66499
-9.49354
-9.3116
-9.11927
-8.91668
-8.70409
-8.48181
-8.25024
-8.00992
-7.76143
-7.50549
-7.2429
-6.97457
-6.70146
-6.42463
-6.14519
-5.8643
-5.58314
-5.3029
-5.02477
-4.74991
-4.47941
-4.21431
-3.95559
-3.7041
-3.4606
-3.22575
-3.00008
-2.78401
-2.57783
-2.38174
-2.19584
-2.02012
-1.85447
-1.69873
-1.55265
-1.41592
-1.2882
-1.16909
-1.05817
-0.955025
-0.859204
-0.770268
-0.687775
-0.611301
-0.540413
-0.474737
-0.413799
-0.357409
-0.304742
-0.256476
-0.209823
-0.170027
-0.123812
-0.100683
-0.0318719
-0.0757382
-10.4173
-10.4441
-10.4738
-10.5053
-10.5355
-10.5621
-10.5849
-10.605
-10.6232
-10.6408
-10.659
-10.6788
-10.7011
-10.726
-10.7536
-10.7836
-10.8152
-10.8476
-10.8797
-10.9106
-10.9391
-10.9641
-10.9847
-11.0001
-11.0095
-11.0124
-11.0081
-10.9963
-10.9767
-10.9489
-10.9128
-10.8681
-10.8146
-10.7523
-10.6808
-10.6002
-10.5101
-10.4104
-10.301
-10.1818
-10.0526
-9.9132
-9.76362
-9.60376
-9.43359
-9.25316
-9.06256
-8.86193
-8.65152
-8.43164
-8.20271
-7.96522
-7.71976
-7.46704
-7.20782
-6.94298
-6.67346
-6.4003
-6.12456
-5.84736
-5.56985
-5.29319
-5.01853
-4.74698
-4.47963
-4.21748
-3.96147
-3.71245
-3.47117
-3.23826
-3.01427
-2.7996
-2.59456
-2.39937
-2.21411
-2.03879
-1.87334
-1.7176
-1.57135
-1.43428
-1.30608
-1.18638
-1.07478
-0.970856
-0.874195
-0.784367
-0.700941
-0.623505
-0.551632
-0.484957
-0.42301
-0.365603
-0.31192
-0.262637
-0.214974
-0.174206
-0.12696
-0.1032
-0.032811
-0.0782501
-10.4145
-10.4396
-10.4668
-10.4952
-10.5228
-10.5478
-10.5701
-10.5901
-10.6087
-10.6266
-10.645
-10.6645
-10.6859
-10.7094
-10.735
-10.7624
-10.7909
-10.82
-10.8487
-10.8759
-10.9009
-10.9225
-10.9399
-10.9523
-10.959
-10.9594
-10.953
-10.9393
-10.918
-10.8888
-10.8514
-10.8057
-10.7514
-10.6884
-10.6164
-10.5354
-10.4451
-10.3454
-10.2362
-10.1172
-9.98846
-9.84975
-9.70101
-9.5422
-9.3733
-9.19435
-9.00545
-8.80676
-8.59852
-8.38104
-8.15473
-7.92007
-7.67765
-7.42814
-7.17229
-6.91095
-6.64505
-6.37556
-6.10354
-5.83006
-5.55623
-5.28319
-5.01202
-4.74384
-4.47967
-4.2205
-3.96726
-3.72076
-3.48174
-3.25083
-3.02856
-2.81535
-2.61151
-2.41724
-2.23267
-2.05781
-1.89259
-1.73688
-1.59048
-1.4531
-1.32445
-1.20417
-1.09188
-0.987193
-0.88969
-0.798963
-0.714593
-0.636178
-0.563302
-0.495603
-0.432621
-0.374167
-0.319438
-0.269098
-0.220401
-0.1786
-0.130339
-0.10577
-0.0340606
-0.0802783
-10.4109
-10.4345
-10.4596
-10.4854
-10.5107
-10.5343
-10.5558
-10.5755
-10.5941
-10.6121
-10.6303
-10.6494
-10.6699
-10.6919
-10.7155
-10.7404
-10.7661
-10.792
-10.8173
-10.8412
-10.8627
-10.881
-10.8953
-10.9048
-10.9088
-10.9067
-10.8981
-10.8825
-10.8595
-10.8288
-10.7902
-10.7434
-10.6883
-10.6245
-10.552
-10.4706
-10.3801
-10.2804
-10.1713
-10.0526
-9.9243
-9.78624
-9.63834
-9.48058
-9.31294
-9.13547
-8.94828
-8.75152
-8.54545
-8.33037
-8.10667
-7.87484
-7.63545
-7.38915
-7.13667
-6.87884
-6.61654
-6.35074
-6.08244
-5.81268
-5.54255
-5.27312
-5.00548
-4.74067
-4.47971
-4.22356
-3.97311
-3.72916
-3.49244
-3.26356
-3.04305
-2.83133
-2.62872
-2.43542
-2.25156
-2.07718
-1.91223
-1.75658
-1.61004
-1.47238
-1.34328
-1.22244
-1.10947
-1.00402
-0.90567
-0.814038
-0.728714
-0.649306
-0.575407
-0.506664
-0.442623
-0.383094
-0.327291
-0.275858
-0.226102
-0.183208
-0.133949
-0.108392
-0.0356169
-0.0818155
-10.4066
-10.4287
-10.452
-10.4757
-10.499
-10.5212
-10.5418
-10.5611
-10.5794
-10.5972
-10.615
-10.6335
-10.6529
-10.6734
-10.6951
-10.7176
-10.7407
-10.7636
-10.7857
-10.8063
-10.8246
-10.8397
-10.8509
-10.8575
-10.8589
-10.8544
-10.8435
-10.826
-10.8013
-10.7691
-10.7292
-10.6813
-10.6253
-10.5608
-10.4878
-10.406
-10.3153
-10.2155
-10.1065
-9.98809
-9.86025
-9.72284
-9.57579
-9.41908
-9.25271
-9.07673
-8.89125
-8.69644
-8.49254
-8.27985
-8.05877
-7.82978
-7.59341
-7.35031
-7.1012
-6.84687
-6.58818
-6.32605
-6.06147
-5.79544
-5.529
-5.2632
-4.99907
-4.73765
-4.47991
-4.22679
-3.97914
-3.73776
-3.50336
-3.27654
-3.05782
-2.84761
-2.64625
-2.45394
-2.27082
-2.09695
-1.93227
-1.7767
-1.63005
-1.49211
-1.36258
-1.24118
-1.12754
-1.02132
-0.922122
-0.829577
-0.743288
-0.662874
-0.587936
-0.518128
-0.453005
-0.392375
-0.335472
-0.282913
-0.232076
-0.188031
-0.137788
-0.111067
-0.0374702
-0.0828652
-10.4015
-10.4224
-10.444
-10.4659
-10.4876
-10.5084
-10.528
-10.5467
-10.5645
-10.5819
-10.5992
-10.6168
-10.6351
-10.6542
-10.6739
-10.6942
-10.7146
-10.7347
-10.7538
-10.7713
-10.7864
-10.7985
-10.8067
-10.8105
-10.8093
-10.8024
-10.7894
-10.7698
-10.7434
-10.7097
-10.6685
-10.6196
-10.5626
-10.4974
-10.4238
-10.3416
-10.2506
-10.1508
-10.0419
-9.92381
-9.79644
-9.6597
-9.51352
-9.35787
-9.19278
-9.0183
-8.83455
-8.64169
-8.43997
-8.22968
-8.01123
-7.78506
-7.55172
-7.31183
-7.06607
-6.81523
-6.56014
-6.30168
-6.04081
-5.77849
-5.51573
-5.25355
-4.99295
-4.73491
-4.4804
-4.2303
-3.98547
-3.74667
-3.51459
-3.28984
-3.07292
-2.86425
-2.66415
-2.47284
-2.29049
-2.11713
-1.95275
-1.79727
-1.65052
-1.5123
-1.38235
-1.26039
-1.14608
-1.03908
-0.939037
-0.84557
-0.758306
-0.676871
-0.600878
-0.529985
-0.46376
-0.402004
-0.343977
-0.290259
-0.238318
-0.193065
-0.141852
-0.113795
-0.0396047
-0.0834418
-10.3958
-10.4154
-10.4356
-10.4559
-10.4761
-10.4956
-10.5143
-10.5322
-10.5494
-10.5661
-10.5827
-10.5995
-10.6166
-10.6341
-10.652
-10.6701
-10.6881
-10.7055
-10.7217
-10.7362
-10.7483
-10.7574
-10.7628
-10.7639
-10.76
-10.7508
-10.7357
-10.7142
-10.686
-10.6508
-10.6083
-10.5582
-10.5003
-10.4344
-10.3602
-10.2776
-10.1864
-10.0865
-9.97772
-9.85994
-9.73306
-9.59699
-9.45169
-9.29713
-9.13333
-8.96037
-8.77835
-8.58745
-8.38792
-8.18004
-7.96421
-7.74087
-7.51056
-7.27386
-7.03146
-6.7841
-6.53259
-6.27778
-6.0206
-5.76199
-5.5029
-5.24432
-4.98723
-4.73257
-4.48126
-4.23419
-3.99217
-3.75595
-3.5262
-3.30352
-3.08841
-2.88128
-2.68246
-2.49217
-2.31058
-2.13775
-1.97368
-1.81829
-1.67145
-1.53296
-1.40259
-1.28007
-1.16508
-1.05731
-0.956407
-0.862011
-0.773758
-0.691288
-0.614223
-0.542228
-0.474878
-0.411973
-0.352798
-0.29789
-0.244824
-0.198309
-0.146134
-0.116576
-0.0419999
-0.0835691
-10.3894
-10.4078
-10.4267
-10.4457
-10.4645
-10.4829
-10.5005
-10.5176
-10.534
-10.55
-10.5658
-10.5815
-10.5974
-10.6134
-10.6295
-10.6455
-10.6611
-10.6759
-10.6894
-10.701
-10.7103
-10.7166
-10.7192
-10.7176
-10.7113
-10.6998
-10.6825
-10.6591
-10.6292
-10.5925
-10.5487
-10.4975
-10.4386
-10.3719
-10.2972
-10.2142
-10.1228
-10.0228
-9.91415
-9.79667
-9.67029
-9.53491
-9.3905
-9.23704
-9.07455
-8.90312
-8.72285
-8.53392
-8.33658
-8.13112
-7.91791
-7.6974
-7.4701
-7.23659
-6.99752
-6.75363
-6.50568
-6.25451
-6.001
-5.74607
-5.49063
-5.23564
-4.98203
-4.73073
-4.48262
-4.23856
-3.99934
-3.76569
-3.53827
-3.31766
-3.10435
-2.89876
-2.70122
-2.51196
-2.33113
-2.15884
-1.99507
-1.83978
-1.69284
-1.55409
-1.4233
-1.30022
-1.18456
-1.076
-0.974228
-0.87889
-0.789637
-0.706117
-0.627964
-0.554846
-0.486352
-0.422276
-0.361929
-0.305802
-0.251588
-0.203758
-0.150628
-0.119412
-0.044631
-0.0832798
-10.3823
-10.3997
-10.4174
-10.4352
-10.4528
-10.47
-10.4867
-10.5028
-10.5183
-10.5335
-10.5483
-10.563
-10.5776
-10.5921
-10.6064
-10.6203
-10.6337
-10.646
-10.6569
-10.6659
-10.6724
-10.676
-10.676
-10.6718
-10.6631
-10.6493
-10.63
-10.6047
-10.5732
-10.535
-10.4898
-10.4375
-10.3777
-10.3102
-10.2349
-10.1515
-10.0599
-9.95989
-9.85137
-9.73422
-9.60834
-9.47367
-9.33016
-9.17781
-9.01665
-8.84676
-8.66825
-8.4813
-8.28615
-8.0831
-7.87252
-7.65483
-7.43053
-7.20019
-6.96444
-6.72399
-6.47958
-6.23202
-5.98216
-5.73087
-5.47905
-5.22762
-4.97747
-4.72949
-4.48456
-4.24349
-4.00705
-3.77596
-3.55085
-3.3323
-3.12079
-2.91674
-2.72047
-2.53222
-2.35217
-2.1804
-2.01694
-1.86175
-1.71472
-1.5757
-1.44448
-1.32083
-1.20448
-1.09514
-0.992489
-0.8962
-0.805932
-0.721348
-0.642089
-0.567832
-0.498174
-0.432903
-0.371362
-0.313988
-0.258604
-0.209411
-0.155323
-0.122305
-0.0474696
-0.0826137
-10.3747
-10.3912
-10.4078
-10.4244
-10.4408
-10.4569
-10.4726
-10.4878
-10.5024
-10.5166
-10.5305
-10.544
-10.5573
-10.5703
-10.5828
-10.5948
-10.606
-10.616
-10.6244
-10.6308
-10.6348
-10.6357
-10.6332
-10.6267
-10.6156
-10.5997
-10.5783
-10.5512
-10.518
-10.4783
-10.4319
-10.3785
-10.3177
-10.2495
-10.1736
-10.0899
-9.99803
-9.89799
-9.78962
-9.6728
-9.54745
-9.4135
-9.27091
-9.11969
-8.95986
-8.79151
-8.61477
-8.4298
-8.23685
-8.03622
-7.82824
-7.61336
-7.39204
-7.16486
-6.93241
-6.69537
-6.45447
-6.21048
-5.96423
-5.71655
-5.46831
-5.22039
-4.97367
-4.72899
-4.4872
-4.24908
-4.0154
-3.78683
-3.56401
-3.3475
-3.13778
-2.93524
-2.74023
-2.553
-2.3737
-2.20246
-2.0393
-1.8842
-1.73707
-1.59777
-1.46612
-1.34191
-1.22486
-1.11472
-1.01118
-0.913927
-0.822632
-0.736968
-0.656588
-0.581172
-0.510331
-0.443845
-0.381088
-0.32244
-0.265863
-0.21526
-0.160209
-0.125256
-0.0504847
-0.0816157
-10.3666
-10.3821
-10.3977
-10.4133
-10.4287
-10.4437
-10.4584
-10.4726
-10.4863
-10.4995
-10.5123
-10.5247
-10.5366
-10.548
-10.5589
-10.569
-10.5781
-10.5859
-10.592
-10.596
-10.5975
-10.596
-10.591
-10.5822
-10.5689
-10.5509
-10.5276
-10.4987
-10.4639
-10.4228
-10.3751
-10.3206
-10.2589
-10.19
-10.1136
-10.0294
-9.93738
-9.83733
-9.72913
-9.61266
-9.48785
-9.35463
-9.21298
-9.06289
-8.90441
-8.73762
-8.56264
-8.37966
-8.18891
-7.99067
-7.7853
-7.57321
-7.35486
-7.13079
-6.90161
-6.66795
-6.43052
-6.19006
-5.94737
-5.70326
-5.45855
-5.21411
-4.97075
-4.72933
-4.49063
-4.25543
-4.02446
-3.79839
-3.57783
-3.36333
-3.15536
-2.95433
-2.76056
-2.57431
-2.39577
-2.22504
-2.06217
-1.90715
-1.7599
-1.62032
-1.48823
-1.36343
-1.24568
-1.13473
-1.03029
-0.932058
-0.839722
-0.752963
-0.671445
-0.594854
-0.522811
-0.45509
-0.391096
-0.331147
-0.273355
-0.221299
-0.165271
-0.128268
-0.053643
-0.0803337
-10.3581
-10.3727
-10.3874
-10.4019
-10.4163
-10.4303
-10.444
-10.4572
-10.4699
-10.4821
-10.4938
-10.505
-10.5156
-10.5255
-10.5347
-10.543
-10.5501
-10.5558
-10.5597
-10.5614
-10.5606