/*--------------------------------*- C++ -*----------------------------------*\
| =========                 |                                                 |
| \\      /  F ield         | OpenFOAM: The Open Source CFD Toolbox           |
|  \\    /   O peration     | Version:  4.1                                   |
|   \\  /    A nd           | Web:      www.OpenFOAM.org                      |
|    \\/     M anipulation  |                                                 |
\*---------------------------------------------------------------------------*/
FoamFile
{
    version     2.0;
    format      ascii;
    class       surfaceScalarField;
    location    "1000";
    object      phi;
}
// * * * * * * * * * * * * * * * * * * * * * * * * * * * * * * * * * * * * * //

dimensions      [0 3 -1 0 0 0 0];

internalField   nonuniform List<scalar> 
13452
(
6.28704e-05
-2.60189e-06
6.37403e-05
-8.69977e-07
6.46286e-05
-8.88283e-07
6.4105e-05
5.23569e-07
6.28898e-05
1.21528e-06
6.15445e-05
1.34522e-06
6.02725e-05
1.27201e-06
5.9114e-05
1.15859e-06
5.80687e-05
1.04526e-06
5.71284e-05
9.40317e-07
5.62816e-05
8.46806e-07
5.55162e-05
7.65364e-07
5.48214e-05
6.94764e-07
5.41882e-05
6.33217e-07
5.3609e-05
5.79175e-07
5.30776e-05
5.31441e-07
5.25886e-05
4.89053e-07
5.21373e-05
4.51221e-07
5.172e-05
4.17299e-07
5.13333e-05
3.86764e-07
5.09741e-05
3.59191e-07
5.06398e-05
3.34228e-07
5.03283e-05
3.11588e-07
5.00372e-05
2.91041e-07
4.97648e-05
2.7241e-07
4.95092e-05
2.55574e-07
4.92688e-05
2.40484e-07
4.90416e-05
2.27156e-07
4.88257e-05
2.15861e-07
4.86192e-05
2.06508e-07
4.84186e-05
2.00615e-07
4.82281e-05
1.90506e-07
1.789e-07
4.80492e-05
6.30682e-05
-3.67972e-06
6.27994e-05
-6.01194e-07
6.21233e-05
-2.12204e-07
6.23359e-05
3.10957e-07
6.27935e-05
7.57655e-07
6.31929e-05
9.45849e-07
6.34611e-05
1.0038e-06
6.36058e-05
1.01393e-06
6.36526e-05
9.98455e-07
6.36273e-05
9.65569e-07
6.35508e-05
9.2334e-07
6.34383e-05
8.77859e-07
6.33009e-05
8.322e-07
6.31464e-05
7.87652e-07
6.29808e-05
7.44865e-07
6.2808e-05
7.04209e-07
6.26312e-05
6.65839e-07
6.24527e-05
6.29763e-07
6.2274e-05
5.95914e-07
6.20966e-05
5.64199e-07
6.19213e-05
5.34512e-07
6.17488e-05
5.06744e-07
6.15796e-05
4.80793e-07
6.1414e-05
4.56572e-07
6.12524e-05
4.34014e-07
6.10949e-05
4.13082e-07
6.09416e-05
3.93794e-07
6.07926e-05
3.76168e-07
6.0648e-05
3.6049e-07
6.05082e-05
3.46336e-07
6.03733e-05
3.35488e-07
6.02418e-05
3.22026e-07
3.32304e-07
6.00884e-05
6.23306e-05
-2.24887e-06
6.26619e-05
-9.3255e-07
6.281e-05
-3.60286e-07
6.30954e-05
2.55513e-08
6.34246e-05
4.28511e-07
6.37126e-05
6.5784e-07
6.39516e-05
7.64737e-07
6.41451e-05
8.20437e-07
6.42964e-05
8.472e-07
6.44106e-05
8.51311e-07
6.4494e-05
8.39987e-07
6.4552e-05
8.1984e-07
6.45894e-05
7.94826e-07
6.461e-05
7.67063e-07
6.46169e-05
7.37911e-07
6.46128e-05
7.08335e-07
6.45997e-05
6.78973e-07
6.45792e-05
6.50216e-07
6.45528e-05
6.22305e-07
6.45216e-05
5.95394e-07
6.44866e-05
5.69574e-07
6.44484e-05
5.44898e-07
6.44078e-05
5.21398e-07
6.43653e-05
4.99097e-07
6.43213e-05
4.78023e-07
6.42761e-05
4.58215e-07
6.42302e-05
4.39757e-07
6.41836e-05
4.22729e-07
6.41367e-05
4.07409e-07
6.40894e-05
3.93679e-07
6.4042e-05
3.82882e-07
6.39907e-05
3.73258e-07
3.77566e-07
6.39455e-05
6.47767e-05
-1.44247e-06
6.47349e-05
-8.90751e-07
6.47849e-05
-4.10332e-07
6.48931e-05
-8.26417e-08
6.5057e-05
2.64663e-07
6.52214e-05
4.93351e-07
6.53726e-05
6.13547e-07
6.55095e-05
6.83613e-07
6.56307e-05
7.26003e-07
6.57358e-05
7.46183e-07
6.58257e-05
7.50087e-07
6.59018e-05
7.43695e-07
6.59658e-05
7.30831e-07
6.60192e-05
7.1368e-07
6.60634e-05
6.93732e-07
6.60996e-05
6.72104e-07
6.6129e-05
6.49587e-07
6.61525e-05
6.26718e-07
6.61709e-05
6.0387e-07
6.6185e-05
5.81311e-07
6.61954e-05
5.5923e-07
6.62025e-05
5.37768e-07
6.62069e-05
5.17029e-07
6.62089e-05
4.97101e-07
6.62088e-05
4.78066e-07
6.6207e-05
4.60012e-07
6.62037e-05
4.43054e-07
6.61991e-05
4.27315e-07
6.61935e-05
4.13044e-07
6.61868e-05
4.00335e-07
6.61796e-05
3.90117e-07
6.61707e-05
3.82171e-07
3.82013e-07
6.61663e-05
6.70079e-05
-9.93573e-07
6.68589e-05
-7.41782e-07
6.68314e-05
-3.82865e-07
6.68578e-05
-1.09007e-07
6.69422e-05
1.80292e-07
6.70457e-05
3.89805e-07
6.7148e-05
5.1132e-07
6.72451e-05
5.86518e-07
6.73358e-05
6.35297e-07
6.74189e-05
6.63048e-07
6.74941e-05
6.74931e-07
6.75615e-05
6.76223e-07
6.76219e-05
6.70466e-07
6.76758e-05
6.59787e-07
6.77238e-05
6.45678e-07
6.77667e-05
6.29274e-07
6.78048e-05
6.11405e-07
6.78389e-05
5.9266e-07
6.78693e-05
5.73465e-07
6.78965e-05
5.54136e-07
6.79208e-05
5.34912e-07
6.79426e-05
5.15972e-07
6.79622e-05
4.97462e-07
6.79798e-05
4.79499e-07
6.79956e-05
4.62195e-07
6.801e-05
4.45657e-07
6.8023e-05
4.30012e-07
6.8035e-05
4.15393e-07
6.8046e-05
4.02008e-07
6.80563e-05
3.90021e-07
6.80664e-05
3.80011e-07
6.80765e-05
3.72077e-07
3.68221e-07
6.80903e-05
6.90833e-05
-6.9287e-07
6.89333e-05
-5.91802e-07
6.88863e-05
-3.35807e-07
6.88865e-05
-1.09234e-07
6.8934e-05
1.32783e-07
6.90039e-05
3.19959e-07
6.90771e-05
4.38075e-07
6.91489e-05
5.14755e-07
6.9218e-05
5.6616e-07
6.92834e-05
5.97689e-07
6.93443e-05
6.14043e-07
6.94006e-05
6.1988e-07
6.94526e-05
6.18454e-07
6.95006e-05
6.11828e-07
6.95448e-05
6.0147e-07
6.95856e-05
5.88503e-07
6.96232e-05
5.73756e-07
6.9658e-05
5.57836e-07
6.96903e-05
5.41188e-07
6.97203e-05
5.24153e-07
6.97482e-05
5.06988e-07
6.97743e-05
4.89896e-07
6.97987e-05
4.73037e-07
6.98217e-05
4.56546e-07
6.98433e-05
4.40542e-07
6.98638e-05
4.25141e-07
6.98834e-05
4.10459e-07
6.99022e-05
3.96621e-07
6.99204e-05
3.83783e-07
6.99383e-05
3.72083e-07
6.99565e-05
3.61818e-07
6.99756e-05
3.53001e-07
3.46079e-07
6.99977e-05
7.11508e-05
-4.7735e-07
7.10202e-05
-4.61196e-07
7.09675e-05
-2.83108e-07
7.09558e-05
-9.75432e-08
7.09831e-05
1.05522e-07
7.10322e-05
2.70823e-07
7.10875e-05
3.82806e-07
7.11435e-05
4.58719e-07
7.11988e-05
5.10839e-07
7.12523e-05
5.4427e-07
7.1303e-05
5.63314e-07
7.13508e-05
5.72068e-07
7.13958e-05
5.73504e-07
7.1438e-05
5.69609e-07
7.14776e-05
5.61822e-07
7.15149e-05
5.51239e-07
7.155e-05
5.38684e-07
7.1583e-05
5.24766e-07
7.16143e-05
5.0994e-07
7.16439e-05
4.94558e-07
7.1672e-05
4.78888e-07
7.16987e-05
4.63142e-07
7.17243e-05
4.47489e-07
7.17487e-05
4.32068e-07
7.17723e-05
4.17001e-07
7.1795e-05
4.02396e-07
7.18171e-05
3.88357e-07
7.18388e-05
3.74982e-07
7.18602e-05
3.62373e-07
7.18817e-05
3.50605e-07
7.19037e-05
3.39773e-07
7.1927e-05
3.29758e-07
3.20395e-07
7.19526e-05
7.32508e-05
-3.2285e-07
7.31391e-05
-3.49559e-07
7.30844e-05
-2.28386e-07
7.30656e-05
-7.8731e-08
7.30803e-05
9.08567e-08
7.31156e-05
2.35444e-07
7.31589e-05
3.39555e-07
7.32046e-05
4.1302e-07
7.32508e-05
4.64616e-07
7.32963e-05
4.98832e-07
7.33401e-05
5.19514e-07
7.33819e-05
5.30237e-07
7.34217e-05
5.33693e-07
7.34595e-05
5.31771e-07
7.34955e-05
5.25867e-07
7.35297e-05
5.17049e-07
7.35622e-05
5.06126e-07
7.35933e-05
4.93704e-07
7.3623e-05
4.80245e-07
7.36515e-05
4.66104e-07
7.36788e-05
4.51556e-07
7.37051e-05
4.36816e-07
7.37305e-05
4.22058e-07
7.37552e-05
4.0742e-07
7.37792e-05
3.9302e-07
7.38026e-05
3.78956e-07
7.38257e-05
3.65313e-07
7.38485e-05
3.52161e-07
7.38713e-05
3.39551e-07
7.38944e-05
3.27495e-07
7.39182e-05
3.1596e-07
7.39432e-05
3.04747e-07
2.93496e-07
7.39701e-05
7.5393e-05
-2.13412e-07
7.5299e-05
-2.55566e-07
7.5245e-05
-1.74397e-07
7.52219e-05
-5.55912e-08
7.5228e-05
8.47973e-08
7.52534e-05
2.0999e-07
7.52878e-05
3.05129e-07
7.5326e-05
3.7483e-07
7.53657e-05
4.24928e-07
7.54055e-05
4.59098e-07
7.54443e-05
4.80658e-07
7.54819e-05
4.92688e-07
7.5518e-05
4.97595e-07
7.55526e-05
4.97148e-07
7.55858e-05
4.92684e-07
7.56176e-05
4.85232e-07
7.56481e-05
4.75582e-07
7.56775e-05
4.64332e-07
7.57058e-05
4.51945e-07
7.57331e-05
4.38776e-07
7.57596e-05
4.25102e-07
7.57853e-05
4.11141e-07
7.58103e-05
3.97065e-07
7.58347e-05
3.83012e-07
7.58586e-05
3.69091e-07
7.58822e-05
3.55389e-07
7.59055e-05
3.41972e-07
7.59288e-05
3.28883e-07
7.59522e-05
3.16135e-07
7.5976e-05
3.03691e-07
7.60005e-05
2.91452e-07
7.60261e-05
2.79189e-07
2.6652e-07
7.6053e-05
7.75831e-05
-1.36893e-07
7.75059e-05
-1.78408e-07
7.74552e-05
-1.23688e-07
7.74299e-05
-3.02799e-08
7.74298e-05
8.48627e-08
7.74477e-05
1.92107e-07
7.74752e-05
2.77658e-07
7.75074e-05
3.42581e-07
7.7542e-05
3.90358e-07
7.75773e-05
4.23779e-07
7.76124e-05
4.45587e-07
7.76467e-05
4.58387e-07
7.768e-05
4.64299e-07
7.77122e-05
4.64949e-07
7.77433e-05
4.61596e-07
7.77733e-05
4.55222e-07
7.78023e-05
4.4659e-07
7.78303e-05
4.36285e-07
7.78575e-05
4.24764e-07
7.78839e-05
4.12381e-07
7.79096e-05
3.99411e-07
7.79346e-05
3.86071e-07
7.79592e-05
3.72531e-07
7.79833e-05
3.58924e-07
7.8007e-05
3.45353e-07
7.80305e-05
3.31893e-07
7.80539e-05
3.18594e-07
7.80773e-05
3.05477e-07
7.81009e-05
2.92528e-07
7.81249e-05
2.79683e-07
7.81495e-05
2.66817e-07
7.8175e-05
2.53708e-07
2.40019e-07
7.82015e-05
7.98256e-05
-8.41759e-08
7.97641e-05
-1.16859e-07
7.97186e-05
-7.82431e-08
7.9693e-05
-4.71195e-09
7.96888e-05
8.91095e-08
7.97008e-05
1.80061e-07
7.97227e-05
2.5584e-07
7.975e-05
3.15273e-07
7.97803e-05
3.60052e-07
7.98119e-05
3.9211e-07
7.98439e-05
4.13614e-07
7.98756e-05
4.26714e-07
7.99066e-05
4.33244e-07
7.99369e-05
4.34669e-07
7.99664e-05
4.32155e-07
7.9995e-05
4.26627e-07
8.00227e-05
4.18811e-07
8.00497e-05
4.09276e-07
8.0076e-05
3.98466e-07
8.01017e-05
3.86729e-07
8.01268e-05
3.74337e-07
8.01513e-05
3.61503e-07
8.01755e-05
3.48395e-07
8.01993e-05
3.35138e-07
8.02228e-05
3.2183e-07
8.02461e-05
3.08535e-07
8.02694e-05
2.95291e-07
8.02928e-05
2.82105e-07
8.03164e-05
2.68947e-07
8.03403e-05
2.55743e-07
8.03648e-05
2.42367e-07
8.03899e-05
2.28625e-07
2.14243e-07
8.04156e-05
8.21247e-05
-4.84486e-08
8.2077e-05
-6.91501e-08
8.20381e-05
-3.9302e-08
8.20139e-05
1.94421e-08
8.20072e-05
9.58124e-08
8.20149e-05
1.72359e-07
8.20322e-05
2.38601e-07
8.20553e-05
2.92141e-07
8.20819e-05
3.33407e-07
8.21105e-05
3.63585e-07
8.21398e-05
3.84301e-07
8.21692e-05
3.97282e-07
8.21984e-05
4.04079e-07
8.2227e-05
4.0599e-07
8.22551e-05
4.04073e-07
8.22826e-05
3.99187e-07
8.23094e-05
3.92016e-07
8.23355e-05
3.83102e-07
8.23611e-05
3.72875e-07
8.23862e-05
3.61672e-07
8.24108e-05
3.4976e-07
8.24349e-05
3.37345e-07
8.24587e-05
3.2459e-07
8.24822e-05
3.11617e-07
8.25056e-05
2.98513e-07
8.25288e-05
2.85338e-07
8.25519e-05
2.72121e-07
8.25752e-05
2.5886e-07
8.25986e-05
2.4552e-07
8.26223e-05
2.32029e-07
8.26464e-05
2.18274e-07
8.26709e-05
2.04098e-07
1.89288e-07
8.26959e-05
8.4484e-05
-2.46521e-08
8.4448e-05
-3.32125e-08
8.44161e-05
-7.35236e-09
8.43946e-05
4.0891e-08
8.4387e-05
1.03445e-07
8.43917e-05
1.67637e-07
8.44054e-05
2.2494e-07
8.4425e-05
2.72492e-07
8.44485e-05
3.09916e-07
8.44743e-05
3.37813e-07
8.45013e-05
3.57332e-07
8.45287e-05
3.69824e-07
8.45562e-05
3.76573e-07
8.45835e-05
3.78703e-07
8.46104e-05
3.77162e-07
8.46369e-05
3.72732e-07
8.46629e-05
3.6605e-07
8.46883e-05
3.57627e-07
8.47133e-05
3.47872e-07
8.47379e-05
3.37109e-07
8.47621e-05
3.25595e-07
8.47859e-05
3.1353e-07
8.48094e-05
3.0107e-07
8.48327e-05
2.88331e-07
8.48558e-05
2.75396e-07
8.48788e-05
2.62319e-07
8.49018e-05
2.49123e-07
8.49249e-05
2.35805e-07
8.49481e-05
2.22331e-07
8.49715e-05
2.08639e-07
8.49951e-05
1.94635e-07
8.5019e-05
1.802e-07
1.65174e-07
8.50431e-05
8.69066e-05
-9.09054e-09
8.68803e-05
-6.92192e-09
8.68552e-05
1.77546e-08
8.68373e-05
5.88171e-08
8.683e-05
1.10758e-07
8.68329e-05
1.64667e-07
8.6844e-05
2.13905e-07
8.68608e-05
2.55648e-07
8.68816e-05
2.89097e-07
8.6905e-05
3.14437e-07
8.69299e-05
3.3244e-07
8.69556e-05
3.4413e-07
8.69816e-05
3.50551e-07
8.70077e-05
3.5266e-07
8.70335e-05
3.5129e-07
8.70591e-05
3.47146e-07
8.70844e-05
3.4081e-07
8.71092e-05
3.32758e-07
8.71337e-05
3.23376e-07
8.71579e-05
3.1297e-07
8.71817e-05
3.01785e-07
8.72052e-05
2.90014e-07
8.72285e-05
2.77804e-07
8.72515e-05
2.65266e-07
8.72744e-05
2.52479e-07
8.72973e-05
2.39493e-07
8.73201e-05
2.2633e-07
8.73429e-05
2.12988e-07
8.73658e-05
1.9944e-07
8.73888e-05
1.85635e-07
8.74119e-05
1.71503e-07
8.74351e-05
1.56957e-07
1.41885e-07
8.74584e-05
8.93956e-05
8.75363e-10
8.93769e-05
1.17158e-08
8.93581e-05
3.66169e-08
8.9344e-05
7.28745e-08
8.93379e-05
1.16841e-07
8.93402e-05
1.62413e-07
8.93495e-05
2.0461e-07
8.93642e-05
2.4094e-07
8.93828e-05
2.70459e-07
8.94042e-05
2.93105e-07
8.94272e-05
3.09366e-07
8.94514e-05
3.20007e-07
8.9476e-05
3.25864e-07
8.9501e-05
3.27741e-07
8.95259e-05
3.26359e-07
8.95507e-05
3.22344e-07
8.95753e-05
3.16224e-07
8.95996e-05
3.08435e-07
8.96236e-05
2.99334e-07
8.96474e-05
2.89211e-07
8.96709e-05
2.78297e-07
8.96941e-05
2.66772e-07
8.97172e-05
2.54778e-07
8.974e-05
2.42419e-07
8.97627e-05
2.29772e-07
8.97853e-05
2.16882e-07
8.98079e-05
2.03775e-07
8.98304e-05
1.9045e-07
8.9853e-05
1.7689e-07
8.98755e-05
1.63059e-07
8.98981e-05
1.48906e-07
8.99207e-05
1.34375e-07
1.19387e-07
8.99432e-05
9.19536e-05
7.09208e-09
9.19409e-05
2.44562e-08
9.19274e-05
5.00888e-08
9.19172e-05
8.3114e-08
9.19129e-05
1.21148e-07
9.19152e-05
1.60081e-07
9.19235e-05
1.96294e-07
9.19367e-05
2.27744e-07
9.19537e-05
2.53524e-07
9.19733e-05
2.73458e-07
9.19948e-05
2.87849e-07
9.20176e-05
2.97264e-07
9.20411e-05
3.02371e-07
9.2065e-05
3.03837e-07
9.2089e-05
3.02284e-07
9.21131e-05
2.9826e-07
9.21371e-05
2.92237e-07
9.21609e-05
2.84611e-07
9.21846e-05
2.75712e-07
9.2208e-05
2.65807e-07
9.22312e-05
2.55111e-07
9.22541e-05
2.43794e-07
9.22769e-05
2.3199e-07
9.22995e-05
2.19798e-07
9.2322e-05
2.07289e-07
9.23444e-05
1.9451e-07
9.23667e-05
1.81486e-07
9.23889e-05
1.68225e-07
9.24111e-05
1.54716e-07
9.24332e-05
1.40938e-07
9.24553e-05
1.26861e-07
9.24772e-05
1.12447e-07
9.76494e-08
9.24989e-05
9.45834e-05
1.08274e-08
9.45751e-05
3.27692e-08
9.45661e-05
5.91183e-08
9.45593e-05
8.98697e-08
9.4557e-05
1.23461e-07
9.45599e-05
1.57147e-07
9.45679e-05
1.88359e-07
9.45801e-05
2.15514e-07
9.45958e-05
2.37844e-07
9.46141e-05
2.55149e-07
9.46343e-05
2.67626e-07
9.46559e-05
2.75706e-07
9.46783e-05
2.79926e-07
9.47013e-05
2.80842e-07
9.47246e-05
2.78984e-07
9.47481e-05
2.74831e-07
9.47715e-05
2.68803e-07
9.47948e-05
2.61255e-07
9.48181e-05
2.52486e-07
9.48411e-05
2.42741e-07
9.4864e-05
2.3222e-07
9.48867e-05
2.21081e-07
9.49093e-05
2.09448e-07
9.49317e-05
1.97415e-07
9.49539e-05
1.85051e-07
9.4976e-05
1.72402e-07
9.4998e-05
1.59496e-07
9.50199e-05
1.46344e-07
9.50416e-05
1.32947e-07
9.50633e-05
1.19296e-07
9.50848e-05
1.05375e-07
9.51061e-05
9.11648e-08
7.66388e-08
9.51271e-05
9.72874e-05
1.29407e-08
9.72823e-05
3.7842e-08
9.72768e-05
6.46371e-08
9.7273e-05
9.36468e-08
9.72727e-05
1.23827e-07
9.72765e-05
1.53341e-07
9.72844e-05
1.804e-07
9.72961e-05
2.03832e-07
9.73109e-05
2.23041e-07
9.73282e-05
2.37864e-07
9.73474e-05
2.4845e-07
9.73679e-05
2.55146e-07
9.73895e-05
2.58391e-07
9.74117e-05
2.58652e-07
9.74343e-05
2.56385e-07
9.74571e-05
2.52005e-07
9.748e-05
2.45884e-07
9.75029e-05
2.38338e-07
9.75258e-05
2.29638e-07
9.75485e-05
2.20005e-07
9.75711e-05
2.09623e-07
9.75936e-05
1.98638e-07
9.76158e-05
1.87164e-07
9.7638e-05
1.7529e-07
9.76599e-05
1.63082e-07
9.76817e-05
1.50586e-07
9.77034e-05
1.37831e-07
9.77249e-05
1.24836e-07
9.77463e-05
1.11608e-07
9.77674e-05
9.81482e-08
9.77883e-05
8.44525e-08
9.7809e-05
7.0517e-08
5.63279e-08
9.78293e-05
0.000100068
1.40084e-08
0.000100065
4.06082e-08
0.000100062
6.74959e-08
0.000100061
9.50279e-08
0.000100062
1.22481e-07
0.000100067
1.48615e-07
0.000100075
1.72204e-07
0.000100087
1.92416e-07
0.000100101
2.0883e-07
0.000100117
2.21349e-07
0.000100136
2.30113e-07
0.000100155
2.35418e-07
0.000100176
2.37638e-07
0.000100198
2.37173e-07
0.00010022
2.34417e-07
0.000100242
2.29734e-07
0.000100264
2.23448e-07
0.000100287
2.15843e-07
0.000100309
2.0716e-07
0.000100332
1.976e-07
0.000100354
1.87328e-07
0.000100376
1.76478e-07
0.000100398
1.65156e-07
0.00010042
1.53445e-07
0.000100442
1.41407e-07
0.000100463
1.29088e-07
0.000100485
1.16521e-07
0.000100506
1.03726e-07
0.000100527
9.07189e-08
0.000100547
7.75065e-08
0.000100568
6.40969e-08
0.000100588
5.04932e-08
3.66945e-08
0.000100607
0.000102928
1.44184e-08
0.000102926
4.17923e-08
0.000102926
6.84401e-08
0.000102926
9.46105e-08
0.000102929
1.19775e-07
0.000102934
1.4309e-07
0.000102943
1.63729e-07
0.000102954
1.81135e-07
0.000102968
1.95045e-07
0.000102984
2.05436e-07
0.000103001
2.12462e-07
0.00010302
2.16396e-07
0.00010304
2.17569e-07
0.000103061
2.16332e-07
0.000103083
2.13029e-07
0.000103104
2.07981e-07
0.000103126
2.01475e-07
0.000103148
1.9376e-07
0.000103171
1.85052e-07
0.000103193
1.75531e-07
0.000103215
1.65346e-07
0.000103236
1.54619e-07
0.000103258
1.43446e-07
0.00010328
1.31904e-07
0.000103301
1.20053e-07
0.000103322
1.07937e-07
0.000103343
9.55895e-08
0.000103364
8.30359e-08
0.000103384
7.02947e-08
0.000103404
5.73805e-08
0.000103424
4.43065e-08
0.000103444
3.10837e-08
1.7718e-08
0.000103463
0.000105869
1.44333e-08
0.000105869
4.19559e-08
0.000105869
6.81092e-08
0.000105871
9.29717e-08
0.000105874
1.16132e-07
0.00010588
1.37013e-07
0.000105889
1.55082e-07
0.0001059
1.69997e-07
0.000105913
1.81635e-07
0.000105929
1.90048e-07
0.000105946
1.95418e-07
0.000105964
1.98009e-07
0.000105984
1.98126e-07
0.000106004
1.96085e-07
0.000106025
1.92193e-07
0.000106046
1.86732e-07
0.000106068
1.79957e-07
0.000106089
1.72091e-07
0.000106111
1.63322e-07
0.000106133
1.53813e-07
0.000106154
1.43696e-07
0.000106176
1.33081e-07
0.000106197
1.22056e-07
0.000106218
1.10691e-07
0.000106239
9.90426e-08
0.00010626
8.71536e-08
0.000106281
7.50572e-08
0.000106301
6.27816e-08
0.000106321
5.03467e-08
0.000106341
3.77738e-08
0.00010636
2.50778e-08
0.000106379
1.22768e-08
-6.21578e-10
0.000106397
0.000108894
1.4239e-08
0.000108894
4.15446e-08
0.000108895
6.7057e-08
0.000108897
9.06594e-08
0.000108901
1.12009e-07
0.000108908
1.30721e-07
0.000108916
1.46481e-07
0.000108927
1.59129e-07
0.00010894
1.68664e-07
0.000108955
1.75212e-07
0.000108971
1.78986e-07
0.000108989
1.80254e-07
0.000109008
1.79306e-07
0.000109028
1.76433e-07
0.000109048
1.71912e-07
0.000109069
1.65996e-07
0.00010909
1.58911e-07
0.000109111
1.50853e-07
0.000109132
1.41991e-07
0.000109154
1.32468e-07
0.000109175
1.22401e-07
0.000109196
1.11889e-07
0.000109217
1.01011e-07
0.000109238
8.98297e-08
0.000109259
7.83983e-08
0.000109279
6.67566e-08
0.000109299
5.49388e-08
0.000109319
4.29714e-08
0.000109339
3.08793e-08
0.000109358
1.86824e-08
0.000109376
6.40167e-09
0.000109395
-5.94573e-09
-1.83478e-08
0.000109412
0.000112005
1.39744e-08
0.000112005
4.09294e-08
0.000112007
6.578e-08
0.000112009
8.82019e-08
0.000112013
1.07893e-07
0.000112019
1.24619e-07
0.000112028
1.38246e-07
0.000112038
1.48771e-07
0.00011205
1.56307e-07
0.000112064
1.61051e-07
0.00011208
1.63256e-07
0.000112097
1.632e-07
0.000112115
1.61164e-07
0.000112134
1.57423e-07
0.000112154
1.52229e-07
0.000112174
1.45811e-07
0.000112195
1.38369e-07
0.000112216
1.30079e-07
0.000112236
1.21089e-07
0.000112257
1.11524e-07
0.000112278
1.01487e-07
0.000112299
9.1066e-08
0.00011232
8.03297e-08
0.00011234
6.93363e-08
0.000112361
5.81318e-08
0.000112381
4.67547e-08
0.0001124
3.52365e-08
0.00011242
2.36045e-08
0.000112439
1.18826e-08
0.000112457
9.28135e-11
0.000112475
-1.17445e-08
0.000112493
-2.36106e-08
-3.54933e-08
0.00011251
0.000115205
1.37584e-08
0.000115205
4.04495e-08
0.000115206
6.47575e-08
0.000115208
8.61366e-08
0.000115212
1.04312e-07
0.000115217
1.19185e-07
0.000115225
1.30785e-07
0.000115234
1.3926e-07
0.000115246
1.44836e-07
0.000115259
1.47787e-07
0.000115274
1.48407e-07
0.00011529
1.46989e-07
0.000115307
1.43816e-07
0.000115326
1.39148e-07
0.000115345
1.33221e-07
0.000115364
1.26241e-07
0.000115384
1.18388e-07
0.000115404
1.09815e-07
0.000115425
1.00653e-07
0.000115445
9.10102e-08
0.000115466
8.09768e-08
0.000115486
7.06276e-08
0.000115507
6.00234e-08
0.000115527
4.92146e-08
0.000115547
3.82415e-08
0.000115566
2.71397e-08
0.000115586
1.59372e-08
0.000115605
4.6603e-09
0.000115623
-6.66879e-09
0.000115641
-1.80281e-08
0.000115659
-2.93987e-08
0.000115676
-4.07616e-08
-5.21064e-08
0.000115693
0.000118496
1.37075e-08
0.000118496
4.04551e-08
0.000118496
6.45016e-08
0.000118497
8.50537e-08
0.0001185
1.01868e-07
0.000118504
1.14985e-07
0.00011851
1.24607e-07
0.000118518
1.31038e-07
0.000118529
1.34627e-07
0.000118541
1.35731e-07
0.000118554
1.34692e-07
0.000118569
1.3183e-07
0.000118586
1.27429e-07
0.000118603
1.21744e-07
0.000118621
1.14994e-07
0.00011864
1.07369e-07
0.00011866
9.9027e-08
0.000118679
9.01039e-08
0.000118699
8.0712e-08
0.000118719
7.09434e-08
0.00011874
6.08755e-08
0.00011876
5.05698e-08
0.00011878
4.0079e-08
0.000118799
2.94434e-08
0.000118819
1.87e-08
0.000118838
7.87637e-09
0.000118857
-3.00026e-09
0.000118876
-1.39092e-08
0.000118894
-2.48282e-08
0.000118911
-3.57398e-08
0.000118929
-4.66242e-08
0.000118945
-5.74671e-08
-6.82571e-08
0.000118962
0.000121881
1.39598e-08
0.00012188
4.13633e-08
0.000121879
6.56254e-08
0.000121878
8.56639e-08
0.000121879
1.0129e-07
0.000121881
1.12718e-07
0.000121886
1.20347e-07
0.000121892
1.24662e-07
0.0001219
1.26154e-07
0.000121911
1.25278e-07
0.000121923
1.22437e-07
0.000121937
1.17981e-07
0.000121952
1.12206e-07
0.000121969
1.05363e-07
0.000121986
9.76599e-08
0.000122004
8.92694e-08
0.000122023
8.03332e-08
0.000122042
7.09678e-08
0.000122061
6.1267e-08
0.000122081
5.13081e-08
0.000122101
4.11523e-08
0.00012212
3.08506e-08
0.00012214
2.04425e-08
0.000122159
9.96239e-09
0.000122179
-5.63326e-10
0.000122198
-1.11101e-08
0.000122216
-2.1659e-08
0.000122235
-3.21904e-08
0.000122252
-4.26889e-08
0.00012227
-5.31372e-08
0.000122287
-6.35216e-08
0.000122303
-7.38278e-08
-8.40493e-08
0.000122319
0.000125363
1.47023e-08
0.00012536
4.37353e-08
0.000125357
6.89425e-08
0.000125354
8.8896e-08
0.000125352
1.03521e-07
0.000125351
1.13274e-07
0.000125353
1.18804e-07
0.000125356
1.20822e-07
0.000125363
1.19995e-07
0.000125371
1.16897e-07
0.000125381
1.12008e-07
0.000125394
1.0572e-07
0.000125407
9.83459e-08
0.000125423
9.01384e-08
0.000125439
8.12961e-08
0.000125456
7.19762e-08
0.000125474
6.23024e-08
0.000125493
5.23713e-08
0.000125512
4.2259e-08
0.000125531
3.20242e-08
0.000125551
2.17131e-08
0.00012557
1.13616e-08
0.00012559
9.98186e-10
0.000125609
-9.35457e-09
0.000125628
-1.96781e-08
0.000125647
-2.9957e-08
0.000125665
-4.01775e-08
0.000125684
-5.03273e-08
0.000125701
-6.03946e-08
0.000125719
-7.0368e-08
0.000125735
-8.02367e-08
0.000125751
-8.99914e-08
-9.9628e-08
0.000125767
0.000128944
1.62222e-08
0.000128939
4.84044e-08
0.000128932
7.56207e-08
0.000128925
9.60417e-08
0.000128919
1.09837e-07
0.000128914
1.17819e-07
0.000128912
1.20988e-07
0.000128913
1.20355e-07
0.000128916
1.16814e-07
0.000128921
1.11094e-07
0.00012893
1.03769e-07
0.00012894
9.52873e-08
0.000128953
8.59877e-08
0.000128967
7.61251e-08
0.000128982
6.58899e-08
0.000128998
5.54221e-08
0.000129016
4.48252e-08
0.000129034
3.41737e-08
0.000129053
2.35222e-08
0.000129072
1.29085e-08
0.000129091
2.36112e-09
0.000129111
-8.10174e-09
0.00012913
-1.84656e-08
0.00012915
-2.87215e-08
0.000129169
-3.88615e-08
0.000129188
-4.88806e-08
0.000129206
-5.8773e-08
0.000129225
-6.85343e-08
0.000129242
-7.81588e-08
0.00012926
-8.76416e-08
0.000129276
-9.69768e-08
0.000129293
-1.0616e-07
-1.15191e-07
0.000129308
0.000132626
1.89969e-08
0.000132618
5.66943e-08
0.000132606
8.74278e-08
0.000132593
1.08971e-07
0.000132581
1.21998e-07
0.000132571
1.27889e-07
0.000132564
1.28151e-07
0.00013256
1.24226e-07
0.00013256
1.17309e-07
0.000132562
1.08329e-07
0.000132568
9.79844e-08
0.000132577
8.67889e-08
0.000132587
7.51098e-08
0.0001326
6.32044e-08
0.000132615
5.12487e-08
0.000132631
3.93611e-08
0.000132648
2.76169e-08
0.000132666
1.60645e-08
0.000132685
4.7288e-09
0.000132704
-6.37504e-09
0.000132724
-1.72448e-08
0.000132744
-2.78801e-08
0.000132764
-3.82876e-08
0.000132783
-4.84719e-08
0.000132803
-5.84415e-08
0.000132822
-6.82015e-08
0.000132841
-7.77587e-08
0.00013286
-8.71162e-08
0.000132878
-9.62785e-08
0.000132896
-1.05246e-07
0.000132913
-1.14021e-07
0.000132929
-1.22604e-07
-1.31001e-07
0.000132945
0.000136413
2.38817e-08
0.000136399
7.08173e-08
0.00013638
1.07132e-07
0.000136358
1.30438e-07
0.000136338
1.42445e-07
0.00013632
1.45453e-07
0.000136306
1.41758e-07
0.000136297
1.33425e-07
0.000136293
1.22067e-07
0.000136292
1.08863e-07
0.000136295
9.46585e-08
0.000136302
8.00374e-08
0.000136312
6.53873e-08
0.000136324
5.09548e-08
0.000136338
3.68878e-08
0.000136355
2.32682e-08
0.000136372
1.01326e-08
0.000136391
-2.51106e-09
0.00013641
-1.46725e-08
0.00013643
-2.63724e-08
0.00013645
-3.76361e-08
0.000136471
-4.84921e-08
0.000136492
-5.89678e-08
0.000136512
-6.90902e-08
0.000136533
-7.8883e-08
0.000136553
-8.83683e-08
0.000136573
-9.75642e-08
0.000136592
-1.06487e-07
0.000136611
-1.15149e-07
0.000136629
-1.23562e-07
0.000136647
-1.31734e-07
0.000136664
-1.39673e-07
-1.4739e-07
0.00013668
0.000140307
3.24954e-08
0.000140283
9.46084e-08
0.000140251
1.39138e-07
0.000140217
1.64489e-07
0.000140185
1.74457e-07
0.000140158
1.72872e-07
0.000140136
1.63294e-07
0.000140121
1.48712e-07
0.000140112
1.31282e-07
0.000140108
1.12475e-07
0.00014011
9.32808e-08
0.000140115
7.43307e-08
0.000140125
5.60006e-08
0.000140137
3.84913e-08
0.000140152
2.18947e-08
0.000140169
6.22847e-09
0.000140188
-8.52903e-09
0.000140208
-2.24279e-08
0.000140229
-3.55265e-08
0.00014025
-4.78917e-08
0.000140272
-5.95861e-08
0.000140294
-7.06728e-08
0.000140317
-8.12068e-08
0.000140339
-9.12406e-08
0.000140361
-1.00818e-07
0.000140382
-1.0998e-07
0.000140403
-1.1876e-07
0.000140424
-1.27188e-07
0.000140444
-1.35287e-07
0.000140464
-1.43079e-07
0.000140483
-1.50582e-07
0.000140501
-1.5781e-07
-1.64782e-07
0.000140518
0.000144309
4.80881e-08
0.000144269
1.34875e-07
0.000144217
1.90445e-07
0.000144165
2.16892e-07
0.000144117
2.22128e-07
0.000144078
2.12558e-07
0.000144047
1.93774e-07
0.000144026
1.70086e-07
0.000144013
1.44269e-07
0.000144007
1.18045e-07
0.000144008
9.24787e-08
0.000144014
6.81722e-08
0.000144025
4.54104e-08
0.000144039
2.42874e-08
0.000144056
4.78359e-09
0.000144076
-1.31813e-08
0.000144097
-2.97225e-08
0.000144119
-4.4966e-08
0.000144143
-5.90411e-08
0.000144167
-7.20688e-08
0.000144192
-8.41635e-08
0.000144216
-9.54262e-08
0.000144241
-1.05949e-07
0.000144266
-1.15812e-07
0.00014429
-1.25084e-07
0.000144314
-1.33826e-07
0.000144337
-1.42091e-07
0.00014436
-1.49921e-07
0.000144382
-1.57356e-07
0.000144403
-1.64426e-07
0.000144424
-1.71159e-07
0.000144444
-1.77579e-07
-1.8371e-07
0.000144462
0.000148418
7.75956e-08
0.000148349
2.0383e-07
0.000148268
2.71851e-07
0.00014819
2.95273e-07
0.000148122
2.89803e-07
0.000148069
2.66045e-07
0.00014803
2.32771e-07
0.000148004
1.95941e-07
0.000147989
1.58779e-07
0.000147984
1.23021e-07
0.000147987
8.96135e-08
0.000147996
5.89576e-08
0.000148011
3.1116e-08
0.000148029
5.97387e-09
0.00014805
-1.66665e-08
0.000148074
-3.7038e-08
0.0001481
-5.53812e-08
0.000148127
-7.1928e-08
0.000148155
-8.68923e-08
0.000148183
-1.00468e-07
0.000148212
-1.12825e-07
0.00014824
-1.24114e-07
0.000148269
-1.34467e-07
0.000148297
-1.43995e-07
0.000148325
-1.52797e-07
0.000148352
-1.60955e-07
0.000148378
-1.6854e-07
0.000148404
-1.75614e-07
0.000148429
-1.82227e-07
0.000148453
-1.88424e-07
0.000148476
-1.94241e-07
0.000148498
-1.99712e-07
-2.04866e-07
0.000148519
0.000152631
1.36093e-07
0.000152511
3.23592e-07
0.000152383
3.99241e-07
0.00015227
4.08263e-07
0.00015218
3.80285e-07
0.000152114
3.32072e-07
0.00015207
2.76811e-07
0.000152044
2.21874e-07
0.000152033
1.70149e-07
0.000152033
1.22807e-07
0.000152042
8.03112e-08
0.000152059
4.2602e-08
0.00015208
9.33261e-09
0.000152106
-1.99442e-08
0.000152135
-4.56834e-08
0.000152167
-6.83227e-08
0.000152199
-8.82641e-08
0.000152233
-1.05869e-07
0.000152268
-1.21453e-07
0.000152303
-1.35293e-07
0.000152338
-1.47625e-07
0.000152372
-1.58653e-07
0.000152406
-1.6855e-07
0.00015244
-1.77465e-07
0.000152472
-1.85525e-07
0.000152504
-1.92836e-07
0.000152535
-1.99489e-07
0.000152565
-2.05563e-07
0.000152594
-2.11121e-07
0.000152622
-2.16221e-07
0.000152648
-2.20909e-07
0.000152674
-2.25225e-07
-2.29209e-07
0.000152698
0.000156933
2.54128e-07
0.000156722
5.34901e-07
0.000156526
5.95134e-07
0.000156371
5.63202e-07
0.00015626
4.91352e-07
0.000156189
4.0339e-07
0.000156149
3.17023e-07
0.000156132
2.39034e-07
0.000156132
1.70048e-07
0.000156145
1.09716e-07
0.000156167
5.75479e-08
0.000156197
1.27031e-08
0.000156233
-2.57908e-08
0.000156271
-5.88305e-08
0.000156313
-8.72016e-08
0.000156356
-1.11585e-07
0.0001564
-1.32577e-07
0.000156445
-1.50683e-07
0.00015649
-1.66337e-07
0.000156535
-1.79901e-07
0.000156579
-1.91685e-07
0.000156622
-2.01947e-07
0.000156665
-2.10908e-07
0.000156706
-2.1875e-07
0.000156746
-2.2563e-07
0.000156785
-2.31678e-07
0.000156822
-2.37005e-07
0.000156858
-2.41704e-07
0.000156893
-2.45854e-07
0.000156926
-2.49522e-07
0.000156958
-2.52765e-07
0.000156989
-2.55632e-07
-2.5817e-07
0.000157018
0.00016129
5.02252e-07
0.000160918
9.06965e-07
0.00016063
8.8361e-07
0.000160432
7.60788e-07
0.000160312
6.11105e-07
0.000160253
4.62957e-07
0.000160234
3.36339e-07
0.000160241
2.31769e-07
0.000160267
1.44138e-07
0.000160306
7.05176e-08
0.000160354
9.10689e-09
0.000160409
-4.2031e-08
0.000160468
-8.46996e-08
0.00016053
-1.2036e-07
0.000160593
-1.50174e-07
0.000160656
-1.75111e-07
0.000160719
-1.95979e-07
0.000160782
-2.13454e-07
0.000160844
-2.28089e-07
0.000160904
-2.40345e-07
0.000160963
-2.50602e-07
0.000161021
-2.59177e-07
0.000161076
-2.66331e-07
0.00016113
-2.72285e-07
0.000161181
-2.77219e-07
0.000161231
-2.81286e-07
0.000161278
-2.84612e-07
0.000161324
-2.87303e-07
0.000161368
-2.89447e-07
0.000161409
-2.91119e-07
0.000161449
-2.92379e-07
0.000161486
-2.93279e-07
-2.93867e-07
0.000161522
0.000165509
1.14675e-06
0.000164895
1.52074e-06
0.000164546
1.23313e-06
0.000164348
9.58434e-07
0.000164265
6.94157e-07
0.000164259
4.69484e-07
0.000164294
3.00607e-07
0.000164355
1.70972e-07
0.000164433
6.63547e-08
0.000164522
-1.86752e-08
0.000164618
-8.72069e-08
0.000164719
-1.42369e-07
0.000164821
-1.86869e-07
0.000164923
-2.22754e-07
0.000165025
-2.51603e-07
0.000165124
-2.74706e-07
0.000165221
-2.9313e-07
0.000165316
-3.07738e-07
0.000165407
-3.19227e-07
0.000165495
-3.28159e-07
0.000165579
-3.34993e-07
0.00016566
-3.40102e-07
0.000165737
-3.4379e-07
0.000165812
-3.46304e-07
0.000165882
-3.47849e-07
0.000165949
-3.48593e-07
0.000166014
-3.48672e-07