/*--------------------------------*- C++ -*----------------------------------*\
| =========                 |                                                 |
| \\      /  F ield         | OpenFOAM: The Open Source CFD Toolbox           |
|  \\    /   O peration     | Version:  4.1                                   |
|   \\  /    A nd           | Web:      www.OpenFOAM.org                      |
|    \\/     M anipulation  |                                                 |
\*---------------------------------------------------------------------------*/
FoamFile
{
    version     2.0;
    format      ascii;
    class       volVectorField;
    location    "1000";
    object      U;
}
// * * * * * * * * * * * * * * * * * * * * * * * * * * * * * * * * * * * * * //

dimensions      [0 1 -1 0 0 0 0];

internalField   nonuniform List<vector> 
6820
(
(7.12051 -2.89958 0)
(7.72183 -2.2784 0)
(7.93531 -1.28315 0)
(7.87961 -0.658566 0)
(7.73232 -0.320701 0)
(7.56973 -0.148361 0)
(7.41011 -0.0616843 0)
(7.26102 -0.0176571 0)
(7.12628 0.00481325 0)
(7.00568 0.0160259 0)
(6.89736 0.0212387 0)
(6.79958 0.0232361 0)
(6.71096 0.023513 0)
(6.63036 0.0228803 0)
(6.55678 0.0217876 0)
(6.48935 0.0204886 0)
(6.42738 0.0191268 0)
(6.37028 0.0177812 0)
(6.31752 0.0164941 0)
(6.26867 0.0152863 0)
(6.22335 0.0141666 0)
(6.18121 0.0131366 0)
(6.14197 0.0121945 0)
(6.10534 0.0113372 0)
(6.07109 0.0105612 0)
(6.03898 0.00986459 0)
(6.00881 0.00924846 0)
(5.98035 0.00871608 0)
(5.95339 0.008292 0)
(5.92752 0.00796702 0)
(5.90281 0.00790351 0)
(5.87681 0.00799503 0)
(5.85648 0.00689705 0)
(7.59884 0.654127 0)
(7.43304 0.77761 0)
(7.36112 0.527756 0)
(7.34933 0.342769 0)
(7.39535 0.234375 0)
(7.45299 0.166654 0)
(7.49513 0.123346 0)
(7.51886 0.0959954 0)
(7.52909 0.0783841 0)
(7.52978 0.0664988 0)
(7.52339 0.0581218 0)
(7.51187 0.052021 0)
(7.49681 0.0474337 0)
(7.47936 0.0438612 0)
(7.46029 0.0409824 0)
(7.44018 0.0385928 0)
(7.41942 0.0365586 0)
(7.39835 0.0347891 0)
(7.37717 0.0332222 0)
(7.35608 0.031815 0)
(7.33518 0.0305373 0)
(7.31458 0.0293681 0)
(7.29435 0.0282924 0)
(7.27453 0.0273004 0)
(7.25516 0.0263865 0)
(7.23626 0.0255496 0)
(7.21785 0.0247947 0)
(7.19991 0.0241321 0)
(7.1825 0.0235968 0)
(7.1655 0.0232006 0)
(7.14928 0.0231832 0)
(7.13289 0.0231884 0)
(7.12004 0.0258789 0)
(7.25567 -0.0497305 0)
(7.16457 -0.0746216 0)
(7.20132 -0.0871775 0)
(7.24037 -0.0571869 0)
(7.27477 -0.0216433 0)
(7.31088 0.00195938 0)
(7.34256 0.0166243 0)
(7.36741 0.0264407 0)
(7.38684 0.0329436 0)
(7.40194 0.0369134 0)
(7.41321 0.0391172 0)
(7.42121 0.0401865 0)
(7.42657 0.040528 0)
(7.4298 0.0403893 0)
(7.43131 0.0399352 0)
(7.43141 0.039281 0)
(7.43037 0.0385051 0)
(7.42839 0.0376594 0)
(7.42566 0.0367786 0)
(7.42232 0.0358867 0)
(7.41848 0.0350002 0)
(7.41425 0.0341307 0)
(7.4097 0.0332868 0)
(7.4049 0.0324757 0)
(7.3999 0.0317046 0)
(7.39475 0.0309814 0)
(7.38949 0.0303188 0)
(7.38413 0.0297311 0)
(7.37873 0.0292568 0)
(7.37324 0.0289102 0)
(7.36784 0.0288716 0)
(7.36227 0.0289895 0)
(7.35761 0.0303914 0)
(7.29108 -0.0915081 0)
(7.22275 -0.0639329 0)
(7.23474 -0.029473 0)
(7.25082 -0.00392915 0)
(7.2644 0.015601 0)
(7.28272 0.0269924 0)
(7.30139 0.0329065 0)
(7.31764 0.0363611 0)
(7.3319 0.0384827 0)
(7.34452 0.0396044 0)
(7.35544 0.0400319 0)
(7.3647 0.0400411 0)
(7.37248 0.039796 0)
(7.379 0.0393814 0)
(7.38442 0.0388521 0)
(7.38889 0.0382491 0)
(7.39253 0.0376013 0)
(7.39546 0.0369277 0)
(7.39778 0.0362414 0)
(7.39958 0.0355524 0)
(7.40093 0.0348683 0)
(7.40189 0.0341953 0)
(7.40252 0.0335388 0)
(7.40286 0.0329046 0)
(7.40295 0.0322993 0)
(7.40283 0.0317316 0)
(7.40253 0.0312145 0)
(7.40207 0.0307644 0)
(7.40148 0.0304143 0)
(7.40079 0.0301889 0)
(7.40008 0.0302 0)
(7.39934 0.0303883 0)
(7.39901 0.031236 0)
(7.31214 -0.0522565 0)
(7.26645 -0.0334736 0)
(7.26326 -0.0148423 0)
(7.26623 -0.0026497 0)
(7.27139 0.0101299 0)
(7.28196 0.0195661 0)
(7.29393 0.0252587 0)
(7.3049 0.0290464 0)
(7.31503 0.0317839 0)
(7.32449 0.0336477 0)
(7.33312 0.0348191 0)
(7.34087 0.0355118 0)
(7.3478 0.0358715 0)
(7.35399 0.0359838 0)
(7.35952 0.03591 0)
(7.36445 0.0356991 0)
(7.36883 0.0353884 0)
(7.37275 0.035005 0)
(7.37624 0.0345692 0)
(7.37935 0.034097 0)
(7.38214 0.0336011 0)
(7.38464 0.0330921 0)
(7.38687 0.0325792 0)
(7.38888 0.0320709 0)
(7.39069 0.0315765 0)
(7.39233 0.0311065 0)
(7.39381 0.0306743 0)
(7.39515 0.0302967 0)
(7.3964 0.0299998 0)
(7.39758 0.0298072 0)
(7.39876 0.02978 0)
(7.39998 0.0298984 0)
(7.40148 0.0303372 0)
(7.32016 -0.0320514 0)
(7.28758 -0.0252463 0)
(7.28069 -0.0140967 0)
(7.27975 -0.00455748 0)
(7.28192 0.00650108 0)
(7.28854 0.0153374 0)
(7.29664 0.0211162 0)
(7.30442 0.0251332 0)
(7.31183 0.0280982 0)
(7.31896 0.0301932 0)
(7.32565 0.0315958 0)
(7.33185 0.0325068 0)
(7.33757 0.0330675 0)
(7.34284 0.0333653 0)
(7.34771 0.0334632 0)
(7.35219 0.0334107 0)
(7.35633 0.0332455 0)
(7.36015 0.0329957 0)
(7.36368 0.0326823 0)
(7.36697 0.0323222 0)
(7.37002 0.0319286 0)
(7.37287 0.0315127 0)
(7.37553 0.0310843 0)
(7.37802 0.0306523 0)
(7.38037 0.030226 0)
(7.3826 0.0298156 0)
(7.38471 0.0294331 0)
(7.38673 0.0290927 0)
(7.3887 0.0288134 0)
(7.39063 0.0286117 0)
(7.3926 0.0285174 0)
(7.39465 0.0285182 0)
(7.39693 0.0286609 0)
(7.32441 -0.0221713 0)
(7.30054 -0.0208447 0)
(7.2931 -0.0128347 0)
(7.29071 -0.00453516 0)
(7.29137 0.00495569 0)
(7.29565 0.0128529 0)
(7.3014 0.0183635 0)
(7.30722 0.0223246 0)
(7.31294 0.0252839 0)
(7.31855 0.0274259 0)
(7.32392 0.0289183 0)
(7.32899 0.0299364 0)
(7.33375 0.0306078 0)
(7.33822 0.0310154 0)
(7.34243 0.0312199 0)
(7.34637 0.0312688 0)
(7.35008 0.0311985 0)
(7.35358 0.0310364 0)
(7.35688 0.0308036 0)
(7.36 0.0305167 0)
(7.36296 0.0301895 0)
(7.36577 0.029833 0)
(7.36845 0.029457 0)
(7.37102 0.0290707 0)
(7.37348 0.0286827 0)
(7.37586 0.0283021 0)
(7.37816 0.0279391 0)
(7.38041 0.0276044 0)
(7.38263 0.0273101 0)
(7.38486 0.0270651 0)
(7.38714 0.0268794 0)
(7.38952 0.0267373 0)
(7.39209 0.0266312 0)
(7.32735 -0.0153979 0)
(7.30976 -0.0162704 0)
(7.30244 -0.0106192 0)
(7.29932 -0.00378661 0)
(7.29908 0.00415934 0)
(7.30187 0.0110818 0)
(7.30609 0.0162164 0)
(7.31062 0.0200385 0)
(7.31523 0.0229387 0)
(7.31983 0.0250841 0)
(7.32431 0.0266239 0)
(7.32859 0.0277082 0)
(7.33267 0.0284507 0)
(7.33655 0.0289297 0)
(7.34023 0.0292037 0)
(7.34373 0.0293182 0)
(7.34706 0.0293087 0)
(7.35024 0.0292021 0)
(7.35327 0.0290195 0)
(7.35617 0.0287774 0)
(7.35895 0.0284895 0)
(7.36163 0.028167 0)
(7.36421 0.0278195 0)
(7.36671 0.0274555 0)
(7.36913 0.0270831 0)
(7.3715 0.0267102 0)
(7.37383 0.0263443 0)
(7.37612 0.0259927 0)
(7.37841 0.0256618 0)
(7.38073 0.0253538 0)
(7.3831 0.0250668 0)
(7.38558 0.0247813 0)
(7.3882 0.0244697 0)
(7.32939 -0.0103228 0)
(7.31652 -0.0120774 0)
(7.30969 -0.00829738 0)
(7.30624 -0.0028517 0)
(7.30542 0.00374793 0)
(7.30719 0.00977264 0)
(7.31032 0.0144926 0)
(7.31393 0.018128 0)
(7.31775 0.0209357 0)
(7.32163 0.0230529 0)
(7.32547 0.0246079 0)
(7.32918 0.0257282 0)
(7.33276 0.0265142 0)
(7.33619 0.0270391 0)
(7.33949 0.0273586 0)
(7.34264 0.0275164 0)
(7.34567 0.0275468 0)
(7.34857 0.0274761 0)
(7.35137 0.0273251 0)
(7.35407 0.0271104 0)
(7.35668 0.0268453 0)
(7.35921 0.026541 0)
(7.36167 0.0262065 0)
(7.36406 0.02585 0)
(7.36641 0.0254786 0)
(7.36872 0.0250984 0)
(7.371 0.024715 0)
(7.37327 0.0243325 0)
(7.37554 0.0239528 0)
(7.37785 0.0235732 0)
(7.38022 0.0231852 0)
(7.38268 0.0227678 0)
(7.38525 0.0222888 0)
(7.33074 -0.00670189 0)
(7.32148 -0.00859955 0)
(7.31542 -0.00610283 0)
(7.31195 -0.00180915 0)
(7.31077 0.00363639 0)
(7.3118 0.00883478 0)
(7.31411 0.0131123 0)
(7.31701 0.0165173 0)
(7.32021 0.0191979 0)
(7.32353 0.0212567 0)
(7.32688 0.0227989 0)
(7.33016 0.0239305 0)
(7.33336 0.0247391 0)
(7.33645 0.0252915 0)
(7.33944 0.02564 0)
(7.34232 0.0258261 0)
(7.3451 0.0258825 0)
(7.34779 0.025835 0)
(7.3504 0.0257037 0)
(7.35293 0.025505 0)
(7.35538 0.025252 0)
(7.35778 0.0249554 0)
(7.36012 0.0246239 0)
(7.36241 0.0242649 0)
(7.36467 0.0238845 0)
(7.3669 0.0234876 0)
(7.36912 0.0230776 0)
(7.37133 0.0226562 0)
(7.37356 0.0222222 0)
(7.37582 0.0217698 0)
(7.37813 0.0212876 0)
(7.38052 0.0207548 0)
(7.38299 0.0201411 0)
(7.33161 -0.00420193 0)
(7.32508 -0.00581018 0)
(7.31996 -0.00410044 0)
(7.31671 -0.000716456 0)
(7.31534 0.00374703 0)
(7.31583 0.00818995 0)
(7.31753 0.0120124 0)
(7.31985 0.015153 0)
(7.32254 0.0176764 0)
(7.32541 0.0196497 0)
(7.32835 0.0211543 0)
(7.33129 0.022276 0)
(7.33417 0.0230894 0)
(7.33699 0.0236543 0)
(7.33973 0.0240187 0)
(7.34239 0.0242215 0)
(7.34498 0.0242936 0)
(7.34749 0.0242597 0)
(7.34994 0.0241396 0)
(7.35232 0.0239488 0)
(7.35465 0.0237002 0)
(7.35693 0.023404 0)
(7.35916 0.0230684 0)
(7.36136 0.0227001 0)
(7.36353 0.0223043 0)
(7.36569 0.0218847 0)
(7.36783 0.021443 0)
(7.36998 0.0209792 0)
(7.37214 0.02049 0)
(7.37433 0.0199683 0)
(7.37656 0.0194016 0)
(7.37885 0.0187712 0)
(7.3812 0.0180508 0)
(7.33217 -0.00250023 0)
(7.32765 -0.00362246 0)
(7.32352 -0.00234652 0)
(7.32064 0.000351015 0)
(7.31925 0.00400056 0)
(7.31938 0.00776854 0)
(7.3206 0.0111416 0)
(7.32247 0.0139969 0)
(7.32473 0.0163392 0)
(7.32722 0.0182038 0)
(7.32982 0.0196488 0)
(7.33245 0.0207414 0)
(7.33507 0.0215435 0)
(7.33766 0.0221072 0)
(7.34019 0.022476 0)
(7.34267 0.0226854 0)
(7.34509 0.0227645 0)
(7.34745 0.0227367 0)
(7.34976 0.0226206 0)
(7.35202 0.0224315 0)
(7.35424 0.0221815 0)
(7.35641 0.0218803 0)
(7.35855 0.0215356 0)
(7.36066 0.0211534 0)
(7.36275 0.020738 0)
(7.36483 0.0202922 0)
(7.3669 0.0198165 0)
(7.36898 0.0193097 0)
(7.37107 0.0187675 0)
(7.37318 0.0181823 0)
(7.37532 0.0175423 0)
(7.3775 0.0168313 0)
(7.37972 0.0160275 0)
(7.33251 -0.00135797 0)
(7.32945 -0.00195246 0)
(7.32626 -0.000878013 0)
(7.32385 0.00132707 0)
(7.32255 0.00432505 0)
(7.32248 0.00750771 0)
(7.32335 0.0104543 0)
(7.32485 0.0130169 0)
(7.32676 0.0151618 0)
(7.32892 0.0168987 0)
(7.33123 0.0182653 0)
(7.3336 0.0193116 0)
(7.336 0.0200874 0)
(7.33838 0.0206374 0)
(7.34073 0.0209998 0)
(7.34305 0.0212068 0)
(7.34532 0.0212851 0)
(7.34756 0.0212565 0)
(7.34975 0.0211386 0)
(7.3519 0.0209459 0)
(7.35401 0.0206897 0)
(7.35609 0.0203793 0)
(7.35814 0.0200218 0)
(7.36018 0.0196225 0)
(7.36219 0.0191851 0)
(7.36419 0.0187113 0)
(7.36619 0.0182013 0)
(7.3682 0.0176529 0)
(7.37021 0.0170616 0)
(7.37223 0.01642 0)
(7.37428 0.0157178 0)
(7.37635 0.0149414 0)
(7.37844 0.0140735 0)
(7.33272 -0.000604562 0)
(7.33069 -0.000714616 0)
(7.32832 0.000298365 0)
(7.3264 0.00216601 0)
(7.3253 0.00465942 0)
(7.32514 0.00734977 0)
(7.32578 0.00990655 0)
(7.327 0.0121819 0)
(7.32862 0.0141217 0)
(7.33051 0.0157175 0)
(7.33256 0.0169902 0)
(7.33471 0.0179751 0)
(7.3369 0.0187115 0)
(7.3391 0.0192362 0)
(7.34129 0.0195823 0)
(7.34347 0.0197784 0)
(7.34561 0.0198486 0)
(7.34772 0.0198129 0)
(7.34981 0.0196879 0)
(7.35186 0.019487 0)
(7.35388 0.0192207 0)
(7.35588 0.0188978 0)
(7.35785 0.0185247 0)
(7.35981 0.0181062 0)
(7.36175 0.0176452 0)
(7.36368 0.0171432 0)
(7.36561 0.0165997 0)
(7.36753 0.0160124 0)
(7.36947 0.0153768 0)
(7.37141 0.0146864 0)
(7.37336 0.0139324 0)
(7.37532 0.0131039 0)
(7.37729 0.0121875 0)
(7.33284 -0.000117397 0)
(7.33153 0.000175331 0)
(7.32984 0.00120009 0)
(7.3284 0.0028437 0)
(7.32753 0.00495639 0)
(7.32738 0.00724397 0)
(7.32788 0.00945628 0)
(7.3289 0.0114605 0)
(7.33029 0.013196 0)
(7.33195 0.0146433 0)
(7.33379 0.0158109 0)
(7.33574 0.0167225 0)
(7.33775 0.0174078 0)
(7.33979 0.0178968 0)
(7.34184 0.0182175 0)
(7.34388 0.0183948 0)
(7.3459 0.0184502 0)
(7.34791 0.0184019 0)
(7.3499 0.0182649 0)
(7.35186 0.0180517 0)
(7.35379 0.017772 0)
(7.35571 0.0174338 0)
(7.35761 0.017043 0)
(7.35949 0.0166039 0)
(7.36136 0.016119 0)
(7.36322 0.0155892 0)
(7.36508 0.0150141 0)
(7.36693 0.0143912 0)
(7.36878 0.0137166 0)
(7.37064 0.0129847 0)
(7.37249 0.0121884 0)
(7.37435 0.0113191 0)
(7.3762 0.0103667 0)
(7.33292 0.000190333 0)
(7.33209 0.000793969 0)
(7.33093 0.00185925 0)
(7.32991 0.00335502 0)
(7.32929 0.00518451 0)
(7.32921 0.00714935 0)
(7.32965 0.00906575 0)
(7.33053 0.0108227 0)
(7.33176 0.0123618 0)
(7.33323 0.013659 0)
(7.33489 0.0147147 0)
(7.33666 0.0155441 0)
(7.33851 0.0161691 0)
(7.34041 0.0166135 0)
(7.34233 0.0169007 0)
(7.34425 0.0170522 0)
(7.34617 0.0170867 0)
(7.34808 0.0170205 0)
(7.34997 0.0168672 0)
(7.35184 0.016638 0)
(7.3537 0.016342 0)
(7.35554 0.0159864 0)
(7.35737 0.0155764 0)
(7.35918 0.0151159 0)
(7.36098 0.0146072 0)
(7.36277 0.0140509 0)
(7.36456 0.0134464 0)
(7.36633 0.0127917 0)
(7.36811 0.0120835 0)
(7.36988 0.0113171 0)
(7.37164 0.0104869 0)
(7.3734 0.00958641 0)
(7.37514 0.00860827 0)
(7.33296 0.000378736 0)
(7.33245 0.0012067 0)
(7.33171 0.00231462 0)
(7.33104 0.00370941 0)
(7.33065 0.0053278 0)
(7.33067 0.0070367 0)
(7.3311 0.00870379 0)
(7.3319 0.0102408 0)
(7.33299 0.0115966 0)
(7.33432 0.0127472 0)
(7.33583 0.0136887 0)
(7.33746 0.0144303 0)
(7.33917 0.014988 0)
(7.34094 0.0153807 0)
(7.34274 0.0156277 0)
(7.34455 0.0157471 0)
(7.34637 0.0157553 0)
(7.34819 0.0156666 0)
(7.34999 0.015493 0)
(7.35179 0.0152448 0)
(7.35357 0.0149301 0)
(7.35534 0.0145552 0)
(7.3571 0.0141251 0)
(7.35884 0.0136431 0)
(7.36057 0.0131112 0)
(7.36229 0.01253 0)
(7.364 0.0118989 0)
(7.36571 0.0112164 0)
(7.3674 0.0104796 0)
(7.36909 0.009685 0)
(7.37076 0.00882837 0)
(7.37242 0.00790492 0)
(7.37407 0.00690926 0)
(7.33298 0.000488718 0)
(7.33269 0.00146706 0)
(7.33224 0.00260602 0)
(7.33185 0.00392579 0)
(7.33167 0.00538339 0)
(7.33179 0.00688876 0)
(7.33224 0.00834764 0)
(7.33298 0.00969226 0)
(7.33399 0.0108808 0)
(7.33521 0.0118918 0)
(7.3366 0.01272 0)
(7.3381 0.0133712 0)
(7.3397 0.0138571 0)
(7.34135 0.0141928 0)
(7.34304 0.0143941 0)
(7.34476 0.0144764 0)
(7.34648 0.0144537 0)
(7.34821 0.0143385 0)
(7.34994 0.0141414 0)
(7.35166 0.0138715 0)
(7.35337 0.013536 0)
(7.35507 0.0131407 0)
(7.35675 0.0126899 0)
(7.35843 0.0121865 0)
(7.36009 0.0116324 0)
(7.36174 0.0110282 0)
(7.36338 0.0103735 0)
(7.36501 0.00966701 0)
(7.36663 0.00890664 0)
(7.36824 0.00808973 0)
(7.36982 0.00721318 0)
(7.37139 0.00627363 0)
(7.37294 0.0052672 0)
(7.33299 0.000547804 0)
(7.33284 0.00161751 0)
(7.33261 0.00277079 0)
(7.33242 0.00402805 0)
(7.3324 0.00535821 0)
(7.33261 0.00669902 0)
(7.33309 0.00798346 0)
(7.33381 0.00916075 0)
(7.33476 0.0101983 0)
(7.33589 0.0110787 0)
(7.33718 0.0117973 0)
(7.33858 0.0123577 0)
(7.34007 0.0127695 0)
(7.34162 0.0130446 0)
(7.34321 0.0131962 0)
(7.34484 0.0132373 0)
(7.34648 0.01318 0)
(7.34813 0.0130349 0)
(7.34978 0.0128116 0)
(7.35142 0.0125178 0)
(7.35306 0.01216 0)
(7.35469 0.0117434 0)
(7.35631 0.0112717 0)
(7.35792 0.0107476 0)
(7.35952 0.0101727 0)
(7.3611 0.0095476 0)
(7.36267 0.0088722 0)
(7.36423 0.00814555 0)
(7.36577 0.00736619 0)
(7.36729 0.00653219 0)
(7.3688 0.00564144 0)
(7.37028 0.0046916 0)
(7.37173 0.00368003 0)
(7.333 0.000574439 0)
(7.33294 0.00169114 0)
(7.33284 0.00284208 0)
(7.3328 0.00404171 0)
(7.3329 0.0052657 0)
(7.33318 0.00646967 0)
(7.33368 0.00760582 0)
(7.33439 0.00863684 0)
(7.33529 0.0095384 0)
(7.33635 0.0102977 0)
(7.33755 0.0109112 0)
(7.33886 0.0113824 0)
(7.34026 0.0117191 0)
(7.34172 0.0119315 0)
(7.34323 0.0120306 0)
(7.34477 0.0120275 0)
(7.34633 0.0119325 0)
(7.3479 0.0117551 0)
(7.34948 0.0115033 0)
(7.35105 0.011184 0)
(7.35262 0.0108028 0)
(7.35419 0.0103643 0)
(7.35574 0.00987185 0)
(7.35728 0.00932776 0)
(7.35881 0.00873355 0)
(7.36033 0.00808987 0)
(7.36183 0.00739675 0)
(7.36332 0.0066536 0)
(7.36478 0.00585947 0)
(7.36623 0.0050131 0)
(7.36765 0.00411312 0)
(7.36905 0.00315801 0)
(7.37042 0.00214604 0)
(7.333 0.000581047 0)
(7.33299 0.0017135 0)
(7.33299 0.00284844 0)
(7.33304 0.00399187 0)
(7.33321 0.00512309 0)
(7.33354 0.00620938 0)
(7.33405 0.00721655 0)
(7.33473 0.00811781 0)
(7.33559 0.00889599 0)
(7.33659 0.00954253 0)
(7.33772 0.010056 0)
(7.33895 0.01044 0)
(7.34027 0.0107018 0)
(7.34164 0.0108503 0)
(7.34307 0.0108949 0)
(7.34453 0.0108454 0)
(7.34601 0.0107106 0)
(7.34751 0.0104987 0)
(7.34902 0.0102167 0)
(7.35052 0.00987057 0)
(7.35203 0.00946527 0)
(7.35353 0.0090047 0)
(7.35501 0.00849181 0)
(7.35649 0.00792873 0)
(7.35795 0.00731681 0)
(7.3594 0.00665675 0)
(7.36084 0.00594872 0)
(7.36225 0.00519248 0)
(7.36365 0.00438744 0)
(7.36502 0.00353291 0)
(7.36636 0.00262804 0)
(7.36768 0.00167198 0)
(7.36897 0.000663623 0)
(7.333 0.000576193 0)
(7.33302 0.00170455 0)
(7.33306 0.00281433 0)
(7.33316 0.00390233 0)
(7.33337 0.00494961 0)
(7.33372 0.00593136 0)
(7.33422 0.00682329 0)
(7.33487 0.00760704 0)
(7.33568 0.00827152 0)
(7.33662 0.00881219 0)
(7.33767 0.00922975 0)
(7.33883 0.00952871 0)
(7.34007 0.00971598 0)
(7.34136 0.00979974 0)
(7.34271 0.00978857 0)
(7.3441 0.00969086 0)
(7.34551 0.00951444 0)
(7.34693 0.00926636 0)
(7.34837 0.00895275 0)
(7.34981 0.00857878 0)
(7.35124 0.00814873 0)
(7.35268 0.00766598 0)
(7.3541 0.00713313 0)
(7.35551 0.00655206 0)
(7.35691 0.005924 0)
(7.35829 0.00524968 0)
(7.35966 0.00452939 0)
(7.36101 0.00376312 0)
(7.36233 0.00295064 0)
(7.36363 0.00209162 0)
(7.3649 0.00118567 0)
(7.36615 0.000232395 0)
(7.36736 -0.000768893 0)
(7.333 0.000566087 0)
(7.33303 0.00168042 0)
(7.33309 0.00276115 0)
(7.3332 0.00379569 0)
(7.33341 0.00476572 0)
(7.33373 0.00565216 0)
(7.3342 0.00643843 0)
(7.33481 0.00711317 0)
(7.33556 0.00767072 0)
(7.33643 0.00811031 0)
(7.33741 0.0084349 0)
(7.33849 0.00865004 0)
(7.33964 0.00876285 0)
(7.34086 0.0087811 0)
(7.34213 0.00871269 0)
(7.34344 0.00856514 0)
(7.34478 0.00834537 0)
(7.34613 0.00805954 0)
(7.3475 0.00771298 0)
(7.34887 0.00731016 0)
(7.35024 0.00685477 0)
(7.35161 0.00634974 0)
(7.35297 0.00579731 0)
(7.35432 0.00519913 0)
(7.35565 0.00455634 0)
(7.35697 0.00386963 0)
(7.35828 0.00313942 0)
(7.35956 0.00236584 0)
(7.36081 0.00154893 0)
(7.36205 0.000688624 0)
(7.36325 -0.00021512 0)
(7.36442 -0.00116243 0)
(7.36556 -0.00215367 0)
(7.333 0.000555666 0)
(7.33302 0.00165511 0)
(7.33307 0.00270869 0)
(7.33316 0.00369415 0)
(7.33333 0.00459315 0)
(7.33361 0.00539125 0)
(7.33402 0.00607841 0)
(7.33456 0.00664958 0)
(7.33523 0.00710424 0)
(7.33602 0.0074453 0)
(7.33691 0.00767809 0)
(7.33791 0.00780944 0)
(7.33898 0.00784689 0)
(7.34011 0.00779814 0)
(7.3413 0.00767061 0)
(7.34253 0.00747118 0)
(7.3438 0.00720603 0)
(7.34508 0.00688058 0)
(7.34638 0.00649947 0)
(7.34768 0.00606657 0)
(7.34899 0.00558502 0)
(7.35029 0.00505734 0)
(7.35159 0.00448544 0)
(7.35288 0.00387077 0)
(7.35416 0.00321431 0)
(7.35541 0.00251676 0)
(7.35665 0.00177855 0)
(7.35787 0.000999948 0)
(7.35907 0.000181138 0)
(7.36024 -0.000677726 0)
(7.36138 -0.00157652 0)
(7.36249 -0.00251515 0)
(7.36356 -0.00349379 0)
(7.333 0.000549442 0)
(7.333 0.00164216 0)
(7.333 0.00267691 0)
(7.33304 0.00362105 0)
(7.33314 0.00445589 0)
(7.33334 0.00517143 0)
(7.33365 0.00576382 0)
(7.3341 0.00623425 0)
(7.33467 0.00658741 0)
(7.33536 0.00683006 0)
(7.33616 0.00697011 0)
(7.33706 0.00701587 0)
(7.33804 0.00697559 0)
(7.33909 0.00685707 0)
(7.34019 0.00666748 0)
(7.34134 0.00641321 0)
(7.34253 0.00609987 0)
(7.34374 0.00573225 0)
(7.34497 0.00531439 0)
(7.34621 0.0048496 0)
(7.34745 0.00434056 0)
(7.3487 0.00378937 0)
(7.34994 0.00319766 0)
(7.35117 0.00256662 0)
(7.35239 0.00189712 0)
(7.35359 0.00118978 0)
(7.35477 0.000445027 0)
(7.35593 -0.000336818 0)
(7.35707 -0.00115548 0)
(7.35818 -0.00201072 0)
(7.35927 -0.00290227 0)
(7.36032 -0.00382996 0)
(7.36133 -0.00479383 0)
(7.333 0.000552286 0)
(7.33297 0.00165656 0)
(7.3329 0.00268838 0)
(7.33283 0.00360315 0)
(7.33282 0.00438208 0)
(7.3329 0.00502013 0)
(7.33309 0.00552014 0)
(7.33341 0.00589006 0)
(7.33386 0.00614027 0)
(7.33443 0.00628179 0)
(7.33512 0.00632545 0)
(7.3359 0.00628139 0)
(7.33678 0.00615879 0)
(7.33774 0.00596579 0)
(7.33875 0.00570948 0)
(7.33982 0.00539595 0)
(7.34093 0.0050303 0)
(7.34207 0.00461683 0)
(7.34323 0.004159 0)
(7.34441 0.00365964 0)
(7.3456 0.00312098 0)
(7.34679 0.00254472 0)
(7.34797 0.00193217 0)
(7.34915 0.00128429 0)
(7.35032 0.000601785 0)
(7.35147 -0.00011485 0)
(7.3526 -0.000865229 0)
(7.35372 -0.00164906 0)
(7.35481 -0.00246605 0)
(7.35587 -0.00331593 0)
(7.3569 -0.00419841 0)
(7.3579 -0.00511327 0)
(7.35887 -0.00606052 0)
(7.333 0.000570383 0)
(7.33291 0.0017173 0)
(7.33273 0.00277152 0)
(7.33252 0.003674 0)
(7.33235 0.00440692 0)
(7.33226 0.00497173 0)
(7.33228 0.00537933 0)
(7.33244 0.00564565 0)
(7.33273 0.00578772 0)
(7.33316 0.0058216 0)
(7.33371 0.00576158 0)
(7.33438 0.00562003 0)
(7.33515 0.00540741 0)
(7.336 0.00513246 0)
(7.33693 0.00480236 0)
(7.33791 0.004423 0)
(7.33895 0.00399911 0)
(7.34002 0.00353449 0)
(7.34113 0.00303213 0)
(7.34225 0.00249434 0)
(7.34338 0.00192289 0)
(7.34452 0.00131911 0)
(7.34566 0.000683924 0)
(7.3468 1.80444e-05 0)
(7.34793 -0.000678067 0)
(7.34904 -0.00140406 0)
(7.35013 -0.00215969 0)
(7.3512 -0.00294474 0)
(7.35225 -0.00375899 0)
(7.35328 -0.0046022 0)
(7.35427 -0.00547413 0)
(7.35523 -0.00637457 0)
(7.35616 -0.00730358 0)
(7.33299 0.000612679 0)
(7.33282 0.00185126 0)
(7.33248 0.00296556 0)
(7.33207 0.00387889 0)
(7.33167 0.004577 0)
(7.33135 0.0050708 0)
(7.33115 0.00538185 0)
(7.3311 0.00553628 0)
(7.3312 0.00555945 0)
(7.33146 0.00547359 0)
(7.33186 0.00529729 0)
(7.33239 0.00504576 0)
(7.33304 0.00473114 0)
(7.3338 0.00436299 0)
(7.33464 0.00394879 0)
(7.33555 0.0034943 0)
(7.33652 0.00300391 0)
(7.33754 0.00248095 0)
(7.33859 0.00192787 0)
(7.33967 0.00134646 0)
(7.34077 0.000737973 0)
(7.34187 0.000103265 0)
(7.34298 -0.000557105 0)
(7.34409 -0.00124281 0)
(7.34518 -0.00195367 0)
(7.34627 -0.00268958 0)
(7.34734 -0.0034505 0)
(7.34839 -0.00423637 0)
(7.34941 -0.0050471 0)
(7.35041 -0.00588258 0)
(7.35138 -0.00674267 0)
(7.35231 -0.00762726 0)
(7.35322 -0.00853647 0)
(7.33298 0.000693464 0)
(7.33269 0.00209967 0)
(7.33211 0.00332841 0)
(7.33139 0.00428221 0)
(7.33067 0.00495621 0)
(7.33004 0.00537613 0)
(7.32955 0.00557873 0)
(7.32924 0.0056041 0)
(7.32912 0.00548862 0)
(7.32919 0.00526239 0)
(7.32943 0.00494953 0)
(7.32983 0.00456879 0)
(7.33037 0.00413442 0)
(7.33103 0.00365706 0)
(7.33179 0.0031445 0)
(7.33265 0.00260238 0)
(7.33357 0.00203468 0)
(7.33455 0.00144414 0)
(7.33557 0.000832567 0)
(7.33663 0.000201104 0)
(7.33771 -0.000449629 0)
(7.3388 -0.00111935 0)
(7.33989 -0.00180803 0)
(7.34099 -0.00251579 0)
(7.34208 -0.00324285 0)
(7.34316 -0.00398945 0)
(7.34422 -0.00475584 0)
(7.34526 -0.00554221 0)
(7.34627 -0.00634871 0)
(7.34726 -0.0071754 0)
(7.34822 -0.00802234 0)
(7.34915 -0.00888955 0)
(7.35004 -0.0097773 0)
(7.33297 0.000837292 0)
(7.33247 0.0025296 0)
(7.33152 0.00394929 0)
(7.33036 0.00497839 0)
(7.3292 0.00563362 0)
(7.32815 0.00596492 0)
(7.3273 0.00603228 0)
(7.32669 0.00589609 0)
(7.32631 0.00560778 0)
(7.32617 0.00520785 0)
(7.32625 0.00472731 0)
(7.32653 0.00418927 0)
(7.32698 0.00361035 0)
(7.32757 0.00300221 0)
(7.32829 0.0023728 0)
(7.32912 0.00172739 0)
(7.33002 0.00106923 0)
(7.331 0.000400226 0)
(7.33202 -0.000278741 0)
(7.33308 -0.000967417 0)
(7.33417 -0.00166604 0)
(7.33528 -0.00237508 0)
(7.33639 -0.00309522 0)
(7.3375 -0.00382718 0)
(7.33861 -0.00457173 0)
(7.3397 -0.00532957 0)
(7.34077 -0.00610135 0)
(7.34183 -0.00688761 0)
(7.34286 -0.00768883 0)
(7.34386 -0.00850533 0)
(7.34483 -0.00933742 0)
(7.34576 -0.0101853 0)
(7.34666 -0.0110495 0)
(7.33294 0.00108914 0)
(7.33211 0.00325435 0)
(7.33057 0.00496868 0)
(7.32876 0.00610691 0)
(7.32698 0.006732 0)
(7.3254 0.00693478 0)
(7.32411 0.00681266 0)
(7.32315 0.00645686 0)
(7.32251 0.00593965 0)
(7.32218 0.00531477 0)
(7.32213 0.00462154 0)
(7.32232 0.00388765 0)
(7.32273 0.00313179 0)
(7.3233 0.00236599 0)
(7.32403 0.0015977 0)
(7.32487 0.000831056 0)
(7.32581 6.80361e-05 0)
(7.32682 -0.00069091 0)
(7.32789 -0.00144624 0)
(7.329 -0.00219902 0)
(7.33014 -0.00295064 0)
(7.3313 -0.00370266 0)
(7.33246 -0.00445664 0)
(7.33362 -0.00521415 0)
(7.33477 -0.00597662 0)
(7.33591 -0.0067454 0)
(7.33703 -0.00752163 0)
(7.33813 -0.00830636 0)
(7.3392 -0.00910042 0)
(7.34024 -0.00990454 0)
(7.34124 -0.0107193 0)
(7.34221 -0.0115452 0)
(7.34314 -0.012383 0)
(7.33289 0.00153843 0)
(7.33145 0.00447309 0)
(7.32898 0.00660914 0)
(7.32621 0.00786919 0)
(7.32361 0.00841164 0)
(7.32136 0.00839672 0)
(7.31957 0.00798405 0)
(7.31826 0.00731172 0)
(7.31739 0.00647957 0)
(7.31693 0.00555663 0)
(7.31682 0.00459046 0)
(7.31701 0.00361221 0)
(7.31745 0.00264089 0)
(7.31809 0.00168723 0)
(7.31889 0.000756554 0)
(7.31983 -0.000149344 0)
(7.32086 -0.0010309 0)
(7.32198 -0.00188992 0)
(7.32315 -0.00272895 0)
(7.32437 -0.00355087 0)
(7.32561 -0.0043587 0)
(7.32687 -0.00515537 0)
(7.32813 -0.00594368 0)
(7.32938 -0.00672621 0)
(7.33062 -0.00750529 0)
(7.33185 -0.00828301 0)
(7.33305 -0.00906121 0)
(7.33422 -0.00984146 0)
(7.33536 -0.0106251 0)
(7.33646 -0.0114133 0)
(7.33753 -0.0122071 0)
(7.33856 -0.0130072 0)
(7.33954 -0.0138146 0)
(7.33277 0.0023746 0)
(7.33022 0.00655429 0)
(7.32624 0.00923209 0)
(7.3221 0.0105486 0)
(7.31843 0.0108594 0)
(7.31541 0.010445 0)
(7.31313 0.00956702 0)
(7.31155 0.00842958 0)
(7.31057 0.00716282 0)
(7.31011 0.00584831 0)
(7.31008 0.00453793 0)
(7.31039 0.00326193 0)
(7.31098 0.00203559 0)
(7.3118 0.000865039 0)
(7.31279 -0.000249024 0)
(7.31392 -0.00130908 0)
(7.31515 -0.00231943 0)
(7.31646 -0.00328521 0)
(7.31781 -0.00421185 0)
(7.31921 -0.00510469 0)
(7.32062 -0.0059688 0)
(7.32204 -0.00680887 0)
(7.32346 -0.00762917 0)
(7.32486 -0.00843351 0)
(7.32624 -0.00922531 0)
(7.3276 -0.0100075 0)
(7.32892 -0.0107828 0)
(7.33021 -0.0115533 0)
(7.33146 -0.0123211 0)
(7.33267 -0.0130876 0)
(7.33383 -0.0138545 0)
(7.33495 -0.0146228 0)
(7.33602 -0.0153938 0)
(7.33248 0.00396232 0)
(7.32783 0.010156 0)
(7.32139 0.0134328 0)
(7.31537 0.0145616 0)
(7.31044 0.0142918 0)
(7.3067 0.013128 0)
(7.30409 0.0114987 0)
(7.30245 0.00968514 0)
(7.30159 0.007833 0)
(7.30135 0.00602156 0)
(7.30161 0.0042957 0)
(7.30225 0.00267528 0)
(7.30318 0.00116438 0)
(7.30434 -0.000240841 0)
(7.30567 -0.0015479 0)
(7.30712 -0.00276612 0)
(7.30867 -0.00390541 0)
(7.31028 -0.00497551 0)
(7.31193 -0.00598558 0)
(7.3136 -0.00694401 0)
(7.31528 -0.00785836 0)
(7.31695 -0.00873536 0)
(7.3186 -0.00958094 0)
(7.32022 -0.0104003 0)
(7.32181 -0.0111981 0)
(7.32337 -0.0119781 0)
(7.32488 -0.0127439 0)
(7.32634 -0.0134983 0)
(7.32775 -0.0142438 0)
(7.32912 -0.0149827 0)
(7.33042 -0.0157166 0)
(7.33168 -0.0164472 0)
(7.33288 -0.017176 0)
(7.33192 0.0069234 0)
(7.32311 0.016136 0)
(7.31274 0.0198085 0)
(7.30432 0.0202549 0)
(7.29817 0.0188168 0)
(7.29399 0.016358 0)
(7.29147 0.013573 0)
(7.29022 0.0108083 0)
(7.28988 0.00818088 0)
(7.29022 0.00573993 0)
(7.29109 0.00350814 0)
(7.29235 0.00148377 0)
(7.29388 -0.00034888 0)
(7.29563 -0.00200956 0)
(7.29752 -0.00351823 0)
(7.2995 -0.004894 0)
(7.30156 -0.00615469 0)
(7.30364 -0.00731637 0)
(7.30574 -0.00839324 0)
(7.30784 -0.00939776 0)
(7.30991 -0.0103408 0)
(7.31195 -0.0112317 0)
(7.31395 -0.0120786 0)
(7.31591 -0.0128886 0)
(7.31781 -0.0136675 0)
(7.31966 -0.0144206 0)
(7.32144 -0.0151522 0)
(7.32316 -0.0158662 0)
(7.32482 -0.0165658 0)
(7.3264 -0.0172538 0)
(7.32793 -0.0179327 0)
(7.32938 -0.0186045 0)
(7.33077 -0.0192715 0)
(7.33066 0.0138159 0)
(7.31338 0.0263447 0)
(7.29717 0.0284465 0)
(7.28626 0.0270596 0)
(7.27934 0.023882 0)
(7.27544 0.0198555 0)
(7.27381 0.0158607 0)
(7.27367 0.0121994 0)
(7.2745 0.00887279 0)
(7.27603 0.00586364 0)
(7.27805 0.00316235 0)
(7.28042 0.00074343 0)
(7.28302 -0.00142554 0)
(7.28577 -0.00337482 0)
(7.28861 -0.00513119 0)
(7.29149 -0.00671898 0)
(7.29438 -0.00816035 0)
(7.29725 -0.00947497 0)
(7.30008 -0.0106801 0)
(7.30286 -0.0117909 0)
(7.30557 -0.0128203 0)
(7.30821 -0.0137798 0)
(7.31077 -0.0146794 0)
(7.31324 -0.0155274 0)
(7.31563 -0.0163313 0)
(7.31793 -0.0170975 0)
(7.32013 -0.0178313 0)
(7.32225 -0.0185377 0)
(7.32428 -0.0192204 0)
(7.32621 -0.019883 0)
(7.32805 -0.0205282 0)
(7.32981 -0.0211582 0)
(7.33147 -0.0217748 0)
(7.32447 0.0352528 0)
(7.28905 0.048415 0)
(7.26649 0.0395872 0)
(7.25598 0.0291984 0)
(7.2507 0.019877 0)
(7.2489 0.0120323 0)
(7.24973 0.00591091 0)
(7.25205 0.00117341 0)
(7.25519 -0.00258548 0)
(7.25891 -0.00560185 0)
(7.26304 -0.00802912 0)
(7.26741 -0.0100063 0)
(7.2719 -0.0116459 0)
(7.27643 -0.0130288 0)
(7.28094 -0.0142127 0)
(7.28539 -0.0152414 0)
(7.28973 -0.0161485 0)
(7.29396 -0.0169598 0)
(7.29806 -0.0176951 0)
(7.30201 -0.0183699 0)
(7.30581 -0.0189962 0)
(7.30946 -0.0195836 0)
(7.31296 -0.0201396 0)
(7.3163 -0.0206703 0)
(7.3195 -0.0211807 0)
(7.32254 -0.0216746 0)
(7.32544 -0.0221553 0)
(7.3282 -0.0226254 0)
(7.33082 -0.0230874 0)
(7.3333 -0.0235432 0)
(7.33566 -0.0239949 0)
(7.3379 -0.0244448 0)
(7.34002 -0.0248956 0)
(7.29541 0.0831414 0)
(7.21833 0.128044 0)
(7.18707 0.129005 0)
(7.18632 0.113963 0)
(7.19295 0.0941331 0)
(7.20193 0.0760894 0)
(7.21231 0.0610601 0)
(7.22297 0.0481495 0)
(7.2335 0.0368355 0)
(7.24384 0.0270198 0)
(7.25389 0.0186055 0)
(7.26354 0.011435 0)
(7.27271 0.00533931 0)
(7.28139 0.000167394 0)
(7.2896 -0.00421553 0)
(7.29732 -0.00793102 0)
(7.30459 -0.0110859 0)
(7.31143 -0.0137713 0)
(7.31784 -0.016064 0)
(7.32387 -0.0180284 0)
(7.32953 -0.0197184 0)
(7.33484 -0.0211792 0)
(7.33982 -0.0224482 0)
(7.3445 -0.0235566 0)
(7.34888 -0.0245306 0)
(7.35299 -0.0253917 0)
(7.35685 -0.0261581 0)
(7.36046 -0.0268447 0)
(7.36384 -0.0274642 0)
(7.367 -0.0280266 0)
(7.36996 -0.0285405 0)
(7.37271 -0.0290117 0)
(7.37527 -0.0294477 0)
(7.32717 -0.156814 0)
(7.19692 -0.284093 0)
(7.13361 -0.280647 0)
(7.11314 -0.247167 0)
(7.11508 -0.214556 0)
(7.13554 -0.184255 0)
(7.16564 -0.157031 0)
(7.19803 -0.134037 0)
(7.22997 -0.115224 0)
(7.26033 -0.0998992 0)
(7.28836 -0.0873966 0)
(7.31374 -0.0772176 0)
(7.33648 -0.0689537 0)
(7.35673 -0.0622471 0)
(7.37472 -0.0567962 0)
(7.39067 -0.0523582 0)
(7.40478 -0.0487392 0)
(7.41726 -0.0457835 0)
(7.42829 -0.0433656 0)
(7.43804 -0.0413847 0)
(7.44666 -0.0397599 0)
(7.45426 -0.0384263 0)
(7.46097 -0.0373314 0)
(7.46688 -0.036433 0)
(7.47207 -0.0356969 0)
(7.47663 -0.0350952 0)
(7.48061 -0.0346055 0)
(7.48409 -0.0342092 0)
(7.4871 -0.0338913 0)
(7.4897 -0.0336392 0)
(7.49193 -0.0334419 0)
(7.49383 -0.0332908 0)
(7.49546 -0.0331743 0)
(7.33086 1.21499 0)
(7.63822 1.23053 0)
(7.81865 0.920168 0)
(7.8759 0.647915 0)
(7.88919 0.449902 0)
(7.88325 0.310866 0)
(7.8619 0.213001 0)
(7.83006 0.143228 0)
(7.79308 0.0928982 0)