/*--------------------------------*- C++ -*----------------------------------*\
| =========                 |                                                 |
| \\      /  F ield         | OpenFOAM: The Open Source CFD Toolbox           |
|  \\    /   O peration     | Version:  4.1                                   |
|   \\  /    A nd           | Web:      www.OpenFOAM.org                      |
|    \\/     M anipulation  |                                                 |
\*---------------------------------------------------------------------------*/
FoamFile
{
    version     2.0;
    format      ascii;
    class       volScalarField;
    location    "1700";
    object      p;
}
// * * * * * * * * * * * * * * * * * * * * * * * * * * * * * * * * * * * * * //

dimensions      [0 2 -2 0 0 0 0];

internalField   nonuniform List<scalar> 
26785
(
2567.08
2581.94
2601.42
2624.65
2650.16
2675.79
2700.03
2721.67
2739.53
2752.42
2759.33
2759.11
2750.38
2728.59
2690.24
2635.02
2562.54
2471.79
2363.59
2241.15
2108.2
1968.32
1825.34
1683.78
1548.91
1426.76
1323.91
1247.2
1203.04
1196.71
1232.43
1310.19
1429.41
1592.93
1794.28
2016.05
2247.19
2483.79
2721.1
2953.38
3177.22
3391.33
3595.23
3788.66
3971.47
4143.26
4303.22
4449.73
4581.57
4690.5
4777.6
4842.67
4889.13
4932.93
5008.14
5126.39
5241.64
5314.82
5344.04
5362.08
5395.18
5435.64
5458.32
5450.77
5438.81
5434.14
5420.61
5367.98
5293.24
5219.67
5156.29
5072.17
4923.96
4711.11
4580.28
4535.92
4465.88
4338.84
4179.1
4004.98
3826.82
3641.53
3449.85
3259.35
3076.07
2900.18
2730.9
2571.34
2421.46
2280.32
2137.82
1960.03
1743.43
1541.34
1344.79
1097.84
773.125
370.949
84.3599
-24.9119
2566.98
2581.89
2601.38
2624.6
2650.11
2675.76
2700.02
2721.68
2739.57
2752.48
2759.43
2759.24
2750.61
2728.88
2690.51
2635.28
2562.77
2471.91
2363.58
2241.03
2107.98
1967.99
1824.91
1683.23
1548.22
1425.92
1322.91
1246.03
1201.7
1195.2
1230.83
1308.39
1427.36
1591.05
1792.75
2014.67
2245.92
2482.72
2720.18
2952.55
3176.44
3390.59
3594.5
3787.94
3970.79
4142.63
4302.64
4449.23
4581.33
4690.78
4778.73
4843.05
4888.33
4930.95
5005.73
5125.73
5242.38
5316.33
5344.26
5361.16
5394.45
5436.44
5460.45
5452.47
5438.75
5433.88
5419.43
5367.45
5293.14
5218.04
5153.55
5070.17
4919.67
4699.12
4575.62
4551.64
4477.51
4339.03
4177.56
4004.47
3826.74
3642.62
3452.35
3261.21
3076.5
2901.14
2733.83
2574.91
2423.09
2278.24
2133.15
1955.31
1737.05
1534.85
1343.36
1099.6
765.886
342.526
57.1557
-28.7575
2566.8
2581.81
2601.29
2624.49
2650.01
2675.7
2700
2721.71
2739.64
2752.61
2759.63
2759.51
2751.05
2729.45
2691.03
2635.77
2563.2
2472.14
2363.55
2240.79
2107.53
1967.34
1824.05
1682.13
1546.87
1424.29
1320.96
1243.74
1199.08
1192.23
1227.67
1304.82
1423.36
1587.37
1789.74
2011.92
2243.41
2480.59
2718.36
2950.9
3174.88
3389.08
3593.01
3786.48
3969.38
4141.33
4301.52
4448.31
4581.03
4691.46
4781
4844.08
4887.01
4927.19
5000.9
5124.4
5244.07
5319.15
5344.7
5359.87
5393.02
5436.94
5463.17
5457.19
5443
5433.37
5413.88
5364.91
5295.74
5221.87
5153.22
5067.98
4921.33
4709.2
4575.5
4529.94
4458.88
4322.12
4169.12
4002.45
3827.71
3646.1
3459.12
3270.15
3084.85
2907.41
2738.72
2578.48
2424.9
2276.01
2122.85
1945.5
1739.92
1536.23
1329.45
1072.55
738.723
303.541
39.9265
-31.0327
2566.57
2581.71
2601.17
2624.33
2649.87
2675.6
2699.97
2721.74
2739.74
2752.79
2759.93
2759.89
2751.69
2730.25
2691.76
2636.49
2563.83
2472.46
2363.5
2240.42
2106.87
1966.39
1822.78
1680.53
1544.9
1421.89
1318.1
1240.38
1195.24
1187.89
1223.03
1299.59
1417.59
1582.06
1785.3
2007.86
2239.71
2477.45
2715.66
2948.44
3172.58
3386.85
3590.8
3784.29
3967.28
4139.42
4299.93
4447.15
4580.83
4692.42
4784.35
4846.12
4885.69
4922
4994.05
5122.79
5246.65
5322.83
5345.15
5357.75
5390.84
5436.86
5465.32
5461.79
5448.32
5435.13
5411.04
5362.6
5296.52
5224.86
5154.15
5065.46
4922.67
4735.91
4605.93
4537.1
4447.52
4311.09
4162.4
3999.68
3827.48
3647.34
3462.06
3275.07
3090.84
2913.29
2744.74
2584.23
2429.67
2277.87
2118.52
1936.88
1733.74
1528.3
1313.61
1057.21
736.079
334.054
54.6958
-27.3857
2566.29
2581.57
2601
2624.1
2649.67
2675.47
2699.92
2721.77
2739.88
2753.02
2760.31
2760.39
2752.51
2731.27
2692.69
2637.41
2564.62
2472.84
2363.42
2239.93
2106.01
1965.15
1821.14
1678.45
1542.32
1418.76
1314.37
1236
1190.21
1182.2
1216.97
1292.76
1410.2
1575.26
1779.54
2002.55
2234.9
2473.36
2712.12
2945.23
3169.55
3383.92
3587.9
3781.42
3964.52
4136.92
4297.93
4445.85
4580.77
4693.48
4788.54
4849.39
4884.85
4915.85
4985.44
5121.01
5249.83
5326.9
5345.63
5356.9
5390.64
5437.79
5466.88
5466.33
5454.2
5438.8
5411.67
5363.36
5298.79
5227.81
5155.81
5065.33
4927.63
4761.15
4635.56
4550.81
4447.39
4307.61
4159.57
3998.71
3828.58
3649.83
3465.54
3279.47
3096.11
2918.96
2749.87
2587.37
2430.95
2276.91
2114.63
1932.81
1731.76
1521.62
1295.92
1036.45
728.848
375.023
122.168
23.9987
2565.95
2581.42
2600.8
2623.83
2649.42
2675.3
2699.85
2721.81
2740.04
2753.3
2760.78
2761
2753.48
2732.46
2693.77
2638.5
2565.55
2473.26
2363.29
2239.33
2104.96
1963.64
1819.13
1675.88
1539.14
1414.9
1309.74
1230.55
1183.97
1175.12
1209.41
1284.28
1401.2
1567
1772.44
1996
2229
2468.33
2707.77
2941.28
3165.85
3380.33
3584.34
3777.91
3961.14
4133.88
4295.55
4444.47
4580.88
4694.47
4793.23
4853.76
4884.22
4908.87
4975.22
5118.68
5253.85
5329.56
5347.01
5359.17
5394.03
5441.3
5470.96
5472.25
5460.17
5442.99
5413.86
5365.84
5302.47
5231.39
5157.79
5066.2
4934.98
4784.92
4660.3
4560.12
4448.85
4307.52
4158.96
3998.93
3830.12
3652.72
3469.56
3284.25
3101.21
2923.91
2753.96
2589.37
2430.26
2272.98
2107.39
1925.48
1726.55
1514.48
1283.93
1025.05
728.252
405.362
170.632
51.9302
2565.6
2581.27
2600.61
2623.54
2649.14
2675.11
2699.76
2721.86
2740.22
2753.63
2761.33
2761.7
2754.59
2733.79
2694.99
2639.75
2566.57
2473.7
2363.12
2238.62
2103.74
1961.87
1816.76
1672.86
1535.37
1410.29
1304.2
1224
1176.43
1166.56
1200.28
1274.05
1390.51
1557.22
1763.94
1988.13
2221.95
2462.33
2702.56
2936.57
3161.45
3376.09
3580.16
3773.77
3957.16
4130.29
4292.76
4443
4581.11
4695.21
4797.99
4859.16
4883.92
4901.31
4963.69
5114.95
5253.68
5330.29
5349.91
5367.07
5403.81
5450.3
5479.07
5480.08
5467.42
5448.53
5417.83
5369.87
5307.48
5236.19
5160.8
5068.51
4943.59
4804.75
4681.33
4570.17
4452.28
4309.91
4160.41
4000.6
3832.29
3655.61
3473.23
3288.73
3106.43
2929.38
2758.74
2592.34
2430.48
2270.05
2101.56
1918.87
1720.42
1506.72
1274.22
1018.04
732.072
434.453
214.312
74.4446
2565.28
2581.14
2600.4
2623.21
2648.82
2674.88
2699.67
2721.9
2740.43
2754
2761.95
2762.48
2755.82
2735.23
2696.33
2641.13
2567.65
2474.13
2362.89
2237.81
2102.34
1959.84
1814.04
1669.37
1531.01
1404.93
1297.73
1216.32
1167.59
1156.5
1189.56
1262.03
1378.12
1545.92
1753.96
1978.88
2213.69
2455.28
2696.43
2931.04
3156.33
3371.18
3575.33
3769.01
3952.57
4126.13
4289.49
4441.29
4581.42
4695.53
4801.01
4866.35
4885.44
4893.35
4950.35
5109.26
5250.18
5331.16
5358.57
5380.79
5419.33
5463.37
5489.61
5489.61
5476.36
5455.78
5423.76
5375.6
5313.74
5242.31
5164.92
5072.27
4953.85
4822.52
4699.19
4581.64
4458.35
4314.61
4163.85
4003.75
3835.44
3658.99
3476.91
3292.89
3111.22
2934.49
2762.99
2594.67
2429.95
2266.52
2095.84
1912.4
1714.24
1500.39
1268.84
1017.77
745.446
471.335
258.957
97.6872
2564.98
2581.03
2600.2
2622.87
2648.47
2674.63
2699.55
2721.94
2740.65
2754.4
2762.65
2763.34
2757.13
2736.76
2697.75
2642.61
2568.76
2474.53
2362.62
2236.91
2100.79
1957.57
1810.98
1665.42
1526.05
1398.81
1290.32
1207.51
1157.42
1144.92
1177.24
1248.22
1364.08
1533.12
1742.53
1968.22
2204.17
2447.12
2689.3
2924.64
3150.42
3365.54
3569.81
3763.58
3947.32
4121.33
4285.58
4439.09
4581.65
4695.85
4802.72
4873.99
4887.78
4884.85
4934.96
5101.89
5245.1
5333.49
5369.72
5397.72
5437.3
5478.16
5501.42
5500.55
5486.76
5464.67
5431.6
5383.1
5321.46
5250.02
5170.72
5077.66
4964.81
4839.44
4715.44
4594.03
4466.48
4321.39
4169.21
4008.43
3839.78
3663.3
3481.38
3297.73
3116.64
2940.22
2767.71
2597.14
2429.38
2263.03
2090.36
1905.92
1707.66
1494.33
1265.07
1019.65
760.235
506.479
299.328
117.075
2564.69
2580.94
2600.01
2622.52
2648.1
2674.35
2699.42
2721.99
2740.89
2754.84
2763.4
2764.27
2758.52
2738.34
2699.26
2644.16
2569.87
2474.92
2362.31
2235.93
2099.08
1955.07
1807.59
1661.01
1520.49
1391.93
1281.97
1197.56
1145.93
1131.81
1163.33
1232.64
1348.42
1518.87
1729.64
1956.16
2193.39
2437.81
2681.13
2917.3
3143.66
3359.13
3563.56
3757.44
3941.37
4115.79
4280.84
4435.93
4580.26
4694.81
4805.42
4879.04
4888.49
4878.55
4919.86
5093.58
5240.7
5337.11
5382.37
5416.12
5456.15
5493.92
5514.44
5512.92
5498.56
5475.2
5441.26
5392.38
5330.68
5259.26
5178.73
5085.36
4976.3
4855.74
4731.35
4607.33
4476.28
4329.94
4176.31
4014.61
3845.4
3668.8
3487.09
3303.88
3123.16
2946.62
2772.84
2599.84
2428.83
2259.56
2085.11
1899.6
1701.12
1488.6
1262.01
1022.11
773.708
534.723
330.788
131.266
2564.42
2580.88
2599.82
2622.17
2647.71
2674.06
2699.28
2722.03
2741.14
2755.3
2764.22
2765.25
2759.94
2739.95
2700.83
2645.75
2570.96
2475.29
2361.98
2234.87
2097.23
1952.33
1803.86
1656.15
1514.34
1384.28
1272.67
1186.46
1133.11
1117.17
1147.83
1215.27
1331.17
1503.18
1715.3
1942.69
2181.34
2427.34
2671.88
2908.97
3136.02
3351.89
3556.53
3750.55
3934.66
4109.41
4275.04
4431.07
4575.81
4691.84
4806.49
4881.74
4892.06
4874.54
4906.81
5087.18
5239.12
5342.38
5396.28
5435.34
5475.59
5510.69
5528.86
5526.85
5511.92
5487.46
5452.77
5403.47
5341.47
5269.93
5188.77
5095.51
4988.8
4871.62
4747.51
4621.52
4487.6
4340.09
4185.06
4022.34
3852.43
3675.66
3494.21
3311.42
3130.74
2953.54
2778.3
2603.06
2428.68
2256.23
2079.97
1893.51
1694.9
1483.4
1259.49
1024.7
785.759
556.667
353.812
141.036
2564.19
2580.84
2599.66
2621.84
2647.33
2673.75
2699.12
2722.06
2741.4
2755.78
2765.09
2766.29
2761.38
2741.57
2702.44
2647.36
2572.04
2475.64
2361.62
2233.75
2095.24
1949.36
1799.8
1650.85
1507.59
1375.88
1262.43
1174.21
1118.94
1100.98
1130.73
1196.13
1312.35
1486.08
1699.51
1927.83
2168.02
2415.67
2661.51
2899.64
3127.45
3343.79
3548.69
3742.86
3927.13
4102.13
4268.13
4424.52
4569.34
4689.33
4811.53
4883.27
4892.36
4872.51
4908.47
5085.77
5241.08
5349.99
5411.44
5455.26
5495.69
5528.58
5544.86
5542.42
5526.95
5501.51
5466.15
5416.46
5354.04
5282.21
5200.7
5107.93
5002.84
4887.54
4764.09
4636.58
4500.38
4351.77
4195.42
4031.64
3861.01
3684.07
3502.89
3320.4
3139.42
2961.1
2784.27
2607.07
2429.63
2253.38
2074.96
1887.88
1689.21
1478.87
1257.59
1027.51
796.346
574.022
371.185
148.488
2563.99
2580.81
2599.49
2621.52
2646.96
2673.45
2698.96
2722.09
2741.66
2756.28
2766.01
2767.38
2762.79
2743.17
2704.07
2648.97
2573.09
2475.99
2361.25
2232.56
2093.1
1946.18
1795.41
1645.09
1500.24
1366.71
1251.23
1160.8
1103.43
1083.24
1112.04
1175.22
1292.01
1467.61
1682.28
1911.57
2153.4
2402.77
2650
2889.26
3117.92
3334.79
3540
3734.36
3918.77
4093.92
4260.03
4416.66
4562.23
4688.47
4819.36
4885.41
4896.28
4876.12
4917.53
5089.84
5246.76
5360.52
5428.09
5475.96
5516.6
5547.74
5562.53
5559.7
5543.69
5517.38
5481.39
5431.35
5368.49
5296.3
5214.53
5122.28
5018.55
4904.06
4781.25
4652.54
4514.54
4364.91
4207.34
4042.54
3871.22
3694.13
3513.16
3330.76
3149.16
2969.37
2790.77
2611.86
2431.94
2251.83
2070.39
1882.56
1684.28
1475.18
1256.4
1030.56
804.816
586.867
384.047
153.411
2563.79
2580.78
2599.33
2621.21
2646.59
2673.14
2698.79
2722.12
2741.94
2756.79
2766.99
2768.52
2764.14
2744.73
2705.71
2650.55
2574.12
2476.35
2360.87
2231.3
2090.84
1942.77
1790.7
1638.88
1492.3
1356.77
1239.08
1146.24
1086.57
1063.95
1091.75
1152.56
1270.16
1447.78
1663.63
1893.92
2137.49
2388.62
2637.31
2877.8
3107.39
3324.87
3530.44
3725.01
3909.57
4084.83
4250.95
4407.81
4554.91
4688.43
4826.33
4887.85
4904.01
4885.06
4932.57
5099.61
5256.32
5374.23
5446.53
5497.6
5538.54
5568.31
5581.92
5578.71
5562.21
5535.11
5498.48
5448.18
5384.9
5312.37
5230.37
5138.41
5035.73
4921.64
4799.19
4669.47
4530.03
4379.46
4220.79
4055.05
3883.11
3705.84
3524.94
3342.36
3159.89
2978.44
2797.87
2617.22
2435.38
2252.18
2067.17
1877.61
1679.66
1472.03
1255.85
1033.68
811.622
596.441
393.73
157.122
2563.59
2580.75
2599.16
2620.91
2646.23
2672.83
2698.62
2722.15
2742.21
2757.32
2768
2769.73
2765.4
2746.23
2707.32
2652.12
2575.14
2476.71
2360.47
2229.98
2088.44
1939.14
1785.68
1632.23
1483.76
1346.08
1225.97
1130.52
1068.34
1043.08
1069.86
1128.16
1246.82
1426.61
1643.54
1874.88
2120.25
2373.19
2623.4
2865.21
3095.83
3314
3519.99
3714.83
3899.56
4074.91
4241.13
4398.45
4547.51
4688.22
4830.6
4890.42
4915.67
4898.76
4952.88
5114.64
5269.8
5391.05
5467.06
5520.42
5561.67
5590.39
5603.08
5599.5
5582.54
5554.72
5517.43
5466.96
5403.28
5330.45
5248.25
5156.37
5054.2
4940.43
4818.06
4687.43
4546.81
4395.41
4235.77
4069.17
3896.64
3719.14
3538.08
3355.06
3171.54
2988.38
2805.73
2623.1
2439.46
2253.96
2065.94
1873.95
1675.45
1469.09
1255.23
1035.89
816.466
603.342
400.751
159.584
2563.4
2580.71
2599
2620.63
2645.87
2672.53
2698.45
2722.18
2742.49
2757.85
2769.07
2771.02
2766.56
2747.65
2708.9
2653.66
2576.16
2477.09
2360.07
2228.59
2085.91
1935.31
1780.33
1625.14
1474.64
1334.61
1211.9
1113.63
1048.74
1020.63
1046.36
1102.02
1221.99
1404.1
1622.02
1854.47
2101.69
2356.43
2608.23
2851.46
3083.21
3302.15
3508.64
3703.81
3888.76
4064.25
4230.74
4388.93
4540.23
4687.31
4831.16
4894.42
4931.04
4916.78
4977.93
5134.21
5287.01
5410.71
5489.85
5544.73
5586.21
5614.13
5626.05
5622.1
5604.72
5576.22
5538.24
5487.74
5423.66
5350.55
5268.15
5176.25
5074.07
4960.5
4837.99
4706.51
4564.89
4412.74
4252.26
4084.89
3911.79
3733.91
3552.46
3368.76
3184.07
2999.25
2814.54
2629.71
2444.05
2256.58
2066.27
1872.07
1672.54
1466.65
1254.37
1037.17
819.787
608.272
405.851
161.333
2563.23
2580.68
2598.85
2620.37
2645.53
2672.22
2698.28
2722.2
2742.77
2758.39
2770.16
2772.41
2767.65
2748.92
2710.44
2655.18
2577.17
2477.48
2359.65
2227.15
2083.26
1931.26
1774.68
1617.61
1464.92
1322.38
1196.87
1095.57
1027.75
996.582
1021.22
1074.19
1195.68
1380.23
1599.06
1832.67
2081.79
2338.34
2591.78
2836.51
3069.47
3289.28
3496.37
3691.95
3877.21
4053
4220.01
4379.44
4533.23
4685.49
4829.61
4901.18
4947.09
4938.8
5006.98
5157.55
5307.61
5432.88
5514.9
5570.87
5612.43
5639.62
5650.84
5646.53
5628.77
5599.67
5560.93
5510.44
5446.05
5372.68
5290.03
5198.1
5095.5
4981.96
4859.12
4726.84
4584.33
4431.5
4270.28
4102.2
3928.48
3750.08
3568.02
3383.42
3197.46
3011.01
2824.33
2637.26
2449.35
2259.81
2067.58
1871.6
1670.9
1464.87
1253.47
1037.81
821.96
611.636
409.395
162.448
2563.06
2580.63
2598.69
2620.12
2645.2
2671.92
2698.1
2722.23
2743.04
2758.93
2771.29
2773.9
2768.7
2750.05
2711.94
2656.69
2578.2
2477.89
2359.23
2225.65
2080.48
1927.01
1768.71
1609.64
1454.61
1309.39
1180.88
1076.35
1005.36
970.93
994.44
1044.7
1167.89
1354.99
1574.63
1809.5
2060.54
2318.87
2573.99
2820.3
3054.58
3275.36
3483.16
3679.28
3864.96
4041.28
4209.16
4370.11
4526.53
4682.87
4827.98
4910.32
4961.43
4963.86
5039
5183.93
5331.2
5457.26
5542.06
5599.11
5640.55
5666.94
5677.46
5672.81
5654.73
5625.11
5585.58
5534.91
5470.46
5396.81
5313.9
5221.89
5118.67
5004.95
4881.63
4748.57
4605.25
4451.78
4289.89
4121.11
3946.69
3767.6
3584.73
3399.08
3211.77
3023.66
2835.07
2645.84
2455.64
2263.89
2069.71
1872.11
1670.28
1463.82
1252.82
1038.15
823.342
613.822
411.705
163.129
2562.87
2580.56
2598.54
2619.89
2644.87
2671.61
2697.92
2722.26
2743.32
2759.47
2772.45
2775.52
2769.73
2751.04
2713.42
2658.17
2579.23
2478.33
2358.8
2224.1
2077.59
1922.57
1762.44
1601.24
1443.72
1295.64
1163.93
1055.96
981.566
943.677
965.986
1013.63
1138.61
1328.33
1548.72
1784.95
2037.93
2298.02
2554.86
2802.82
3038.49
3260.36
3468.99
3665.75
3852.08
4029.25
4198.41
4361.11
4520.1
4679.73
4827.01
4919.77
4974.88
4990.81
5073.09
5212.85
5357.53
5483.7
5571.15
5629.55
5670.7
5696.13
5705.93
5700.94
5682.59
5652.54
5612.25
5561.1
5496.89
5422.97
5339.92
5247.49
5143.7
5029.65
4905.75
4771.91
4627.82
4473.72
4311.16
4141.66
3966.46
3786.51
3602.65
3415.82
3227.07
3037.25
2846.72
2655.39
2462.94
2268.93
2072.69
1873.4
1670.37
1463.31
1252.39
1038.3
824.147
615.115
413.033
163.482
2562.65
2580.48
2598.39
2619.67
2644.55
2671.31
2697.74
2722.29
2743.6
2760.01
2773.62
2777.25
2770.74
2751.98
2714.91
2659.65
2580.28
2478.79
2358.37
2222.49
2074.58
1917.92
1755.88
1592.42
1432.25
1281.14
1146.02
1034.43
956.382
914.843
935.848
981.125
1107.87
1300.23
1521.28
1759
2013.93
2275.76
2534.34
2784.01
3021.18
3244.25
3453.86
3651.42
3838.66
4017
4187.79
4352.56
4514.07
4676.42
4826.69
4928.13
4989.53
5019.43
5108.49
5244.1
5386.53
5512.33
5602.17
5662.16
5702.9
5727.18
5736.24
5730.93
5712.34
5681.96
5640.98
5589.18
5525.24
5451.24
5368.09
5274.95
5170.68
5056.18
4931.66
4797.05
4652.21
4497.48
4334.24
4163.96
3987.87
3806.9
3621.9
3433.75
3243.46
3051.85
2859.32
2665.85
2471.19
2274.95
2076.6
1875.52
1671.14
1463.29
1252.2
1038.37
824.577
615.769
413.646
163.619
2562.45
2580.39
2598.24
2619.45
2644.24
2671
2697.55
2722.31
2743.86
2760.54
2774.8
2779.09
2771.77
2753.06
2716.43
2661.11
2581.35
2479.27
2357.94
2220.83
2071.47
1913.09
1749.03
1583.19
1420.21
1265.91
1127.19
1011.77
929.83
884.471
904.014
947.389
1075.7
1270.66
1492.31
1731.63
1988.51
2252.07
2512.41
2763.83
3002.6
3226.98
3437.68
3636.32
3824.81
4004.72
4177.38
4344.36
4508.44
4673.21
4826.74
4935.87
5005.63
5049.47
5144.63
5277.57
5418.26
5543.42
5635.22
5696.8
5737.01
5760.07
5768.41
5762.77
5744.01
5713.36
5671.85
5619.42
5555.49
5481.52
5398.15
5304.36
5199.65
5084.65
4959.48
4824.14
4678.57
4523.19
4359.24
4188.12
4011.01
3828.88
3642.58
3452.99
3261.06
3067.57
2872.96
2677.29
2480.38
2281.91
2081.46
1878.51
1672.67
1463.87
1252.35
1038.52
824.829
616.029
413.812
163.639
2562.27
2580.3
2598.09
2619.25
2643.93
2670.7
2697.35
2722.33
2744.12
2761.07
2775.96
2781.01
2772.97
2754.32
2717.99
2662.55
2582.44
2479.77
2357.5
2219.13
2068.25
1908.08
1741.89
1573.55
1407.63
1249.96
1107.45
988.029
901.953
852.631
870.475
912.727
1042.19
1239.62
1461.79
1702.83
1961.65
2226.91
2489.03
2742.27
2982.71
3208.56
3420.51
3620.47
3810.55
3992.37
4167.22
4336.58
4503.26
4670.32
4827.09
4943.63
5021.85
5080.81
5181.15
5313.12
5452.55
5577.02
5670.29
5733.13
5772.79
5794.73
5802.42
5796.48
5777.6
5746.77
5704.87
5651.97
5587.88
5513.8
5430.06
5335.76
5230.6
5115.06
4989.26
4853.19
4706.91
4550.86
4386.17
4214.14
4035.94
3852.53
3664.78
3473.61
3279.92
3084.48
2887.73
2689.8
2490.59
2289.87
2087.29
1882.44
1675.04
1465.12
1252.97
1038.9
825.084
616.113
413.763
163.613
2562.04
2580.21
2597.95
2619.06
2643.62
2670.39
2697.16
2722.35
2744.37
2761.6
2777.13
2782.96
2774.27
2755.59
2719.56
2663.99
2583.55
2480.3
2357.06
2217.39
2064.94
1902.9
1734.49
1563.53
1394.51
1233.32
1086.85
963.267
872.814
819.422
835.205
877.414
1007.46
1207.14
1429.74
1672.57
1933.3
2200.26
2464.2
2719.27
2961.47
3188.85
3402.38
3603.99
3795.96
3979.94
4157.19
4329.16
4498.6
4667.98
4827.92
4951.85
5038.59
5112.54
5218.02
5350.31
5488.95
5612.83
5707.02
5770.75
5809.96
5831.06
5838.25
5832.09
5813.15
5782.21
5740.01
5686.76
5622.49
5548.17
5463.98
5369.17
5263.52
5147.42
5020.95
4884.17
4737.18
4580.42
4414.95
4241.96
4062.59
3877.81
3688.52
3495.66
3300.11
3102.64
2903.68
2703.45
2501.9
2298.89
2094.14
1887.35
1678.31
1467.14
1254.17
1039.63
825.497
616.2
413.673
163.593
2561.77
2580.15
2597.81
2618.87
2643.32
2670.08
2696.95
2722.37
2744.61
2762.12
2778.3
2784.78
2775.51
2756.81
2721.1
2665.44
2584.69
2480.85
2356.63
2215.61
2061.53
1897.56
1726.84
1553.14
1380.9
1216.04
1065.43
937.549
842.488
784.956
798.16
841.322
971.656
1173.3
1396.21
1640.86
1903.42
2172.1
2437.86
2694.82
2938.88
3167.94
3383.24
3586.87
3780.99
3967.38
4147.28
4322.11
4494.51
4666.34
4829.47
4960.78
5056.61
5143.83
5255.22
5388.55
5526.89
5650.29
5744.98
5809.31
5848.3
5868.97
5875.88
5869.62
5850.68
5819.7
5777.3
5723.76
5659.29
5584.65
5499.95
5404.58
5298.39
5181.68
5054.53
4917
4769.26
4611.76
4445.45
4271.45
4090.86
3904.65
3713.75
3519.12
3321.64
3122.06
2920.85
2718.27
2514.36
2309.01
2102.06
1893.27
1682.51
1469.96
1256.01
1040.83
826.186
616.424
413.666
163.608
2561.42
2580.09
2597.68
2618.69
2643.01
2669.76
2696.74
2722.37
2744.83
2762.66
2779.44
2786.4
2776.75
2758.02
2722.58
2666.88
2585.85
2481.43
2356.2
2213.8
2058.05
1892.08
1718.96
1542.42
1366.81
1198.15
1043.26
910.949
811.055
749.351
759.325
804.046
934.893
1138.23
1361.3
1607.69
1871.98
2142.4
2410
2668.86
2914.79
3145.82
3363.18
3569.02
3765.57
3954.62
4137.45
4315.44
4491
4665.48
4831.88
4970.48
5075.88
5174.78
5292.42
5427.43
5565.86
5688.9
5783.82
5848.6
5887.71
5908.41
5915.3
5909.07
5890.24
5859.28
5816.75
5762.99
5698.28
5623.25
5537.99
5442.02
5335.23
5217.84
5089.95
4951.64
4803.09
4644.78
4477.57
4302.51
4120.64
3932.96
3740.42
3543.96
3344.49
3142.75
2939.26
2734.31
2527.99
2320.28
2111.09
1900.24
1687.68
1473.64
1258.56
1042.57
827.24
616.882
413.821
163.676
2561.06
2580.03
2597.54
2618.51
2642.69
2669.44
2696.52
2722.37
2745.05
2763.21
2780.56
2787.91
2778.09
2759.31
2724.03
2668.29
2587.04
2482.04
2355.78
2211.97
2054.51
1886.46
1710.86
1531.37
1352.29
1179.7
1020.39
883.54
778.585
712.711
718.723
765.511
897.139
1102.07
1325.13
1573.12
1838.96
2111.13
2380.58
2641.4
2889.31
3122.43
3342.17
3550.35
3749.52
3941.58
4127.69
4309.14
4488.06
4665.44
4835.25
4980.96
5096.16
5205.59
5329.43
5466.66
5605.51
5728.31
5823.33
5888.58
5928.19
5949.35
5956.51
5950.49
5931.85
5900.99
5858.38
5804.43
5739.47
5664.01
5578.14
5481.51
5374.05
5255.92
5127.22
4988.06
4838.65
4679.45
4511.26
4335.07
4151.89
3962.7
3768.47
3570.15
3368.65
3164.73
2958.92
2751.56
2542.8
2332.71
2121.23
1908.27
1693.82
1478.2
1261.85
1044.88
828.713
617.629
414.177
163.799
2560.71
2579.98
2597.4
2618.32
2642.37
2669.1
2696.28
2722.36
2745.26
2763.77
2781.66
2789.39
2779.47
2760.67
2725.5
2669.69
2588.25
2482.68
2355.38
2210.13
2050.9
1880.73
1702.57
1520.06
1337.39
1160.76
996.893
855.382
745.136
675.116
676.346
725.869
858.396
1064.97
1287.85
1537.18
1804.35
2078.28
2349.57
2612.31
2862.43
3097.91
3320.04
3530.78
3732.86
3928.23
4117.96
4303.16
4485.66
4666.19
4839.61
4992.17
5117.22
5236.37
5366.26
5506.09
5645.63
5768.31
5863.44
5929.27
5969.78
5991.82
5999.54
5993.91
5975.56
5944.85
5902.24
5848.12
5782.88
5706.95
5620.44
5523.1
5414.9
5295.96
5166.38
5026.3
4875.94
4715.76
4546.52
4369.13
4184.58
3993.85
3797.89
3597.68
3394.13
3187.98
2979.83
2770.04
2558.83
2346.3
2132.49
1917.37
1700.97
1483.64
1265.89
1047.79
830.631
618.685
414.719
163.966
2560.32
2579.93
2597.25
2618.13
2642.04
2668.76
2696.04
2722.34
2745.48
2764.33
2782.71
2790.83
2780.91
2762.12
2727.03
2671.1
2589.47
2483.35
2354.99
2208.27
2047.26
1874.92
1694.13
1508.5
1322.15
1141.37
972.819
826.526
710.759
636.626
632.157
685.029
818.81
1027.07
1249.59
1499.96
1768.17
2043.83
2316.96
2581.69
2834.07
3072.06
3296.66
3510.18
3715.54
3914.55
4108.21
4297.43
4483.77
4667.73
4844.93
5004.12
5138.87
5267.23
5403.01
5545.68
5686.11
5808.81
5904.15
5970.81
6012.6
6035.88
6044.44
6039.37
6021.42
5990.94
5948.36
5894.1
5828.56
5752.14
5664.96
5566.87
5457.85
5338.02
5207.48
5066.4
4915.01
4753.76
4583.37
4404.71
4218.74
4026.42
3828.7
3626.57
3420.92
3212.54
3002.01
2789.76
2576.06
2361.07
2144.89
1927.53
1709.09
1489.96
1270.68
1051.3
832.991
620.037
415.391
164.147
2559.94
2579.89
2597.1
2617.93
2641.7
2668.4
2695.78
2722.32
2745.71
2764.89
2783.71
2792.21
2782.42
2763.64
2728.65
2672.57
2590.71
2484.05
2354.64
2206.43
2043.6
1869.03
1685.56
1496.74
1306.62
1121.59
948.222
797.015
675.511
597.309
586.186
642.801
778.559
988.54
1210.46
1461.51
1730.44
2007.78
2282.68
2549.54
2804.39
3044.72
3271.91
3488.58
3697.51
3900.46
4098.36
4291.9
4482.33
4669.98
4851.18
5016.79
5160.99
5298.25
5439.84
5585.46
5726.93
5849.79
5945.54
6013.33
6056.78
6081.61
6091.26
6086.94
6069.49
6039.3
5996.8
5942.43
5876.59
5799.67
5711.79
5612.89
5502.99
5382.19
5250.62
5108.44
4955.92
4793.51
4621.89
4441.88
4254.42
4060.45
3860.94
3656.85
3449.08
3238.41
3025.48
2810.75
2594.52
2377.02
2158.4
1938.74
1718.18
1497.14
1276.19
1055.37
835.779
621.655
416.119
164.311
2559.57
2579.85
2596.93
2617.73
2641.35
2668.03
2695.5
2722.29
2745.92
2765.44
2784.66
2793.54
2784.02
2765.23
2730.34
2674.14
2591.99
2484.77
2354.32
2204.6
2039.93
1863.1
1676.91
1484.83
1290.85
1101.47
923.154
766.898
639.475
557.277
538.628
599.312
737.765
949.498
1170.53
1421.92
1691.22
1970.16
2246.76
2515.76
2773.04
3015.73
3245.8
3465.95
3678.72
3885.89
4088.32
4286.5
4481.3
4672.9
4858.29
5030.17
5183.5
5329.46
5476.88
5625.52
5768.14
5891.35
5987.75
6057.01
6102.44
6129.11
6140.08
6136.69
6119.85
6090.02
6047.65
5993.2
5927.07
5849.63
5761.03
5661.29
5550.44
5428.59
5295.89
5152.53
4998.79
4835.12
4662.16
4480.72
4291.7
4096.03
3894.67
3688.56
3478.62
3265.64
3050.27
2833.01
2614.21
2394.16
2173.04
1951
1728.22
1505.16
1282.4
1060
838.984
623.525
416.87
164.442
2559.26
2579.81
2596.74
2617.51
2640.99
2667.65
2695.21
2722.25
2746.12
2765.97
2785.56
2794.83
2785.69
2766.89
2732.11
2675.84
2593.36
2485.53
2354.03
2202.8
2036.27
1857.17
1668.19
1472.81
1274.89
1081.06
897.674
736.246
602.78
516.707
489.879
555.097
696.627
909.98
1129.87
1381.25
1650.54
1930.93
2209.28
2480.45
2739.72
2984.88
3218.33
3442.23
3659.1
3870.75
4078.03
4281.15
4480.6
4676.4
4866.19
5044.26
5206.37
5360.89
5514.27
5666.02
5809.87
5933.62
6030.96
6102.03
6149.75
6178.48
6190.99
6188.69
6172.57
6143.18
6101
6046.5
5980.1
5902.14
5812.82
5712.19
5600.31
5477.34
5343.42
5198.78
5043.72
4878.68
4704.29
4521.34
4330.68
4133.24
3929.96
3721.78
3509.62
3294.28
3076.42
2856.58
2635.16
2412.49
2188.81
1964.31
1739.21
1514.02
1289.32
1065.2
842.622
625.675
417.689
164.555
2559.06
2579.77
2596.54
2617.29
2640.61
2667.24
2694.91
2722.2
2746.3
2766.49
2786.42
2796.06
2787.42
2768.61
2733.96
2677.66
2594.85
2486.36
2353.78
2201.05
2032.65
1851.25
1659.47
1460.72
1258.79
1060.41
871.854
705.162
565.625
475.817
440.312
510.859
655.429
869.996
1088.51
1339.58
1608.51
1890.17
2170.2
2443.24
2704.37
2952.36
3189.46
3417.36
3638.57
3854.95
4067.38
4275.77
4480.14
4680.4
4874.82
5059.02
5229.58
5392.55
5552.09
5707.12
5852.28
5976.77
6075.34
6148.55
6198.82
6229.83
6244.08
6243.02
6227.74
6198.87
6156.94
6102.44
6035.79
5957.33
5867.26
5765.69
5652.74
5528.55
5393.33
5247.31
5090.83
4924.33
4748.41
4563.84
4371.46
4172.16
3966.89
3756.59
3542.14
3324.37
3103.96
2881.49
2657.38
2432.02
2205.7
1978.66
1751.17
1523.73
1296.99
1071.01
846.742
628.171
418.687
164.69
2558.91
2579.74
2596.33
2617.05
2640.22
2666.81
2694.59
2722.12
2746.44
2767
2787.23
2797.26
2789.21
2770.39
2735.89
2679.62
2596.5
2487.29
2353.59
2199.36
2029.1
1845.38
1650.78
1448.63
1242.61
1039.59
845.791
673.793
528.278
434.833
389.932
467.382
614.401
829.548
1046.49
1296.96
1565.14
1847.98
2129.37
2403.76
2666.89
2918.14
3159.13
3391.26
3617.04
3838.43
4056.31
4270.25
4479.82
4684.81
4884.07
5074.42
5253.16
5424.45
5590.41
5748.97
5895.53
6020.99
6121.1
6196.74
6249.8
6283.27
6299.42
6299.75
6285.43
6257.16
6215.56
6161.12
6094.26
6015.29
5924.46
5821.91
5707.8
5582.32
5445.71
5298.23
5140.23
4972.16
4794.61
4608.33
4414.13
4212.89
4005.55
3793.03
3576.22
3355.95
3132.94
2907.76
2680.9
2452.79
2223.76
1994.1
1764.12
1534.34
1305.44
1077.49
851.409
631.102
420.001
164.896
2558.78
2579.7
2596.11
2616.79
2639.82
2666.35
2694.25
2722.01
2746.56
2767.48
2788
2798.41
2791.02
2772.21
2737.89
2681.72
2598.33
2488.35
2353.49
2197.75
2025.65
1839.61
1642.16
1436.57
1226.41
1018.69
819.613
642.334
491.088
394.024
339.862
425.588
573.703
788.658
1003.88
1253.49
1520.62
1804.4
2086.48
2361.89
2627.44
2882.18
3127.26
3363.87
3594.45
3821.09
4044.69
4264.49
4479.56
4689.55
4893.87
5090.42
5277.13
5456.63
5629.24
5791.7
5939.81
6066.46
6168.41
6246.75
6302.8
6338.9
6357.1
6358.95
6345.69
6318.13
6276.94
6222.61
6155.56
6076.1
5984.48
5880.9
5765.57
5638.72
5500.63
5351.6
5191.99
5022.25
4842.98
4654.88
4458.76
4255.49
4045.98
3831.15
3611.9
3389.06
3163.36
2935.41
2705.75
2474.81
2243.01
2010.66
1778.1
1545.91
1314.75
1084.71
856.69
634.546
421.74
165.214
2558.69
2579.65
2595.88
2616.52
2639.4
2665.88
2693.87
2721.86
2746.64
2767.94
2788.73
2799.53
2792.85
2774.08
2739.95
2683.94
2600.33
2489.6
2353.5
2196.23
2022.32
1833.96
1633.67
1424.61
1210.25
997.785
793.472
611.021
454.481
353.644
292.151
386.217
533.452
747.436
960.807
1209.2
1475.05
1759.08
2041.11
2317.75
2586
2844.39
3093.79
3335.11
3570.72
3802.85
4032.44
4258.37
4479.23
4694.52
4904.14
5106.97
5301.49
5489.11
5668.6
5835.36
5985.29
6113.39
6217.47
6298.71
6357.91
6396.77
6417.16
6420.65
6408.56
6381.82
6341.12
6286.95
6219.73
6139.76
6047.33
5942.67
5826.06
5697.78
5558.13
5407.46
5246.15
5074.64
4893.53
4703.51
4505.37
4299.97
4088.2
3870.98
3649.2
3423.71
3195.25
2964.47
2731.93
2498.12
2263.48
2028.37
1793.17
1558.47
1324.95
1092.72
862.632
638.554
423.963
165.666
2558.66
2579.58
2595.64
2616.24
2638.96
2665.37
2693.45
2721.66
2746.7
2768.38
2789.42
2800.63
2794.7
2775.97
2742.08
2686.31
2602.53
2491.06
2353.67
2194.85
2019.14
1828.5
1625.36
1412.8
1194.22
977
767.547
580.116
418.903
313.763
247.045
348.894
493.722
706.089
917.38
1164.25
1428.28
1711.39
1993.11
2271.42
2542.47
2804.69
3058.65
3304.91
3545.79
3783.63
4019.43
4251.78
4478.74
4699.62
4914.8
5124.03
5326.27
5521.94
5708.5
5880
6032.12
6161.95
6268.45
6352.75
6415.21
6456.94
6479.63
6484.87
6474.07
6448.24
6408.09
6354.14
6286.75
6206.26
6112.97
6007.19
5889.24
5759.45
5618.19
5465.8
5302.68
5129.32
4946.27
4754.23
4553.97
4346.33
4132.2
3912.5
3688.11
3459.9
3228.61
2994.94
2759.47
2522.73
2285.2
2047.27
1809.35
1572.05
1336.09
1101.55
869.254
643.139
426.672
166.256
2558.75
2579.49
2595.37
2615.94
2638.5
2664.82
2692.99
2721.42
2746.72
2768.78
2790.08
2801.7
2796.54
2777.89
2744.26
2688.81
2604.92
2492.76
2354.05
2193.64
2016.14
1823.27
1617.28
1401.22
1178.4
956.458
742.033
549.869
384.606
274.074
205.091
313.016
454.746
664.927
873.759
1118.67
1379.76
1661.12
1942.81
2222.85
2496.78
2763.02
3021.77
3273.22
3519.59
3763.34
4005.57
4244.6
4477.98
4704.79
4925.81
5141.57
5351.5
5555.2
5748.97
5925.65
6080.46
6212.37
6321.51
6408.97
6474.75
6519.42
6544.49
6551.59
6542.19
6517.37
6477.85
6424.13
6356.57
6275.53
6181.36
6074.4
5955.06
5823.71
5680.75
5526.57
5361.58
5186.25
5001.17
4807.01
4604.52
4394.55
4177.98
3955.7
3728.64
3497.63
3263.46
3026.84
2788.39
2548.67
2308.18
2067.37
1826.65