/*--------------------------------*- C++ -*----------------------------------*\
| =========                 |                                                 |
| \\      /  F ield         | OpenFOAM: The Open Source CFD Toolbox           |
|  \\    /   O peration     | Version:  4.1                                   |
|   \\  /    A nd           | Web:      www.OpenFOAM.org                      |
|    \\/     M anipulation  |                                                 |
\*---------------------------------------------------------------------------*/
FoamFile
{
    version     2.0;
    format      ascii;
    class       surfaceScalarField;
    location    "1700";
    object      phi;
}
// * * * * * * * * * * * * * * * * * * * * * * * * * * * * * * * * * * * * * //

dimensions      [0 3 -1 0 0 0 0];

internalField   nonuniform List<scalar> 
52920
(
3584.82
-134.101
3648.58
-63.7753
3641.61
6.93652
3578.31
63.2702
3485.95
92.3177
3384.6
101.319
3284.89
99.6628
3192.77
92.0837
3114.32
78.3999
3055.93
58.34
3028.64
27.233
3047.12
-18.5377
3146.91
-99.8476
3324.54
-177.684
3574.07
-249.575
3921.2
-347.173
4372.47
-451.308
4906.75
-534.315
5498.62
-591.903
6131.02
-632.431
6791.81
-660.806
7469.7
-677.92
8151.86
-682.185
8822.38
-670.535
9461.73
-639.371
10047.6
-585.854
10556.3
-508.77
10965.6
-409.275
11255.7
-290.158
11409.5
-153.803
11427.5
-18.0275
11310.4
117.079
11053.9
256.584
10683.7
370.185
10246.1
437.53
9764
482.103
9247.08
516.912
8707.14
539.927
8154.02
553.115
7591.86
562.143
7022.36
569.487
6446.72
575.627
5866.43
580.278
5284.69
581.729
4707.3
577.389
4141.58
565.706
3593.4
548.153
3059.81
533.581
2582.19
477.596
2118.4
463.787
2001.05
117.336
2498.26
-497.217
3328.02
-829.78
3750.41
-422.395
3340.7
409.69
2535.29
805.421
1768.63
766.637
1637.38
131.245
1877.3
-239.937
1860.55
16.7628
1385.45
475.085
1087.5
297.965
2243.59
-1156.11
4242.76
-1999.16
5284.63
-1041.87
5620.14
-335.535
5132.54
487.6
5452.9
-320.362
6080.01
-627.125
6592.03
-512.015
7173.9
-581.878
8442.98
-1269.07
10223.8
-1780.8
10244.9
-21.125
9888.62
356.281
10586.7
-698.07
10954.7
-368.017
10633.6
321.074
10798.3
-164.728
11311.7
-513.338
11937.5
-625.865
12610
-672.408
13276.9
-666.963
13707.1
-430.204
13813.2
-106.054
13741.9
71.288
13647.7
94.2195
13589
58.667
13517.2
71.8115
13340.7
176.495
13326.8
13.8909
13956.7
-629.938
14402.7
-445.991
13864
538.74
13891
-27.0407
15859.4
-1968.36
19099
-3239.63
21601.6
-2502.58
22475.3
-873.737
739.124
3602.74
-262.997
3662.02
-123.081
3649.78
19.151
3580.47
132.551
3482.3
190.436
3375.85
207.734
3271.67
203.793
3175.37
188.344
3092.82
160.907
3030.46
120.644
2999.78
57.8557
3014.51
-33.3363
3110.79
-196.186
3282
-348.961
3516.65
-484.263
3836.79
-667.355
4253.4
-867.952
4755.65
-1036.61
5325.23
-1161.5
5945.08
-1252.32
6599.33
-1315.08
7272.94
-1351.56
7951.02
-1360.28
8617.24
-1336.78
9252.73
-1274.87
9836.03
-1169.18
10344.3
-1017.01
10755.1
-820.084
11048.2
-583.299
11205.8
-311.439
11226.9
-39.1677
11107.7
236.309
10847
517.246
10474.9
742.307
10033.4
878.955
9546.46
969.071
9025.63
1037.73
8483.34
1082.2
7929.16
1107.29
7366.73
1124.55
6796.99
1139.22
6220.22
1152.39
5637.05
1163.43
5049.9
1168.87
4464.27
1163.02
3889.37
1140.59
3339.43
1098.07
2820.01
1053
2390.73
906.85
1997.5
857.018
1996.47
118.339
2516.72
-1017.48
3315.92
-1629
3798.22
-904.692
3450.72
757.176
2655.33
1600.82
1900.25
1521.7
1726.64
304.856
1907.57
-420.885
1913.34
11.0061
1385.48
1002.93
434.756
1248.7
-721.017
-0.347208
-2610
-110.176
-3687.68
35.8021
-4014.59
-8.63504
-3854.53
327.526
-3872.22
-302.671
-3770.19
-729.163
-3330.95
-951.262
-2281.6
-1631.23
-192.003
-3358.67
3481.61
-5454.42
8743.34
-5282.86
7824.31
1275.3
1851.93
5274.31
-2966.34
4450.24
-5147.82
2502.56
-5886.77
574.221
-6323.33
-76.7782
-6651.31
-297.894
-6900.05
-423.667
-7050.22
-516.797
-7003.08
-477.344
-6777.21
-331.924
-6606.41
-99.5101
-6725.5
213.307
-7077.69
410.865
-7187.17
181.283
-6562.08
-448.591
-5212.79
-1335.4
-2787.99
-3054.73
1835.94
-5069.92
7395.21
-5020.53
10751.5
-3383.38
12051.6
-3268.39
13467.7
-4655.78
13940.5
-2975.38
14394.7
-1327.86
1009.77
3591.91
-390.448
3649.79
-180.981
3633.95
34.9646
3558.73
207.741
3453.5
295.625
3339.55
321.652
3227.68
315.618
3123.61
292.382
3033.41
251.058
2963.76
190.243
2926.52
95.0421
2934.13
-41.0004
3024.65
-286.77
3187.75
-512.117
3406
-702.556
3699.62
-961.013
4086.59
-1254.96
4565.64
-1515.69
5119.25
-1715.15
5724.13
-1857.23
6359.55
-1950.51
7010.08
-2002.11
7663.08
-2013.3
8305.09
-1978.81
8919.75
-1889.55
9487.4
-1736.85
9986.02
-1515.64
10393.2
-1227.23
10687.8
-877.953
10851.1
-474.745
10881.1
-69.2131
10768.1
349.319
10513.1
772.239
10149.6
1105.78
9714.29
1314.28
9230.14
1453.21
8710.56
1557.3
8169.25
1623.5
7616.52
1660.01
7056.88
1684.18
6491.85
1704.24
5921.84
1722.38
5347.23
1738.04
4769.85
1746.23
4194.71
1738.14
3632.31
1702.97
3103.22
1627.14
2629.99
1526.22
2256.57
1280.25
1925.96
1187.63
2013.65
30.6304
2509.86
-1513.69
3222.1
-2341.26
3663.56
-1346.16
3305.59
1115.13
2510.33
2396.09
1746.6
2285.41
1551.9
499.565
1706.31
-575.325
1774.43
-57.1109
1407.01
1370.34
323.065
2332.65
-1623.52
1946.23
-3611.25
1877.55
-4403.89
828.444
-4479.26
66.7336
-4264.11
112.378
-4192.81
-373.959
-4026.28
-895.692
-3604.25
-1373.29
-3094.69
-2140.79
-2819.68
-3633.68
-2862.41
-5411.7
-2942.2
-5203.06
-2745.63
1078.73
-3930.49
6459.17
-5426.09
5945.84
-5858.25
2934.73
-6424.53
1140.49
-7081.43
580.122
-7665.14
285.819
-8177.37
88.5581
-8589.41
-104.754
-8810.03
-256.73
-8820.45
-321.498
-8714.12
-205.84
-8576.17
75.3549
-8373.91
208.607
-7896.16
-296.475
-7103.88
-1240.86
-6075.65
-2363.63
-5136.11
-3994.27
-4589.49
-5616.54
-3459.21
-6150.81
-783.505
-6059.09
2569.33
-6621.23
5611.2
-7697.65
11395.6
-8759.82
14285.9
-4218.11
1620.16
3550.03
-519.396
3610.05
-241.019
3593.99
50.9951
3515.28
286.421
3404.25
406.603
3283.05
442.818
3162.95
435.676
3050.07
405.221
2951.04
350.041
2872.82
268.406
2827.88
139.918
2827.25
-40.4353
2912.26
-371.85
3067.87
-667.786
3271.71
-906.446
3545.06
-1234.41
3913.3
-1623.23
4379.37
-1981.79
4920.82
-2256.61
5508.47
-2444.91
6121.01
-2563.07
6745.26
-2626.39
7370.52
-2638.57
7984.56
-2592.87
8572.24
-2477.25
9115.42
-2280.04
9593.61
-1993.85
9985.4
-1619.04
10270.1
-1162.69
10428.2
-632.799
10457.8
-98.8619
10342.3
464.773
10086.3
1028.25
9728.57
1463.51
9299.23
1743.61
8819.65
1932.78
8304.52
2072.42
7768.63
2159.38
7222.9
2205.73
6672.77
2234.3
6120.52
2256.48
5566.81
2276.08
5011.86
2292.97
4457.05
2301.03
3906.89
2288.3
3372.52
2237.32
2876.9
2122.73
2458.09
1945.02
2131.72
1606.6
1845.88
1473.47
1959.02
-82.5418
2383.18
-1937.85
3041.91
-3000.01
3438.8
-1743.05
2986.94
1566.98
2121.06
3261.98
1337.94
3068.52
1186.22
651.288
1313.83
-702.951
1337.51
-80.7912
1042.92
1664.92
-333.228
3708.79
-2599.63
4212.62
-4095.74
3373.65
-4554.18
1286.88
-4678.44
190.991
-4618.76
52.6963
-4580
-412.723
-4513.52
-962.179
-4376.87
-1509.94
-4284.56
-2233.11
-4435.94
-3482.3
-5045.45
-4802.2
-6016.35
-4232.15
-6203.04
1265.41
-5973.17
6229.3
-5800.08
5772.75
-5866.33
3000.97
-6459.53
1733.69
-7057.06
1177.65
-7610.14
838.902
-8100.55
578.97
-8549.47
344.157
-8950.87
144.675
-9240.85
-31.5265
-9350.41
-96.2756
-9335.83
60.7767
-9244.93
117.704
-8985.72
-555.685
-8557.25
-1669.33
-7949.02
-2971.87
-7242.56
-4700.72
-6567.99
-6291.11
-5851.68
-6867.12
-5305.66
-6605.11
-5460.54
-6466.35
-6399.78
-6758.42
-8052.94
-7106.66
-8261.12
-4009.93
1127.56
3470.53
-649.009
3537.55
-308.059
3527.96
60.5644
3451.16
363.195
3338.01
519.706
3211.94
568.853
3085.13
562.447
2964.35
525.972
2856.85
457.491
2769.85
355.359
2716.65
193.067
2706.9
-30.7444
2786.48
-451.494
2934.71
-816.082
3125.94
-1097.71
3385.75
-1494.26
3747.02
-1984.52
4211.43
-2446.23
4748.33
-2793.54
5325.34
-3021.94
5923.13
-3160.89
6530.43
-3233.71
7136.81
-3244.97
7730.05
-3186.13
8295.91
-3043.12
8817.97
-2802.11
9277.81
-2453.7
9655.19
-1996.43
9929.65
-1437.16
10079.8
-782.947
10103.6
-122.738
9975.54
592.868
9704.9
1298.87
9337.93
1830.47
8899.46
2182.06
8409.81
2422.43
7885.9
2596.31
7344.59
2700.69
6798
2752.3
6252.62
2779.66
5711.22
2797.87
5174.1
2813.18
4640.56
2826.51
4110.63
2830.94
3587.24
2811.69
3080.25
2744.3
2611.05
2591.9
2231.35
2324.72
1936.45
1901.48
1698.19
1711.74
1813.32
-197.696
2195.94
-2320.48
2880.68
-3684.76
3211.19
-2073.56
2552.36
2225.79
1521.12
4293.22
778.501
3811.12
842.86
586.931
1030.3
-890.417
507.293
442.211
-691.488
2863.68
-2364.54
5381.84
-4004.36
5852.44
-4611.35
3980.65
-4816.65
1492.18
-5002.12
376.464
-5013.85
64.4293
-4987.88
-438.687
-4936.64
-1013.41
-4919.68
-1526.9
-5043.41
-2109.38
-5453.46
-3072.25
-6318.46
-3937.21
-7430.6
-3120.01
-7553.8
1388.62
-6647.18
5322.68
-5957.51
5083.08
-6031.56
3075.03
-6532.24
2234.36
-7103.11
1748.53
-7718.61
1454.4
-8330.59
1190.96
-8932.92
946.483
-9508.26
720.013
-9998.42
458.64
-10309.2
214.513
-10428.3
179.85
-10418.1
107.564
-10372.4
-601.462
-10310.1
-1731.59
-10163.5
-3118.45
-9963.3
-4900.95
-9670.31
-6584.1
-9139.32
-7398.11
-8576.09
-7168.34
-8581.62
-6460.82
-9362.37
-5977.67
-10929.9
-5539.16
-12142.7
-2797.11
1237.72
3322.34
-780.642
3401.1
-386.844
3406.04
55.59
3340.26
428.946
3232.9
627.017
3108.6
693.116
2980.77
690.235
2856.89
649.81
2744.78
569.556
2651.67
448.407
2591.92
252.756
2573.98
-12.8769
2650.01
-527.606
2792.1
-958.241
2973.1
-1278.76
3227.68
-1748.89
3594.37
-2351.23
4065.29
-2917.19
4600.23
-3328.5
5168.13
-3589.86
5754.29
-3747.07
6349.5
-3828.94
6943.59
-3839.06
7524.69
-3767.25
8079.7
-3598.14
8593.6
-3316.03
9049.02
-2909.14
9425.44
-2372.87
9701.24
-1712.96
9852.02
-933.743
9875.49
-146.228
9735.43
732.918
9446.39
1587.89
9061.01
2215.85
8600.58
2642.48
8085.3
2937.69
7535.47
3146.13
6971.38
3264.77
6407.71
3315.96
5852.89
3334.47
5310.56
3340.19
4780.48
3343.25
4260.3
3346.67
3747.72
3343.51
3242.59
3316.81
2751.15
3235.72
2290.45
3052.56
1920.88
2694.3
1645.87
2176.46
1447.6
1910
1606.66
-356.777
2030.95
-2744.77
2726.87
-4380.7
2922.34
-2269.04
1963.93
3184.19
659.695
5597.47
-860.104
5330.91
-1215.3
942.137
-1639.27
-466.478
-2525.69
1328.63
-3661.58
3999.57
-4616.55
6336.81
-5069.64
6305.53
-5006.83
3917.84
-5102.08
1587.43
-5276.39
550.773
-5291.94
79.9799
-5268.2
-462.43
-5218.44
-1063.18
-5224.03
-1521.31
-5378.19
-1955.23
-5802.63
-2647.81
-6588.97
-3150.87
-7606.54
-2102.44
-7721.09
1503.16
-6835.34
4436.93
-6257.75
4505.49
-6366.26
3183.53
-6752.86
2620.97
-7290.12
2285.79
-7933.08
2097.36
-8622.59
1880.46
-9307.59
1631.48
-9927.51
1339.93
-10429.6
960.75
-10771.6
556.504
-10936.4
344.601
-10983.5
154.657
-11088.1
-496.799
-11296.2
-1523.5
-11565.3
-2849.38
-11932
-4534.19
-12296.2
-6219.95
-12421.3
-7272.95
-12279.3
-7310.39
-12274.3
-6465.83
-12901.8
-5350.1
-14278.5
-4162.52
-15378.5
-1697.1
1413.13
3183.67
-911.344
3268.84
-472.025
3281.94
42.4613
3221.56
489.295
3115.97
732.568
2990.67
818.39
2860.07
820.791
2732.41
777.439
2616
685.929
2517.75
546.608
2452.8
317.654
2427.81
12.0463
2503.14
-603.012
2641.64
-1096.8
2815.95
-1453.11
3074.61
-2007.59
3454.8
-2731.45
3931.66
-3394.07
4460.06
-3856.92
5016.12
-4145.94
5590.75
-4321.71
6176.18
-4414.39
6762.46
-4425.35
7338.28
-4343.09
7891.32
-4151.2
8406.95
-3831.67
8867.46
-3369.66
9250.84
-2756.25
9533.95
-1996.09
9689.52
-1089.32
9716.6
-173.315
9568.49
881.006
9266.18
1890.2
8866.35
2615.66
8386.48
3122.35
7845.67
3478.49
7266.72
3725.08
6673.16
3858.32
6082.82
3906.28
5507.2
3910.07
4951.87
3895.51
4416.77
3878.35
3898.15
3865.28
3391
3850.65
2891.23
3816.57
2399.42
3727.52
1925.6
3526.36
1527.99
3091.9
1258.42
2446.01
1099.38
2069.05
1372.72
-630.142
1873.32
-3245.38
2452.1
-4959.49
2474.14
-2291.08
1251.94
4406.37
-171.744
7021.16
-1792.19
6951.34
-3062.06
2212.01
-4262.41
733.86
-5288.38
2354.6
-5913.53
4624.71
-5980.67
6403.95
-5621.43
5946.28
-5321.61
3618.02
-5404.29
1670.11
-5543.72
690.212
-5570.76
107.021
-5563.4
-469.782
-5523.64
-1102.94
-5513.31
-1531.64
-5631.48
-1837.05
-5993.62
-2285.67
-6631.38
-2513.11
-7507.42
-1226.4
-7659.8
1655.53
-7053.54
3830.68
-6694.79
4146.73
-6787.07
3275.82
-7079.78
2913.67
-7544.7
2750.71
-8135.45
2688.1
-8802.71
2547.72
-9465.05
2293.82
-10019.8
1894.68
-10406.3
1347.24
-10643
793.178
-10775.1
476.757
-10867.9
247.443
-11082.4
-282.316
-11464.7
-1141.14
-12011.5
-2302.59
-12793.8
-3751.9
-13745.5
-5268.31
-14626
-6392.39
-15200.6
-6735.86
-15485.2
-6181.18
-15835.5
-4999.86
-16600.4
-3397.62
-17348.5
-949.004
1623.47
3040.02
-1035.7
3129.22
-561.256
3152.13
19.5177
3099.74
541.656
2996.89
835.361
2869.73
945.52
2734.24
956.239
2600.21
911.42
2477.32
808.77
2372.59
651.283
2302.26
387.922
2270.62
43.61
2347.87
-680.355
2485.28
-1234.28
2657.33
-1625.2
2928.16
-2278.46
3323.91
-3127.23
3801.62
-3871.81
4319.27
-4374.59
4862.77
-4689.47
5426.95
-4885.91
6004.33
-4991.8
6585.06
-5006.1
7158.36
-4916.41
7712.25
-4705.11
8231.77
-4351.2
8698.35
-3836.26
9088.42
-3146.33
9377.86
-2285.55
9536.84
-1248.32
9567.36
-203.848
9411.83
1036.52
9100.26
2201.76
8692.6
3023.3
8202.09
3612.85
7645.39
4035.17
7045.96
4324.5
6428.75
4475.51
5813.73
4521.3
5215.33
4508.46
4641.69
4469.14
4093.79
4426.23
3567.29
4391.77
3054.89
4363.04
2548.5
4322.95
2041.55
4234.47
1532.73
4035.15
1059.69
3564.94
736.09
2769.59
813.961
1991.18
1136.66
-952.858
1526.45
-3635.17
1931.83
-5364.9
1813.26
-2172.52
433.933
5785.69
-1028.79
8483.89
-2964.07
8886.61
-4871.1
4119.05
-6056.04
1918.79
-6786.22
3084.77
-6988.19
4826.67
-6571.74
5987.51
-5943.41
5317.95
-5656.98
3331.59
-5732.81
1745.93
-5834.84
792.247
-5870.55
142.723
-5872.73
-467.595
-5841.83
-1133.84
-5828.73
-1544.75
-5915.81
-1749.97
-6204.68
-1996.81
-6829.88
-1887.91
-7618.49
-437.791
-7758.66
1795.7
-7400.85
3472.87
-7187.64
3933.51
-7265.11
3353.29
-7495.92
3144.48
-7868.69
3123.48
-8352.15
3171.56
-8908.23
3103.8
-9445.35
2830.94
-9851.21
2300.53
-10094.9
1590.89
-10263.7
961.98
-10429.5
642.566
-10612.1
430.037
-10899.5
5.14518
-11340.4
-700.23
-11978.4
-1664.63
-12908.2
-2822.12
-14140
-4036.52
-15540.2
-4992.1
-16884.9
-5391.21
-17986.9
-5079.18
-18871.2
-4115.51
-19696.9
-2571.96
-20324.2
-321.69
1816.39
2897.4
-1147.84
2985.88
-649.751
3016.7
-11.3277
2973.16
585.165
2874.69
933.79
2746.77
1073.41
2606.47
1096.51
2465.1
1052.76
2334.06
939.77
2221.08
764.207
2144.46
464.494
2106.42
81.5869
2187.71
-761.736
2324.93
-1371.56
2499.69
-1800.01
2788.71
-2567.51
3198.06
-3536.6
3671.48
-4345.26
4176.91
-4880.02
4708.98
-5221.56
5264.01
-5440.95
5834.22
-5562.02
6410.06
-5581.95
6981.27
-5487.64
7536.04
-5259.89
8058.94
-4874.11
8530.67
-4307.99
8926.31
-3541.98
9221.08
-2580.33
9382.41
-1409.65
9415.95
-237.4
9251.36
1201.1
8930.21
2522.9
8515.69
3437.81
8017.9
4110.63
7451.28
4601.78
6839.27
4936.5
6206.77
5108
5574.17
5153.89
4957.59
5125.02
4367.07
5059.66
3804.69
4988.59
3265.99
4930.47
2742.06
4886.96
2221.21
4843.78
1689.1
4766.56
1127.3
4596.93
526.198
4166.04
-161.507
3457.27
-471.033
2300.7
-463.818
-960.098
385.539
-4484.54
1099.27
-6078.64
1069.21
-2142.47
-279.815
7134.69
-1818.93
10023
-3905.53
10973.2
-5947.63
6161.15
-6981.8
2952.95
-7433.53
3536.5
-7390.79
4783.93
-6848.25
5444.97
-6253.55
4723.24
-6030.62
3108.67
-6074.55
1789.85
-6142.99
860.694
-6178.89
178.623
-6184.78
-461.694
-6167.86
-1150.77
-6181.31
-1531.3
-6258.53
-1672.75
-6536.23
-1719.1
-7220.23
-1203.91
-7890.58
232.558
-7991.56
1896.69
-7809.3
3290.61
-7691.98
3816.19
-7780.78
3442.09
-7977.98
3341.68
-8265.6
3411.1
-8623.44
3529.4
-9019.99
3500.36
-9380.31
3191.26
-9636.11
2556.33
-9817.59
1772.37
-10025.4
1169.78
-10274.5
891.641
-10531
686.616
-10847
321.08
-11280.1
-267.154
-11891.8
-1052.9
-12765.6
-1948.33
-13941.9
-2860.24
-15369.6
-3564.34
-16909.8
-3851.06
-18375.9
-3613.02
-19644.1
-2847.4
-20665.3
-1550.72
-21291.4
304.399
1996.96
2755.22
-1236.72
2837.38
-731.944
2876.17
-50.1582
2843.63
617.674
2751.14
1026.23
2623.29
1201.23
2478.43
1241.32
2329.32
1201.83
2189.09
1079.95
2066.43
886.807
1982.6
548.264
1938.67
125.437
2025.19
-848.369
2161.77
-1508.23
2345.01
-1983.29
2656
-2878.55
3074.35
-3954.97
3539.56
-4810.5
4033.07
-5373.56
4555.25
-5743.77
5102.19
-5987.9
5665.85
-6125.71
6237.26
-6153.38
6806.71
-6057.1
7362.48
-5815.67
7888.71
-5400.36
8365.45
-4784.74
8766.54
-3943.09
9066.63
-2880.43
9230.08
-1573.12
9266.89
-274.224
9091.67
1376.31
8759.74
2854.81
8336.67
3860.87
7830.5
4616.8
7254.09
5178.18
6631.5
5559.09
5987.61
5751.88
5342.62
5798.87
4713.15
5754.48
4109.87
5662.92
3535.22
5563.23
2984.44
5481.24
2447.36
5424.02
1909.38
5381.75
1348.79
5327.15
726.781
5218.91
-47.115
4939.93
-1143.76
4553.89
-2241.92
3398.87
-3573.37
371.317
-2016.63
-6041.29
-399.333
-7695.95
-96.831
-2445.01
-1144.6
8182.45
-2523.78
11402.2
-4486.85
12936.3
-6494.72
8169.02
-7437.95
3896.17
-7695.23
3793.78
-7555.35
4644.04
-7071.9
4961.52
-6599.53
4250.87
-6419.89
2929.03
-6426.51
1796.46
-6470.37
904.556
-6501.79
210.047
-6510.03
-453.459
-6509.27
-1151.53
-6547.84
-1492.72
-6658.82
-1561.78
-7017.56
-1360.36
-7690.76
-530.719
-8181.96
723.757
-8271.72
1986.45
-8213.4
3232.28
-8174.27
3777.05
-8289.93
3557.76
-8470.53
3522.28
-8687.88
3628.45
-8922.78
3764.29
-9151.13
3728.71
-9338.17
3378.3
-9490.1
2708.26
-9682.46
1964.73
-9964.96
1452.28
-10274.2
1200.85
-10566.1
978.577
-10889.6
644.505
-11319
162.306
-11904.6
-467.298
-12683.7
-1169.19
-13697.8
-1846.22
-14915.9
-2346.2
-16249.9
-2517.08
-17569.1
-2293.77
-18742.5
-1674.06
-19692.8
-600.41
-20255.7
867.342
2159.27
2613.72
-1298.99
2676.91
-795.151
2714.15
-87.4273
2694.26
637.536
2614.34
1106.1
2492.76
1322.79
2347.4
1386.64
2192.41
1356.79
2043.17
1229.16
1910.1
1019.83
1818.57
639.744
1769.79
174.152
1861.98
-940.66
1997.56
-1643.88
2195.57
-2181.34
2529.04
-3212.04
2950.26
-4376.21
3404.92
-5265.18
3887.79
-5856.44
4401.56
-6257.56
4941.28
-6527.64
5499.04
-6683.48
6066.56
-6720.9
6634.62
-6625.18
7191.56
-6372.62
7721.07
-5929.88
8202.66
-5266.33
8608.97
-4349.41
8914.15
-3185.62
9079.28
-1738.25
9119.46
-314.41
8932.13
1563.62
8589.07
3197.86
8156.85
4293.07
7641.65
5131.99
7054.4
5765.42
6420.24
6193.24
5764.88
6407.23
5108.92
6454.82
4469.27
6394.11
3856.55
6275.64
3272.65
6147.12
2712.05
6041.83
2163.43
5972.63
1610
5935.18
1025.05
5912.08
369.047
5874.88
-463.162
5772.14
-1528.41
5619.12
-2563.57
4434.03
-3318.68
1126.4
-2532.27
-6827.7
-3288.8
-6939.43
-3098.72
-2635.14
-2133.66
7217.38
-3090.02
12358.6
-4759.17
14605.4
-6688.99
10098.8
-7667.61
4874.79
-7837.82
3964
-7681.71
4487.93
-7312.55
4592.36
-6961.88
3900.2
-6810.81
2777.96
-6792.42
1778.08
-6820.42
932.56
-6846.59
236.213
-6858.48
-441.563
-6875.71
-1134.3
-6945.35
-1423.08
-7126.02
-1381.11
-7546.83
-939.543
-8105.84
28.2899
-8437.6
1055.52
-8548.93
2097.77
-8573.05
3256.41
-8594.41
3798.4
-8732.94
3696.29
-8900.24
3689.58
-9056.7
3784.91
-9179.86
3887.46
-9260.75
3809.6
-9315.82
3433.38
-9416.25
2808.68
-9641.78
2190.27
-9972.47
1782.97
-10306.5
1534.86
-10617.5
1289.64
-10950.9
977.849
-11391
602.436
-11966.5
108.194
-12676.7
-459.006
-13562.5
-960.383
-14593.7
-1315.06
-15699.3
-1411.45
-16788.8
-1204.26
-17768.4
-694.503
-18564.6
195.787
-19049
1351.75
2330.73
2523.36
-1342.44
2563.57
-835.393
2579.16
-103.066
2549.75
666.917
2471.4
1184.39
2354.48
1439.68
2210.97
1530.1
2052.58
1515.14
1895.61
1386.08
1752.37
1163
1653.37
738.681
1601.35
226.09
1699.74
-1039.18
1835.17
-1779.39
2053.63
-2399.86
2406.11
-3564.56
2824
-4794.13
3267.46
-5708.66
3741.35
-6330.35
4247.94
-6764.17
4781.21
-7060.92
5333.63
-7235.92
5897.68
-7284.97
6464.55
-7192.07
7022.6
-6930.68
7555.18
-6462.48
8041.3
-5752.46
8452.53
-4760.66
8762.46
-3495.56
8928.68
-1904.49
8971.8
-357.54
8770.5
1764.9
8416.62
3551.72
7975.14
4734.55
7450.7
5656.42
6852.44
6363.66
6206.14
6839.54
5538.35
7075
4870.83
7122.34
4221.41
7043.53
3600.6
6896.43
3009.49
6738.22
2441.51
6609.8
1884.27
6529.85
1319.74
6499.7
719.382
6512.42
40.6635
6553.58
-789.313
6602.11
-1737.62
6567.41
-2709.62
5406.03
-3250.14
1666.9
-2875.25
-7202.6
-3001.83
-6812.87
-2909.15
-2727.84
-2950.65
7258.88
-3582.61
12990.5
-4830.8
15853.6
-6627.34
11895.4
-7758.34
6005.79
-7962.59
4168.25
-7828.8
4354.13
-7566.97
4330.53
-7318.77
3652
-7197
2656.18
-7169.42
1750.5
-7188.98
952.123
-7213.53
260.752
-7235.4
-419.684
-7278.41
-1091.29
-7385.14
-1316.36
-7614.12
-1152.13
-8024.6
-529.057
-8437.89
441.571
-8665.01
1282.64
-8797.73
2230.49
-8859.45
3318.14
-8913.41
3852.36
-9055.94
3838.82
-9202.89
3836.52
-9304.56
3886.58
-9337.2
3920.09
-9314.38
3786.79
-9299.76
3418.76
-9395.89
2904.81
-9652.44
2446.82
-10000.3
2130.83
-10341.6
1876.15
-10666.3
1614.38
-11020.4
1331.92
-11446.4
1028.47
-12000.9
662.657
-12682.5
222.563
-13468
-174.818
-14356.8
-426.285
-15289.9
-478.33
-16190.2
-304.034
-17020
135.315
-17692.9
868.669
-18116.8
1775.69
2525.41
2441.45
-1367.02
2462.7
-856.659
2460.38
-100.777
2417.19
710.076
2331.74
1269.81
2213.37
1558.03
2069.98
1673.46
1909
1676.09
1745.63
1549.41
1593.18
1315.42
1487.5
844.31
1434.87
278.651
1541.3
-1145.74
1678.12
-1916.28
1920.31
-2642.08
2285.06
-3929.34
2694.7
-5203.78
3127.64
-6141.63
3594.21
-6796.93
4094.65
-7264.62
4622.16
-7588.44
5169.8
-7783.59
5730.73
-7845.9
6296.55
-7757.9
6855.66
-7489.8
7391.19
-6998.02
7881.7
-6242.98
8297.74
-5176.7
8612.24
-3810.07
8779.01
-2071.26
8824.44
-402.983
8607.03
1982.29
8242.36
3916.39
7790.49
5186.41
7255.8
6191.1
6646.82
6972.64
5988.93
7497.42
5308.63
7755.29
4629.01
7801.95
3969.33
7703.2
3340.5
7525.25
2742.97
7335.73
2169.28
7183.48
1606.36
7092.76
1036.21
7069.84
436.84
7111.78
-232.593
7222.99
-1035.73
7405.24
-1939.98
7471.63
-2937.08
6403.13
-3582.48
2312.28
-3635.28
-7149.8
-3764.34
-6683.83
-3777.31
-2714.89
-3816.34
7297.9
-4081.22
13255.4
-4832.38
16604.7
-6397.59
13460.6
-7715.46
7323.65
-8070.77
4523.57
-7995
4278.36
-7818.97
4154.5
-7654.05
3487.07
-7566.86
2568.99
-7543.97
1727.6
-7563.88
972.044
-7594.91
291.784
-7635.06
-379.536
-7707.4
-1018.95
-7841.46
-1182.29
-8081.63
-911.974
-8434.42
-176.264
-8715.66
722.816
-8873.74
1440.72
-8998.74
2355.49
-9056.52
3375.92
-9109.84
3905.68
-9231.52
3960.51
-9346.96
3951.96
-9402.24
3941.86
-9377.55
3895.4
-9309.81
3719.05
-9290.93
3399.87
-9416.84
3030.72
-9694.78
2724.75
-10040.5
2476.55
-10383.6
2219.23
-10723.5
1954.29
-11092.8
1701.21
-11505.1
1440.78
-12010.3
1167.87
-12649.7
861.905
-13384.6
560.13
-14170.7
359.776
-14961
311.979
-15722.8
457.801
-16434.8
847.316
-17018.2
1452.07
-17418.8
2176.33
2747.66
2366.73
-1373.01
2369.57
-859.527
2350.9
-82.1614
2294.19
766.752
2198.12
1365.83
2073.24
1682.88
1926.56
1820.1
1762.16
1840.44
1593.19
1718.33
1432.69
1475.85
1321.43
955.506
1272.35
327.642
1390.9
-1264.46
1529.63
-2055.09
1795.18
-2907.68
2163.73
-4297.94
2562.26
-5602.33
2986.23
-6565.62
3446.94
-7257.66
3942.1
-7759.8
4464.56
-8110.92
5008
-8327.05
5566.19
-8404.11
6131.14
-8322.86
6691.39
-8050.06
7229.9
-7536.54
7724.84
-6737.94
8145.78
-5597.65
8464.82
-4129.13
8631.67
-2238.13
8678.99
-450.31
8442.98
2218.28
8066.31
4293.05
7601.83
5650.88
7055.54
6737.38
6436.11
7592.06
5767.62
8165.89
5075.58
8447.32
4384.08
8493.44
3713.91
8373.35
3076.73
8162.43
2472.85
7939.6
1894.37
7761.95
1328.08
7659.04
756.866
7641.05
160.671
7707.96
-494.202
7877.84
-1248.8
8159.84
-2110.68
8333.5
-3152.59
7445.04
-4101.66
3261.35
-4562.93
-6688.54
-4681.89
-6564.88
-4766.91
-2629.89
-4668.65
7199.64
-4606.82
13193.6
-4878.06
16876
-6108.21
14690.7
-7537.26
8752.69
-8120.64
5106.95
-8155.61
4313.32
-8054.06
4052.95
-7954.54
3387.56
-7904.6
2519.04
-7897.76
1720.77
-7927.38
1001.66
-7972.8
337.199
-8035.01
-317.325
-8133.47
-920.489
-8284.21
-1031.55
-8513.99
-682.203
-8788.79
98.5413
-8960.4
894.419
-9061.88
1542.2
-9147.31
2440.91
-9169.6
3398.21
-9191.62
3927.71
-9270.36
4039.25
-9345.87
4027.47
-9368.77
3964.76
-9328.25
3854.88
-9276.29
3667.09
-9304.94
3428.52
-9476.91
3202.69
-9766.61
3014.46
-10101.9
2811.85
-10443.8
2561.07
-10795
2305.49
-11172.9
2079.18
-11595
1862.91
-12065.8
1638.62
-12624.8
1420.96
-13275.8
1211.06
-13957.6
1041.6
-14640.4
994.798
-15320.5
1137.91
-15955.5
1482.32
-16479.6
1976.12
-16866.1
2562.87
2985.68
2292.82
-1357.58
2277.72
-844.45
2245.91
-50.3813
2178.02
834.625
2070.55
1473.26
1935.91
1817.49
1782.62
1973.35
1613.23
2009.81
1438.93
1892.59
1271.54
1643.2
1155.94
1071.06
1116.22
367.297
1253.05
-1401.45
1391.35
-2193.46
1675.91
-3192.26
2040.31
-4662.36
2427.19
-5989.22
2844.07
-6982.52
3300.1
-7713.7
3790.76
-8250.47
4308.86
-8629.02
4848.68
-8866.89
5404.55
-8959.98
5968.88
-8887.21
6530.41
-8611.59
7072.04
-8078.18
7571.53
-7237.44
7997.58
-6023.7
8321.21
-4452.76
8487.87
-2404.81
8536.66
-499.11
8279.35
2475.58
7889.27
4683.12
7409.57
6130.57
6849.81
7297.12
6219.63
8222.24
5541.25
8844.26
4838.46
9150.1
4135.94
9195.96
3455.64
9053.64
2810.02
8808.04
2199.68
8549.93
1616.87
8344.74
1048.96
8226.94
482.487
8207.52
-105.11
8295.54
-745.659
8518.36
-1450.75
8864.93
-2268.61
9151.34
-3340.9
8517.33
-4616.51
4536.94
-5518.41
-5786.65
-5591.49
-6491.81
-5734.12
-2487.26
-5470.76
6936.27
-5161.33
12884.1
-5036.76
16751.4
-5859.79
15513.8
-7250.93
10143.8
-8072.88
5928.9
-8280.09
4520.53
-8259.39
4032.25
-8211.39
3339.56
-8198.8
2506.45
-8216.86
1738.83
-8263.98
1048.79
-8329.62
402.829
-8415.04
-231.901
-8537.47
-798.056
-8700.88
-868.137
-8912.81
-470.271
-9109.31
295.042
-9192.76
977.868
-9238.2
1587.65
-9263.19
2465.89
-9229.04
3364.06
-9198.08
3896.75
-9219.78
4060.94
-9253.57
4061.26
-9263.02
3974.21
-9247.25
3839.11
-9257.07
3676.91
-9358.73
3530.18
-9575.26
3419.22
-9869.11
3308.3
-10193.8
3136.55
-10534.9
2902.21
-10895.3
2665.85
-11279.5
2463.43
-11696.5
2279.88
-12153.9
2095.98
-12649.7
1916.8
-13187.8
1749.14
-13773.8
1627.65
-14398.4
1619.37
-15028.3
1767.79
-15611.5
2065.54
-16105.8
2470.42
-16483.1
2940.17
3241.02
2216.54
-1325.27
2180.47
-808.413
2133.87
-3.82513
2059.54
908.92
1945.17
1587.57
1801.33
1961.3
1639.56
2135.07
1463.61
2185.72
1283.98
2072.18
1110.72
1816.41
991.922
1189.78
963.57
395.562
1119.95
-1558.05
1262.91
-2336.5
1558.98
-3488.38
1913.87
-5017.29
2290.4
-6365.77
2701.96
-7394.11
3154.17
-8165.94
3640.98
-8737.3
4155.37
-9143.43
4692.13
-9403.67
5246.07
-9513.93
5810.05
-9451.21
6373.01
-9174.57
6917.88
-8623.05
7422
-7741.58
7853.38
-6455.09
8181.6
-4781
8347.98
-2571.19
8397.82
-548.963
8116.75
2756.63
7712.65
5087.21
7215.38
6627.82
6639.47
7873.02
5997.23
8864.47
5309.08
9532.41
4596.47
9862.7
3884.04
9908.39
3194.39
9743.28
2540.63
9461.79
1923.87
9166.67
1337.07
8931.53
768.717
8795.29
206.841
8769.38
-371.54
8873.91
-995.195
9141.99
-1660.45
9530.19
-2437.75
9928.62
-3505.93
9585.51
-4788.43
5819.43
-6173.08
-4402
-6446.86
-6218.05
-6630.76
-2303.38
-6238.88
6544.38
-5751.52
12396.8
-5321.71
16321.6
-5713
15905
-6916.14
11347
-7925.5
6938.26
-8347.28
4942.31
-8423.14
4108.1
-8420.69
3337.11
-8446.11
2531.87
-8496.26
1788.99
-8568.07
1120.6
-8658.45
493.2
-8766.81
-123.538
-8913.48
-651.387
-9090.95
-690.668
-9286.67
-274.559
-9417.5
425.874
-9434.85
995.215
-9426.9
1579.71
-9385.71
2424.69
-9286.82
3265.17
-9193.01
3802.93
-9153.1
4021.04
-9149.58
4057.74
-9163.75
3988.38
-9199.82
3875.18
-9290.3
3767.39
-9463.21
3703.09
-9712.19
3668.21
-10005.7
3601.81
-10323.2
3454.08
-10664.5
3243.49
-11029.5
3030.82
-11413
2846.89
-11815
2681.88
-12241.4
2522.43
-12696.9
2372.27
-13192.9
2245.19
-13739.9
2174.6
-14323.9
2203.43
-14909.1
2352.99
-15454.8
2611.18
-15927.1
2942.72
-16301
3314.06
3513.55
2159.55
-1282.51
2103.07
-751.953
2031.35
67.871
1941.72
998.528
1819.96
1709.29
1668.43
2112.8
1497.93
2305.55
1314.52
2369.1
1129.55
2257.11
951.421
1994.5
830.224
1310.93
811.287
414.434
982.899
-1729.84
1141.97
-2495.63
1441.24
-3787.67
1784.53
-5360.6
2152.84
-6734.1
2560.44
-7801.73
3009.49
-8614.99
3492.99
-9220.81
4004.22
-9654.66
4538.39
-9937.86
5090.73
-10066.3
5654.55
-10015
6219
-9739.01
6767.08
-9171.15
7275.73
-8250.23
7712.46
-6891.83
8045.09
-5113.63
8211.02
-2737.13
8261.5
-599.448
7954.89
3063.23
7536.68
5505.41
7019.53
7144.96
6424.6
8467.94
5768.72
9520.34
5070.57
10230.6
4348.86
10584.4
3627.68
10629.6
2929.7
10441.2
2268.38
10123.1
1645.51
9789.53
1055.12
9521.91
488.703
9361.7
-69.0752
9327.15
-641.399
9446.22
-1240.77
9741.35
-1864.17
10153.6
-2600.55
10665
-3632.39
10617.4
-4871.93
7058.95
-6670.17
-2603.77
-7263.22
-5625.02
-7471.35
-2095.25
-6998.51
6071.54
-6379.04
11777.3
-5715.1
15657.6
-5705.89
15895.8
-6633.25
12274.3
-7739.25
8044.27
-8361.55
5564.6
-8537.76
4284.32
-8581.2
3380.54
-8645.45
2596.13
-8731.78
1875.31
-8834.59
1223.42
-8953.66
612.262
-9087.89
10.7003
-9262.99
-476.285
-9459.96
-493.703
-9646.78
-87.7355
-9728.76
507.858
-9706.71
973.162
-9660.69
1533.69
-9563.6
2327.6
-9406.88
3108.46
-9254.3
3650.35
-9158.53
3925.26
-9125.36
4024.58
-9153.38
4016.4
-9245.2
3967
-9407.02
3929.21
-9632.44
3928.5
-9900.4
3936.18
-10192.1
3893.55
-10505.3
3767.25
-10844.9
3583.04
-11207.9
3393.81
-11586.3
3225.31
-11978.3
3073.95
-12391.9
2935.97
-12838.9
2819.26
-13330
2736.35
-13863
2707.6
-14417.6
2758.01
-14966.6
2901.97
-15482.5
3127.09
-15937.7
3397.95
-16310.1
3686.41
3800.87
2102.55
-1229.6
2029.47
-678.914
1934.47
162.83
1826.4
1106.56
1695.21
1840.44
1536.61
2271.37
1357.79
2484.32
1166.73
2560.12
976.717
2447.08
794.781
2176.38
671.561
1434.09
663.461
422.444
847.496
-1914.1
1025.36
-2673.57
1320.94
-4083.29
1652.99
-5692.69
2015.18
-7096.3
2419.81
-8206.39
2866.18
-9061.38
3346.83
-9701.47
3855.31
-10163.2
4387.23
-10469.8
4938.18
-10617.2
5501.85
-10578.7
6067.61
-10304.8
6618.61
-9722.16
7131.28
-8762.91
7573.03
-7333.6
7909.44
-5450.05
8074.54
-2902.25
8124.98
-649.897
7791.7
3396.5
7359.84
5937.25
6821.22
7683.57
6205.09
9084.05
5534.07
10191.4
4825.36
10939.3
4095.02
11314.7
3366.23
11358.3
2660.99
11146.5
1992.88
10791.2
1364.39
10418
770.879
10115.4
204.645
9927.92
-351.327
9883.11
-916.512
10011.4
-1481.68
10306.5
-2058.5
10730.4
-2751.64
11358.1
-3721.56
11587.3
-5026.68
8364.07
-7150.4
-480.058
-8057.75
-4717.69
-8279.92
-1873.08
-7761.31
5552.92
-7049.02
11065
-6222.28
14830.9
-5905.12
15578.7
-6547.22
12916.4
-7628.08
9125.13
-8354.85
6291.37
-8604.56
4534.03
-8693.31
3469.29
-8793.33
2696.14
-8912.62
1994.6
-9048.01
1358.81
-9201.45
765.694
-9374.45
183.707
-9587.44