/*--------------------------------*- C++ -*----------------------------------*\
| =========                 |                                                 |
| \\      /  F ield         | OpenFOAM: The Open Source CFD Toolbox           |
|  \\    /   O peration     | Version:  4.1                                   |
|   \\  /    A nd           | Web:      www.OpenFOAM.org                      |
|    \\/     M anipulation  |                                                 |
\*---------------------------------------------------------------------------*/
FoamFile
{
    version     2.0;
    format      ascii;
    class       volVectorField;
    location    "1700";
    object      U;
}
// * * * * * * * * * * * * * * * * * * * * * * * * * * * * * * * * * * * * * //

dimensions      [0 1 -1 0 0 0 0];

internalField   nonuniform List<vector> 
26785
(
(4.15959e-15 -0.00331297 28.8703)
(4.23694e-15 0.0248676 28.5913)
(2.30346e-15 0.0496216 27.7449)
(-1.1554e-14 0.0674385 26.4628)
(1.95746e-14 0.0756266 24.9689)
(-1.29055e-14 0.0769727 23.4571)
(-3.89034e-16 0.0746376 22.0217)
(-1.04821e-14 0.0702314 20.6974)
(1.25471e-14 0.0637481 19.5066)
(-3.43574e-14 0.0552765 18.4801)
(9.35892e-15 0.0435882 17.6398)
(1.66007e-14 0.0276905 17.0368)
(1.90727e-14 0.00367145 16.7791)
(1.72155e-14 -0.0211802 16.8925)
(1.59047e-14 -0.0467067 17.3562)
(1.56007e-14 -0.0816928 18.2591)
(1.92468e-14 -0.121705 19.6844)
(2.1789e-14 -0.154535 21.5758)
(2.15733e-14 -0.175467 23.7847)
(8.28945e-15 -0.18753 26.1684)
(1.90284e-14 -0.194191 28.6333)
(4.4187e-15 -0.197024 31.1185)
(2.53341e-15 -0.195882 33.5698)
(-3.25232e-15 -0.189618 35.9273)
(-5.10829e-15 -0.176755 38.1203)
(1.2902e-14 -0.156133 40.0701)
(1.15524e-14 -0.127316 41.6947)
(9.20692e-15 -0.0909319 42.9204)
(1.24236e-14 -0.0483425 43.6877)
(2.2461e-14 -0.00120978 43.9507)
(5.30313e-14 0.0431424 43.7152)
(5.75528e-14 0.0847677 43.0309)
(5.97362e-14 0.129677 41.9228)
(5.82608e-14 0.168194 40.4042)
(6.06899e-14 0.190628 38.5684)
(9.76892e-14 0.205234 36.5826)
(9.11873e-14 0.217465 34.5348)
(8.60323e-14 0.225636 32.4377)
(7.65538e-14 0.229482 30.3112)
(8.05277e-14 0.230886 28.1915)
(6.88517e-14 0.230851 26.1002)
(4.65274e-14 0.229627 24.0414)
(4.54012e-14 0.227334 22.0166)
(4.84296e-14 0.223756 20.0297)
(7.87284e-14 0.218459 18.0877)
(6.73335e-14 0.211483 16.1977)
(9.61443e-14 0.204043 14.3696)
(5.21946e-14 0.201969 12.5684)
(3.09609e-14 0.191891 10.8758)
(5.54233e-14 0.223544 9.04833)
(-2.49484e-14 0.0995137 7.50906)
(-5.48624e-14 -0.18357 7.9028)
(2.46102e-14 -0.265083 10.1881)
(4.00661e-14 -0.0636654 12.111)
(4.22292e-14 0.190852 12.3292)
(4.60414e-14 0.303651 10.6009)
(8.92015e-15 0.320469 7.68637)
(-2.88117e-14 0.104706 5.46953)
(-4.988e-14 -0.0558092 5.52816)
(-1.67188e-13 0.0499344 6.33194)
(4.91407e-14 0.223083 5.72058)
(-3.11883e-16 0.104166 3.70576)
(1.00315e-13 -0.427002 2.64466)
(-5.86268e-13 -0.997582 3.29539)
(-4.20334e-14 -0.384646 4.26064)
(-1.34992e-13 0.168064 3.35912)
(-5.64314e-14 0.216887 2.9773)
(-9.94006e-15 -0.432463 5.56423)
(4.11766e-15 -0.931314 7.48558)
(1.51128e-14 -0.894765 9.23984)
(-1.10916e-13 -0.296519 10.287)
(-5.15913e-14 0.250864 11.5955)
(-8.55739e-14 0.498613 14.5827)
(-6.94747e-14 1.36358 17.5392)
(-6.39829e-14 2.1461 17.7247)
(1.12303e-14 1.17029 14.9781)
(-5.45889e-14 0.149132 13.6741)
(-4.09363e-14 0.0363484 13.151)
(-3.15383e-14 -0.154415 13.4976)
(-2.70482e-14 -0.440893 14.7044)
(-7.32527e-15 -0.579687 15.8864)
(-8.07718e-14 -0.603077 17.0578)
(-6.37803e-14 -0.586813 18.1814)
(-6.36739e-14 -0.473224 19.1693)
(-6.66428e-14 -0.234577 19.1684)
(-7.22062e-14 0.0457075 18.5229)
(-8.74027e-14 0.241387 17.3627)
(-8.31243e-14 0.297857 16.2928)
(-2.14377e-13 0.270225 15.0399)
(-1.5771e-13 0.399894 14.0806)
(-1.58808e-13 0.616203 13.2438)
(-1.62661e-13 0.621231 13.4344)
(-1.70955e-13 1.40119 15.679)
(-1.66214e-13 2.51552 16.9821)
(-1.50442e-13 1.70033 16.4646)
(-1.64834e-13 -0.159504 18.9027)
(-1.39501e-13 -1.33362 24.6596)
(-1.27271e-13 -1.32303 30.3932)
(-1.19895e-13 -0.523488 35.5097)
(-1.16751e-13 0.397238 33.9604)
(5.079e-15 0.00613205 29.0353)
(-1.92233e-14 0.0822527 28.7147)
(1.15316e-15 0.152611 27.8285)
(-3.39237e-15 0.20454 26.5002)
(2.09449e-14 0.227984 24.962)
(-1.14143e-14 0.230917 23.4131)
(4.32454e-14 0.223065 21.9483)
(2.27142e-14 0.209488 20.5995)
(-1.62198e-14 0.190122 19.3863)
(-9.67957e-15 0.164942 18.3385)
(-8.63458e-15 0.129983 17.4797)
(-3.79233e-15 0.0826707 16.8609)
(-2.05433e-15 0.0100975 16.5842)
(4.83925e-15 -0.0641011 16.6811)
(-4.41991e-14 -0.137483 17.1213)
(5.22258e-15 -0.236993 17.9514)
(2.95574e-14 -0.351034 19.2456)
(1.1409e-14 -0.446409 20.9884)
(-4.20819e-15 -0.512017 23.0811)
(-4.29756e-15 -0.555578 25.3981)
(-3.10784e-14 -0.583349 27.8328)
(-1.40327e-14 -0.596944 30.3035)
(-3.29696e-14 -0.595214 32.7428)
(-8.34324e-15 -0.575598 35.0869)
(-5.48709e-15 -0.535025 37.2672)
(-1.0445e-14 -0.471204 39.2097)
(-4.86971e-15 -0.383512 40.8363)
(-1.10635e-14 -0.273918 42.0752)
(-1.78158e-14 -0.146077 42.8658)
(-2.4544e-14 -0.00469301 43.1573)
(-2.11301e-14 0.12959 42.9574)
(-2.31387e-14 0.258082 42.2993)
(-2.23881e-14 0.395151 41.1955)
(-2.47831e-14 0.510525 39.6803)
(-3.57216e-14 0.5777 37.835)
(-2.29774e-14 0.620511 35.8357)
(-7.75958e-15 0.654861 33.7764)
(5.6282e-15 0.676412 31.6727)
(1.49651e-14 0.685444 29.5457)
(2.20826e-14 0.688159 27.4311)
(3.6707e-14 0.687637 25.3479)
(2.84375e-14 0.684465 23.2977)
(1.61834e-14 0.678729 21.28)
(3.69899e-14 0.669538 19.2972)
(7.77192e-15 0.655345 17.3548)
(1.34287e-14 0.635649 15.46)
(2.48231e-14 0.61235 13.6279)
(6.01181e-14 0.602481 11.8413)
(9.5433e-14 0.564758 10.2002)
(1.19002e-13 0.619524 8.46346)
(3.69761e-15 0.211976 7.3261)
(4.45519e-14 -0.551773 7.86843)
(-6.40414e-15 -0.804858 10.1163)
(6.5714e-14 -0.28184 12.0488)
(8.55839e-14 0.503896 12.5577)
(-8.32345e-14 0.917748 10.673)
(-5.70777e-14 0.953498 7.64484)
(-8.41149e-14 0.324867 5.71507)
(1.26311e-13 -0.0922086 5.60185)
(2.36319e-14 0.121684 6.33137)
(6.56749e-14 0.671553 5.71561)
(-1.56197e-13 0.806056 3.21537)
(-1.32791e-13 -0.0618629 -0.403209)
(-8.6043e-14 -0.0280602 -5.1925)
(-1.21566e-14 0.264345 -8.56328)
(1.51689e-14 0.0268285 -9.53764)
(4.03813e-14 -0.154026 -10.0902)
(6.43278e-14 -0.330999 -10.5001)
(-8.96109e-14 -0.206541 -10.8778)
(-3.53479e-14 -0.114801 -10.4347)
(1.47879e-14 -0.679737 -8.79383)
(-4.04922e-14 -1.96406 -5.93918)
(-9.55261e-14 -3.21496 -1.4319)
(-1.2309e-13 -3.01731 2.89091)
(4.25566e-13 -0.386803 13.8381)
(1.05475e-14 1.46422 4.59331)
(-8.1121e-14 1.2803 -7.58293)
(-5.57621e-14 0.635098 -12.9272)
(-7.54309e-14 -0.225323 -14.7414)
(-9.1927e-14 -0.400733 -15.6549)
(-9.11966e-14 -0.402756 -16.4224)
(-1.55795e-13 -0.352348 -16.9277)
(-1.5376e-13 -0.233042 -17.2832)
(-1.34171e-13 -0.0153276 -17.3027)
(-8.7705e-14 0.185945 -16.8315)
(-1.18897e-13 0.28213 -16.1616)
(-1.21115e-13 0.309517 -15.8689)
(-1.51729e-13 0.321193 -16.2075)
(-1.69841e-13 0.22487 -16.744)
(-1.52986e-13 -0.11412 -16.2487)
(-1.5171e-13 -0.783783 -14.3199)
(-1.45053e-13 -1.82256 -11.8754)
(-1.31072e-13 -2.75968 -6.96678)
(-1.50392e-13 -2.6931 2.12822)
(-1.32205e-13 -2.04042 8.95272)
(-1.19486e-13 -2.27547 12.1277)
(-1.04338e-13 -3.37208 15.6062)
(-1.02563e-13 -3.00136 16.9595)
(-9.90539e-14 -1.10976 19.4835)
(-1.00804e-13 1.05864 19.5302)
(5.65535e-15 0.0150549 28.9522)
(-7.52816e-15 0.140017 28.6266)
(3.0427e-15 0.258278 27.7268)
(-1.48342e-15 0.345851 26.3653)
(-1.08105e-14 0.384872 24.7841)
(-2.99459e-14 0.389155 23.1909)
(4.2905e-14 0.375458 21.683)
(1.48676e-14 0.352402 20.2931)
(2.15949e-14 0.319761 19.0411)
(1.57818e-14 0.277335 17.9579)
(8.90527e-15 0.218361 17.0688)
(2.09582e-15 0.139534 16.422)
(-2.81672e-15 0.0171445 16.1168)
(-1.71538e-15 -0.105703 16.1908)
(5.36549e-15 -0.221737 16.6031)
(-1.32328e-15 -0.378231 17.3545)
(3.24315e-14 -0.562306 18.5267)
(-3.75041e-14 -0.72407 20.1649)
(-1.34031e-14 -0.842223 22.1955)
(-5.24931e-14 -0.922158 24.4654)
(-3.20898e-14 -0.971017 26.8378)
(-6.36054e-15 -0.993131 29.2241)
(-2.01105e-14 -0.989384 31.5669)
(-1.50401e-14 -0.957237 33.8165)
(1.89577e-15 -0.892037 35.9165)
(-4.29601e-15 -0.78957 37.8018)
(7.52742e-15 -0.647978 39.3988)
(3.5878e-15 -0.469624 40.636)
(-4.22022e-15 -0.259891 41.45)
(-1.08943e-14 -0.0266359 41.7831)
(-1.0739e-14 0.197223 41.6447)
(-8.40888e-15 0.416565 41.0521)
(-2.02278e-14 0.647942 39.9986)
(-3.55852e-15 0.840041 38.5341)
(1.02774e-15 0.954757 36.7226)
(-9.62613e-15 1.02911 34.747)
(-1.475e-14 1.08726 32.7046)
(-1.56414e-14 1.12264 30.6131)
(-1.01907e-14 1.13706 28.4988)
(-2.81099e-15 1.1412 26.4015)
(6.16077e-15 1.14025 24.3414)
(1.24527e-14 1.13535 22.321)
(1.83725e-14 1.12678 20.3396)
(2.0362e-14 1.11313 18.3987)
(2.46007e-14 1.09167 16.5015)
(1.76055e-14 1.06029 14.6546)
(1.74722e-14 1.01834 12.8779)
(2.16656e-14 0.988172 11.1647)
(4.15029e-14 0.908607 9.68582)
(1.63931e-14 0.946204 8.04466)
(4.57121e-14 0.252394 7.25019)
(7.15699e-15 -0.890051 7.82215)
(-4.01779e-14 -1.32508 9.91934)
(-3.61909e-14 -0.549832 11.6195)
(-2.34061e-14 0.786979 12.1216)
(2.14764e-14 1.53255 10.1617)
(1.45468e-14 1.56751 7.05899)
(2.0401e-14 0.50792 5.32151)
(-6.95175e-14 -0.0984839 5.05721)
(2.12082e-16 0.355394 5.90589)
(-1.25973e-14 1.24412 5.34669)
(1.01839e-13 1.66296 3.23946)
(-4.76404e-14 1.04448 -1.32528)
(-6.32548e-14 1.09965 -7.40258)
(-5.84599e-14 0.746862 -10.4419)
(-8.83678e-14 0.245417 -10.86)
(1.04184e-14 -0.0289249 -11.0316)
(-7.09581e-14 -0.536764 -11.2779)
(-7.35547e-14 -0.792394 -11.4808)
(-8.60219e-14 -0.81656 -10.9454)
(-9.48446e-14 -1.21219 -9.59618)
(-1.08115e-13 -2.47789 -8.58638)
(-4.75448e-14 -3.84952 -8.82172)
(-4.9735e-14 -3.06515 -10.0838)
(-1.90384e-15 1.95841 -8.17789)
(-2.50147e-14 4.73763 -7.7959)
(-1.24085e-13 3.8049 -14.0563)
(-1.36172e-13 1.7408 -14.4876)
(-1.2984e-13 0.247511 -15.5567)
(-1.12829e-13 -0.117396 -16.8631)
(-1.1014e-13 -0.231262 -18.0548)
(-1.00971e-13 -0.307707 -19.0076)
(-8.92738e-14 -0.39839 -19.8028)
(-1.16898e-13 -0.451231 -20.2874)
(-1.28385e-13 -0.433141 -20.3376)
(-1.50634e-13 -0.259003 -20.0175)
(-1.67735e-13 0.0619881 -19.5345)
(-1.74852e-13 0.279233 -19.0486)
(-1.58105e-13 0.0646959 -18.3872)
(-1.81471e-13 -0.533561 -17.0691)
(-1.73191e-13 -1.37537 -15.5252)
(-1.49987e-13 -2.75289 -13.6619)
(-1.34295e-13 -4.1658 -12.2446)
(-1.0805e-13 -4.4783 -10.8077)
(-9.66583e-14 -4.27403 -7.57854)
(-9.34393e-14 -4.66191 -2.50571)
(-1.05656e-13 -5.32768 1.24228)
(-1.11059e-13 -5.0309 -0.148713)
(-9.68728e-14 -1.57319 6.62571)
(-9.91404e-14 1.40111 8.66285)
(2.98812e-15 0.0205632 28.6031)
(1.18996e-15 0.195194 28.3082)
(3.01402e-14 0.363833 27.4312)
(3.4146e-14 0.489172 26.0653)
(1.29779e-14 0.54447 24.4596)
(3.69124e-14 0.549921 22.8317)
(2.13202e-14 0.529928 21.2836)
(-2.33456e-14 0.496887 19.851)
(1.43084e-14 0.450384 18.5567)
(5.69177e-16 0.390138 17.4345)
(-8.38188e-15 0.30646 16.5117)
(-1.45255e-14 0.196214 15.8335)
(-2.71822e-14 0.0222427 15.5004)
(6.49286e-14 -0.147904 15.5534)
(2.95826e-14 -0.301239 15.945)
(3.00459e-14 -0.510619 16.6353)
(1.42859e-14 -0.765711 17.7319)
(1.47059e-15 -0.997784 19.3286)
(-5.5391e-14 -1.16888 21.3342)
(-4.91452e-14 -1.28049 23.555)
(-4.3429e-14 -1.34487 25.8459)
(-2.69669e-14 -1.3725 28.1321)
(-2.10753e-14 -1.36675 30.3694)
(-8.53115e-15 -1.32426 32.5147)
(-3.4617e-15 -1.23807 34.5166)
(-2.29311e-15 -1.10158 36.3156)
(-1.93227e-15 -0.911292 37.8448)
(-7.30451e-15 -0.669461 39.0374)
(-1.39801e-14 -0.382778 39.8327)
(-1.59679e-14 -0.061781 40.169)
(-2.58993e-14 0.248508 40.0586)
(-3.97283e-14 0.560017 39.5072)
(-3.30824e-14 0.885351 38.4838)
(-3.02257e-14 1.15169 37.0623)
(-3.90559e-14 1.31543 35.2854)
(-3.30671e-14 1.42406 33.3434)
(-3.43515e-14 1.50722 31.3332)
(1.01284e-14 1.55639 29.2722)
(-1.78962e-14 1.57575 27.1917)
(-4.82249e-14 1.58037 25.1353)
(8.77855e-16 1.5776 23.1248)
(1.32141e-14 1.5695 21.1633)
(-2.17846e-14 1.55684 19.2503)
(-4.84651e-14 1.53789 17.3859)
(1.30498e-16 1.50868 15.5714)
(1.70134e-14 1.46445 13.8119)
(1.87079e-14 1.39971 12.1326)
(-3.17658e-14 1.33153 10.5261)
(-5.00544e-14 1.2076 9.24225)
(-1.81547e-14 1.21607 7.62755)
(7.47019e-14 0.255025 7.12885)
(-1.33796e-14 -1.16781 7.44166)
(1.1455e-14 -1.75322 9.4656)
(-8.10909e-14 -0.772182 11.014)
(-6.97005e-14 1.11609 11.3642)
(3.24349e-14 2.17159 9.16125)
(-3.89949e-14 2.16673 5.87928)
(8.41539e-14 0.680046 4.37936)
(-1.51308e-13 -0.100662 4.14327)
(-2.57016e-14 -0.00491409 4.91976)
(1.28241e-14 1.1307 4.28249)
(1.4165e-13 2.44014 2.44119)
(2.84037e-14 2.60682 -3.79486)
(-2.36457e-14 2.41971 -9.06494)
(-1.20412e-13 1.24016 -10.7783)
(-1.6863e-13 0.469684 -11.1864)
(-2.02458e-13 0.225682 -11.6897)
(-1.74666e-13 -0.195231 -11.9936)
(-1.42516e-13 -0.585477 -12.2748)
(-1.61369e-13 -0.897477 -12.0614)
(-1.07184e-13 -1.3549 -11.5727)
(-1.31863e-13 -2.36963 -11.4256)
(-9.70473e-14 -3.56386 -12.5119)
(-1.05231e-13 -3.16092 -14.6879)
(-1.54585e-13 1.13328 -15.4929)
(-1.18905e-13 4.88675 -14.4889)
(-1.61463e-13 4.44856 -15.2896)
(-1.48166e-13 2.13291 -14.1182)
(-1.27075e-13 0.917187 -15.5072)
(-1.21571e-13 0.445643 -16.7373)
(-1.09927e-13 0.222249 -17.8793)
(-1.0725e-13 0.0582328 -18.7866)
(-1.05567e-13 -0.117192 -19.5748)
(-1.36289e-13 -0.263495 -20.2492)
(-1.45114e-13 -0.322706 -20.8037)
(-1.71017e-13 -0.226958 -21.0048)
(-1.6595e-13 -0.0160369 -20.7529)
(-1.63173e-13 0.0595914 -20.4478)
(-1.5821e-13 -0.344086 -19.9874)
(-2.01482e-13 -1.05808 -19.1619)
(-1.80206e-13 -1.88352 -18.2415)
(-1.72435e-13 -3.02372 -16.9653)
(-1.5298e-13 -4.18176 -15.5781)
(-1.20321e-13 -4.72981 -13.9389)
(-1.04957e-13 -4.98173 -12.4225)
(-1.0123e-13 -5.46831 -12.0204)
(-1.0493e-13 -5.71249 -13.3494)
(-1.04571e-13 -4.98712 -16.904)
(-9.17359e-14 -1.38614 -17.7813)
(-9.21099e-14 1.62998 -14.9145)
(5.17093e-15 0.0164672 27.9363)
(1.78214e-14 0.239286 27.7056)
(-7.44847e-15 0.45998 26.9145)
(-8.43067e-15 0.626694 25.5986)
(-4.60751e-15 0.701537 24.0053)
(-7.42753e-15 0.710605 22.3666)
(4.59781e-14 0.686002 20.7939)
(1.99008e-14 0.643915 19.3289)
(8.71974e-15 0.583752 17.9987)
(-7.5289e-15 0.505519 16.8402)
(-1.67795e-14 0.396476 15.8831)
(-3.76943e-15 0.254991 15.1703)
(-3.67165e-14 0.0270456 14.8087)
(7.05888e-15 -0.189876 14.8385)
(-2.75201e-15 -0.377545 15.2147)
(-6.40134e-15 -0.638925 15.8615)
(-5.49872e-15 -0.967414 16.9339)
(-2.668e-14 -1.2717 18.554)
(-3.93633e-14 -1.49321 20.5765)
(-5.04125e-14 -1.63192 22.7745)
(-4.96414e-14 -1.7087 25.0151)
(-2.92458e-14 -1.74036 27.2404)
(-2.44602e-14 -1.73147 29.4109)
(-1.53528e-14 -1.67747 31.483)
(-9.63329e-15 -1.5697 33.4075)
(-9.82946e-15 -1.39992 35.1315)
(-1.33599e-14 -1.16335 36.5968)
(-8.71297e-15 -0.861725 37.7443)
(-2.92063e-14 -0.502419 38.5154)
(-3.2538e-14 -0.0973343 38.843)
(-3.32805e-14 0.296063 38.7395)
(-2.88887e-14 0.701427 38.1964)
(-2.16773e-14 1.11975 37.1553)
(-1.50031e-14 1.45565 35.7212)
(-2.96264e-14 1.66729 33.9235)
(-2.6069e-14 1.81025 31.964)
(-2.91001e-14 1.91707 29.9401)
(-2.5973e-14 1.97782 27.8716)
(-3.44829e-14 1.99992 25.7971)
(-3.87875e-14 2.00274 23.765)
(-3.14637e-14 1.99571 21.7972)
(-3.0985e-14 1.98219 19.8953)
(-3.38136e-14 1.96367 18.0565)
(-1.08683e-15 1.93824 16.2768)
(-1.32629e-14 1.90063 14.5529)
(-1.09488e-14 1.84258 12.8861)
(-1.84345e-14 1.75293 11.3018)
(-2.05727e-14 1.63229 9.78529)
(-2.98208e-14 1.46798 8.66089)
(5.01875e-14 1.42902 7.00482)
(4.42521e-14 0.236176 6.83411)
(2.52268e-14 -1.36753 6.75913)
(-1.37543e-14 -2.12838 9.03299)
(-7.41667e-14 -0.96415 10.4962)
(-6.46876e-14 1.5025 10.4613)
(3.41226e-14 2.86266 7.73552)
(3.50297e-14 2.70346 4.15987)
(7.8703e-14 0.896353 3.3214)
(-1.70153e-13 -0.219865 3.17317)
(-3.76472e-14 0.152574 4.12981)
(4.32156e-14 1.84999 0.862924)
(1.20592e-13 3.71455 -2.7295)
(-3.5781e-15 4.2207 -8.35363)
(-1.09196e-13 3.20099 -10.8824)
(-1.55706e-13 1.41924 -11.2778)
(-2.88706e-13 0.516351 -11.8906)
(-1.91093e-13 0.197464 -12.4397)
(-1.64547e-13 -0.193397 -12.7277)
(-1.14634e-13 -0.578142 -13.0018)
(-1.61834e-13 -0.927826 -12.9394)
(-1.49794e-13 -1.38773 -12.8838)
(-1.61172e-13 -2.19976 -13.2682)
(-1.0658e-13 -2.94131 -14.8987)
(-1.12633e-13 -2.27916 -17.2983)
(-1.14501e-13 0.958323 -18.5352)
(-1.59177e-13 3.91169 -17.0169)
(-1.76152e-13 3.85456 -15.4013)
(-1.37003e-13 2.16374 -14.4278)
(-1.26875e-13 1.32139 -15.557)
(-9.87096e-14 0.844234 -16.6473)
(-5.38129e-14 0.591716 -17.8772)
(-1.23042e-13 0.406573 -18.9871)
(-1.65985e-13 0.230751 -20.0503)
(-2.03155e-13 0.0523817 -21.0194)
(-2.02611e-13 -0.146025 -21.8981)
(-1.71795e-13 -0.283158 -22.4861)
(-1.75338e-13 -0.233279 -22.5754)
(-1.72837e-13 -0.224044 -22.4169)
(-1.84405e-13 -0.717694 -22.0767)
(-2.02029e-13 -1.55962 -21.78)
(-1.94271e-13 -2.56094 -21.4502)
(-1.75449e-13 -3.78579 -20.9812)
(-1.63009e-13 -4.895 -20.3553)
(-1.34004e-13 -5.3815 -19.3225)
(-1.13328e-13 -5.27546 -17.9972)
(-9.40453e-14 -5.01604 -17.3165)
(-9.90277e-14 -4.9066 -18.3031)
(-1.02045e-13 -4.80767 -20.9621)
(-1.13532e-13 -2.79782 -22.6493)
(-1.19549e-13 0.418349 -22.491)
(2.10054e-15 -0.00555563 26.6987)
(1.26666e-15 0.264021 26.5753)
(6.32496e-15 0.539652 25.9391)
(7.09909e-15 0.752753 24.7594)
(1.27816e-14 0.851064 23.2523)
(1.49418e-14 0.866182 21.6613)
(3.57599e-14 0.838589 20.1118)
(3.85943e-14 0.788716 18.6538)
(8.84298e-15 0.715845 17.3191)
(-1.07416e-14 0.62052 16.1479)
(3.46345e-15 0.486355 15.1719)
(1.14058e-14 0.314588 14.4329)
(-1.60583e-14 0.0295948 14.0514)
(-8.02956e-15 -0.233107 14.0656)
(-6.92017e-15 -0.452647 14.4355)
(-9.58761e-15 -0.768254 15.0604)
(-2.5184e-14 -1.17626 16.1733)
(-4.41796e-14 -1.55422 17.8737)
(-3.88596e-14 -1.82094 19.9291)
(-3.82573e-14 -1.98104 22.1058)
(-2.82233e-14 -2.06712 24.3044)
(-3.42868e-14 -2.10113 26.4854)
(-1.96287e-14 -2.08753 28.612)
(-2.03572e-14 -2.0206 30.6408)
(-3.11646e-14 -1.89072 32.5259)
(-2.44034e-14 -1.68848 34.2208)
(-2.94138e-14 -1.40789 35.6724)
(-2.95807e-14 -1.04934 36.8233)
(-3.69877e-14 -0.620083 37.6111)
(-3.44482e-14 -0.131814 37.9587)
(-3.69469e-14 0.344584 37.8775)
(-3.92627e-14 0.850046 37.3429)
(-1.28134e-14 1.36481 36.2691)
(-5.21367e-15 1.76921 34.7865)
(-1.39562e-14 2.02965 32.9205)
(-4.31863e-14 2.20755 30.8889)
(-5.21265e-14 2.33579 28.7915)
(-4.49076e-14 2.40369 26.6551)
(-4.60985e-14 2.42322 24.5312)
(-5.37019e-14 2.41842 22.4754)
(-7.07245e-14 2.40144 20.5111)
(-1.12663e-14 2.37764 18.6385)
(1.61021e-15 2.34971 16.8501)
(-2.70587e-14 2.31569 15.135)
(8.86152e-16 2.26902 13.4821)
(-2.21163e-14 2.19747 11.8848)
(-2.79104e-14 2.08369 10.3626)
(-1.8354e-14 1.90204 8.89399)
(-1.57398e-14 1.69079 7.85297)
(7.64476e-15 1.57941 6.1527)
(7.92201e-15 0.188382 6.22112)
(3.95298e-14 -1.5584 6.11848)
(-1.15525e-13 -2.54142 8.72232)
(-1.41998e-13 -1.10927 9.92517)
(-1.1016e-13 2.05129 9.28805)
(-3.46472e-14 3.67243 5.7731)
(4.21056e-14 3.34952 1.85705)
(5.81407e-14 0.689992 -0.784405)
(-1.57522e-14 -0.229849 -1.7982)
(9.16308e-14 1.04216 -3.63335)
(1.55313e-13 2.98918 -6.98486)
(8.14116e-14 4.78687 -9.6966)
(-8.09179e-14 4.96039 -12.1067)
(-1.48382e-13 3.32575 -12.0882)
(-1.72179e-13 1.53304 -11.9285)
(-2.33882e-13 0.681518 -12.5713)
(-2.49653e-13 0.254597 -12.9827)
(-1.40289e-13 -0.170926 -13.2377)
(-7.66937e-14 -0.567863 -13.4733)
(-1.47247e-13 -0.885207 -13.4956)
(-1.28138e-13 -1.26418 -13.5614)
(-1.64787e-13 -1.91826 -14.0905)
(-1.41704e-13 -2.41596 -15.6551)
(-1.43954e-13 -1.63065 -17.6987)
(-7.42892e-14 1.0244 -19.0166)
(-1.23689e-13 3.24561 -17.4337)
(-1.31597e-13 3.34259 -15.7264)
(-1.03197e-13 2.24131 -15.1968)
(-9.90136e-14 1.65092 -15.9208)
(-1.06606e-13 1.25353 -16.8729)
(-1.43848e-13 1.01965 -18.0928)
(-1.9673e-13 0.807534 -19.3315)
(-1.68127e-13 0.601201 -20.5739)
(-1.56999e-13 0.401286 -21.6804)
(-1.90553e-13 0.181638 -22.5851)
(-2.00921e-13 -0.0220146 -23.188)
(-2.03542e-13 -0.0870565 -23.4042)
(-2.00424e-13 -0.169442 -23.3336)
(-2.08774e-13 -0.656156 -23.1202)
(-2.18058e-13 -1.47945 -23.1855)
(-2.035e-13 -2.51733 -23.3712)
(-1.92794e-13 -3.80258 -23.7125)
(-1.84998e-13 -5.05435 -24.1322)
(-1.55318e-13 -5.8063 -24.3203)
(-1.32417e-13 -5.82726 -24.0247)
(-1.17434e-13 -5.26853 -23.6067)
(-1.07858e-13 -4.61062 -24.1354)
(-1.07153e-13 -3.88141 -26.3328)
(-1.07489e-13 -1.96523 -27.8698)
(-1.04597e-13 0.357739 -27.8736)
(6.896e-16 -0.0293848 25.5561)
(-2.59228e-16 0.273309 25.5019)
(3.00515e-14 0.599443 24.9708)
(-5.86807e-16 0.861419 23.8802)
(-9.76944e-17 0.987256 22.4272)
(-1.63398e-14 1.01158 20.8639)
(4.40779e-15 0.983183 19.3257)
(7.99215e-16 0.927148 17.8702)
(-2.54377e-14 0.842843 16.5334)
(-6.45527e-14 0.731831 15.3569)
(4.31486e-14 0.573345 14.3725)
(-1.55649e-14 0.373076 13.6164)
(-1.64276e-14 0.0277906 13.2257)
(-2.09469e-14 -0.279421 13.2436)
(-1.79482e-14 -0.529235 13.6175)
(-3.54721e-14 -0.905532 14.2542)
(-2.03743e-14 -1.39969 15.4701)
(-1.92873e-14 -1.84678 17.2636)
(-4.26629e-14 -2.1493 19.3247)
(-2.958e-14 -2.3257 21.4584)
(-4.09195e-14 -2.42046 23.6101)
(-2.43786e-14 -2.45763 25.7532)
(-1.90395e-14 -2.44026 27.8511)
(-2.91372e-14 -2.36157 29.8611)
(-2.84858e-14 -2.21131 31.7404)
(-3.28085e-14 -1.97883 33.4448)
(-3.88675e-14 -1.65649 34.9206)
(-3.66494e-14 -1.24245 36.1063)
(-3.8427e-14 -0.74363 36.9328)
(-4.82927e-14 -0.170441 37.3132)
(-4.11186e-14 0.390597 37.2619)
(-5.13827e-14 1.00425 36.7427)
(-4.82502e-14 1.62105 35.6471)
(-3.92625e-14 2.09622 34.1234)
(-3.3411e-14 2.4092 32.1943)
(-3.65382e-14 2.62527 30.0906)
(-4.54656e-14 2.77498 27.9093)
(-4.207e-14 2.84718 25.6837)
(-4.52892e-14 2.85925 23.4803)
(-5.20144e-14 2.84042 21.3653)
(-8.81828e-14 2.80642 19.3668)
(-4.41037e-14 2.76588 17.4864)
(-5.18536e-14 2.72355 15.7135)
(-1.24678e-14 2.67794 14.0296)
(-2.70018e-14 2.62143 12.4142)
(-3.10538e-14 2.53788 10.8506)
(-2.99289e-14 2.40304 9.34544)
(-2.23907e-14 2.16021 7.87342)
(-5.46965e-14 1.87025 6.8173)
(-3.05025e-14 1.67986 5.08444)
(-3.59697e-13 0.0820669 5.30226)
(-2.54655e-13 -1.78332 5.7433)
(-1.91421e-13 -2.91286 8.27046)
(-7.77771e-14 -1.11085 8.95283)
(-5.07918e-14 2.87555 7.79103)
(-4.5151e-15 4.64968 3.46204)
(5.7107e-14 4.36444 -0.545295)
(2.08824e-13 1.36882 -5.37127)
(9.74626e-14 0.789457 -8.54488)
(6.78406e-14 1.9283 -11.2326)
(4.52646e-14 3.64376 -13.4191)
(-3.22191e-14 5.05835 -14.3117)
(-1.02085e-13 4.85163 -13.9929)
(-9.96543e-14 3.13666 -12.8173)
(-1.1858e-13 1.62017 -12.6956)
(-1.3571e-13 0.826856 -13.2157)
(-1.69457e-13 0.321967 -13.5295)
(-2.58309e-13 -0.135436 -13.796)
(-1.7656e-13 -0.571359 -14.0027)
(-1.69209e-13 -0.875799 -14.0943)
(-1.24954e-13 -1.16723 -14.145)
(-2.03657e-13 -1.62986 -14.6916)
(-1.8114e-13 -1.87944 -15.9746)
(-1.69781e-13 -1.00838 -17.5995)
(-1.78456e-13 1.0706 -18.7927)
(-1.25441e-13 2.76214 -17.5656)
(-1.21112e-13 3.03477 -16.4591)
(-9.88551e-14 2.30236 -16.1096)
(-1.0791e-13 1.88152 -16.5386)
(-1.16931e-13 1.60571 -17.3166)
(-9.91932e-14 1.44257 -18.3829)
(-1.49338e-13 1.25508 -19.5675)
(-1.54838e-13 1.02255 -20.7938)
(-1.43647e-13 0.740184 -21.8526)
(-2.0312e-13 0.400694 -22.5875)
(-2.08144e-13 0.0632399 -22.9652)
(-2.04156e-13 -0.129462 -23.0802)
(-1.98147e-13 -0.289846 -23.0646)
(-1.78339e-13 -0.733007 -23.004)
(-2.0782e-13 -1.45111 -23.3145)
(-2.01923e-13 -2.37558 -23.8587)
(-1.95737e-13 -3.51665 -24.7619)
(-1.9097e-13 -4.69981 -26.0232)
(-1.72462e-13 -5.57299 -27.4081)
(-1.65212e-13 -5.83107 -28.4792)
(-1.4117e-13 -5.3575 -28.9894)
(-1.19832e-13 -4.39011 -29.3617)
(-1.03378e-13 -3.16467 -30.4358)
(-1.02817e-13 -1.36747 -31.0828)
(-1.0381e-13 0.485051 -31.1962)
(-8.28538e-15 -0.0617185 24.3916)
(-1.08599e-14 0.270478 24.3698)
(7.73235e-16 0.647845 23.9476)
(2.00903e-14 0.962263 22.971)
(-4.90955e-15 1.11894 21.5872)
(3.38123e-15 1.15441 20.0518)
(3.03215e-15 1.12585 18.5141)
(-1.65823e-14 1.06342 17.0452)
(-3.64704e-15 0.967 15.6916)
(-1.96082e-14 0.840082 14.5006)
(-2.5236e-14 0.656867 13.5054)
(-2.85637e-14 0.429441 12.7349)
(-3.09286e-14 0.0195067 12.3434)
(-2.49216e-14 -0.33069 12.3845)
(-1.45374e-14 -0.610624 12.772)
(1.02436e-15 -1.057 13.4643)
(-2.51932e-14 -1.64006 14.8204)
(-3.43833e-14 -2.14584 16.6824)
(-4.47568e-14 -2.47473 18.7165)
(-4.49271e-14 -2.6653 20.7977)
(-2.75591e-14 -2.77014 22.9066)
(-1.38609e-14 -2.81228 25.0197)
(-1.83506e-15 -2.79286 27.0982)
(-1.18042e-14 -2.70439 29.101)
(-1.83239e-14 -2.53597 30.9871)
(-2.51965e-14 -2.27527 32.7117)
(-3.28386e-14 -1.91263 34.2176)
(-3.26971e-14 -1.44344 35.4384)
(-4.35262e-14 -0.87468 36.2993)
(-3.7154e-14 -0.214536 36.7059)
(-2.95206e-14 0.431649 36.6795)
(-2.93979e-14 1.1603 36.1745)
(-3.41875e-14 1.88274 35.064)
(-3.78491e-14 2.42965 33.514)
(-3.9469e-14 2.79845 31.5475)
(-3.09047e-14 3.05706 29.4021)
(-3.43165e-14 3.23096 27.1653)
(-3.32986e-14 3.30815 24.8715)
(-3.73396e-14 3.31144 22.5984)
(-4.94914e-14 3.2749 20.4212)
(-5.14135e-14 3.21858 18.3745)
(-3.26903e-14 3.15567 16.4647)
(-4.25372e-15 3.0942 14.6805)
(5.23385e-15 3.0341 12.9981)
(-1.26699e-14 2.96727 11.388)
(-2.64285e-14 2.87455 9.8228)
(-3.40023e-14 2.72467 8.29091)
(-3.77626e-14 2.43199 6.75706)
(-4.45328e-14 2.01851 5.57772)
(-1.46869e-13 1.68103 3.64891)
(-8.79491e-14 -0.557831 4.93118)
(-8.61159e-14 -1.83354 5.14389)
(-2.95624e-14 -3.03243 7.2302)
(2.84209e-14 -0.952093 7.44272)
(9.5957e-15 3.76878 5.9576)
(9.68653e-15 5.6635 0.931641)
(2.56314e-14 5.69447 -3.07796)
(8.81493e-14 2.60199 -9.83009)
(1.46209e-14 1.49819 -13.4565)
(-2.07454e-14 2.50229 -15.4348)
(-2.82847e-14 3.84533 -16.6759)
(-6.97979e-14 4.80202 -16.32)
(-9.53776e-14 4.38963 -14.8133)
(-1.03738e-13 2.89855 -13.5451)
(-1.13144e-13 1.67036 -13.5475)
(-8.04297e-14 0.91581 -13.8927)
(-8.95198e-14 0.373525 -14.1491)
(-2.07248e-13 -0.104635 -14.405)
(-1.96001e-13 -0.571833 -14.5811)
(-1.83883e-13 -0.875069 -14.7098)
(-9.37992e-14 -1.10026 -14.7935)
(-1.65962e-13 -1.42061 -15.294)
(-1.74659e-13 -1.46348 -16.3408)
(-1.93949e-13 -0.481277 -17.914)
(-1.69694e-13 1.1415 -18.782)
(-1.66483e-13 2.41624 -18.0135)
(-1.45182e-13 2.80501 -17.3602)
(-1.05406e-13 2.32079 -17.0749)
(-1.07698e-13 2.03588 -17.3588)
(-1.26595e-13 1.87734 -17.9511)
(-1.51358e-13 1.79479 -18.79)
(-1.77108e-13 1.65764 -19.7704)
(-1.69805e-13 1.41368 -20.7904)
(-1.64278e-13 1.0401 -21.6171)
(-1.69721e-13 0.574654 -22.0745)
(-1.90133e-13 0.153664 -22.2498)
(-1.83061e-13 -0.0751596 -22.3743)
(-1.84082e-13 -0.253052 -22.5226)
(-1.96638e-13 -0.644216 -22.664)
(-1.80698e-13 -1.26746 -23.0704)
(-1.91178e-13 -2.06664 -23.7515)
(-1.99302e-13 -3.02482 -24.8417)
(-1.9674e-13 -4.03851 -26.4443)
(-1.75545e-13 -4.86663 -28.4918)
(-1.80313e-13 -5.26052 -30.676)
(-1.75747e-13 -5.05573 -32.6004)
(-1.60431e-13 -4.2821 -34.1126)
(-1.50127e-13 -3.00577 -35.4548)
(-1.43244e-13 -1.25477 -35.9425)
(-1.42417e-13 0.286317 -36.0379)
(1.64827e-14 -0.0953204 23.2585)
(-4.64691e-15 0.257055 23.2225)
(3.10344e-14 0.679828 22.8814)
(9.36344e-15 1.04835 22.0211)
(-7.01346e-15 1.24058 20.72)
(8.75515e-15 1.29154 19.2238)
(5.47671e-14 1.26587 17.6914)
(1.31022e-14 1.19854 16.2064)
(8.31611e-16 1.09004 14.8272)
(3.57468e-15 0.946808 13.6109)
(-2.59305e-14 0.737586 12.5975)
(-2.11831e-14 0.48359 11.8102)
(-2.20622e-14 0.0029455 11.4272)
(-7.96781e-15 -0.387826 11.4996)
(-2.12452e-16 -0.700089 11.9104)
(-1.19013e-14 -1.22698 12.7068)
(-2.92092e-14 -1.89618 14.2117)
(-5.11629e-14 -2.44732 16.1052)
(-4.99428e-14 -2.79564 18.0942)
(-2.10197e-14 -3.00046 20.1268)
(-9.32683e-15 -3.11716 22.201)
(4.40584e-15 -3.16583 24.2892)
(6.71759e-15 -3.14603 26.3521)
(-1.14386e-14 -3.04975 28.3506)
(-1.53931e-15 -2.86524 30.2448)
(-2.64097e-14 -2.57803 31.9888)
(-3.11713e-14 -2.17625 33.5218)
(-2.37712e-14 -1.65214 34.7731)
(-2.03662e-14 -1.01329 35.664)
(-2.1911e-14 -0.264336 36.0925)
(-1.04905e-14 0.466702 36.0887)
(2.2132e-15 1.31693 35.5941)
(-1.57683e-15 2.14717 34.465)
(1.22437e-14 2.76507 32.8864)
(-3.12481e-15 3.19078 30.89)
(-1.38447e-14 3.49456 28.7196)
(-2.59735e-14 3.69494 26.4503)
(-2.87333e-14 3.77915 24.1144)
(-3.66915e-14 3.77489 21.796)
(-4.57102e-14 3.72006 19.5738)
(-4.72592e-14 3.63907 17.4865)
(-4.95492e-14 3.55062 15.5449)
(-3.85435e-14 3.46707 13.7387)
(1.51881e-14 3.39077 12.0404)
(-3.00314e-15 3.31419 10.414)
(-1.87028e-14 3.2168 8.82165)
(-2.74449e-14 3.06248 7.22976)
(-2.55198e-14 2.74285 5.57375)
(-1.93224e-14 2.23792 4.16937)
(-4.1286e-14 1.41306 1.14885)
(-3.84488e-14 -0.621989 1.64801)
(-8.08539e-14 -1.33478 2.35858)
(3.08015e-14 -3.21624 5.18761)
(3.93299e-14 -0.811219 5.60231)
(2.8499e-14 4.63563 4.35305)
(2.35822e-14 6.74124 -1.35529)
(-4.49993e-15 7.22616 -5.41145)
(-7.64043e-15 3.96084 -12.6331)
(-5.27673e-14 2.20137 -16.1233)
(-8.83681e-14 2.84695 -17.3934)
(-1.20854e-13 3.81271 -17.9328)
(-1.01578e-13 4.38372 -17.0525)
(-1.21599e-13 3.90779 -15.4207)
(-1.4382e-13 2.70053 -14.4212)
(-1.66044e-13 1.69222 -14.418)
(-1.41086e-13 0.967659 -14.6058)
(-1.40463e-13 0.41115 -14.8096)
(-2.03896e-13 -0.083444 -15.0336)
(-1.43473e-13 -0.569482 -15.1849)
(-1.50902e-13 -0.859535 -15.3445)
(-7.90681e-14 -1.01844 -15.5195)
(-1.32009e-13 -1.20728 -15.9468)
(-1.00314e-13 -1.03502 -16.9911)
(-9.96976e-14 -0.0557367 -18.5603)
(-1.81076e-13 1.18778 -19.035)
(-1.52093e-13 2.20238 -18.671)
(-1.17049e-13 2.63002 -18.2685)
(-1.32155e-13 2.31514 -18.0738)
(-1.25343e-13 2.13454 -18.3074)
(-1.26539e-13 2.06468 -18.7471)
(-1.41246e-13 2.04823 -19.3555)
(-1.60595e-13 1.95586 -20.0574)
(-1.7163e-13 1.70204 -20.7546)
(-1.7346e-13 1.25223 -21.2676)
(-2.21172e-13 0.702678 -21.5196)
(-1.76812e-13 0.258847 -21.7015)
(-1.90031e-13 0.0332396 -21.9897)
(-1.89881e-13 -0.156495 -22.3042)
(-1.87751e-13 -0.52619 -22.585)
(-1.86892e-13 -1.07728 -23.015)
(-1.83462e-13 -1.74395 -23.6861)
(-1.88799e-13 -2.49899 -24.7188)
(-1.93234e-13 -3.27882 -26.2343)
(-1.88534e-13 -3.91287 -28.2434)
(-1.92061e-13 -4.22305 -30.5965)
(-1.95481e-13 -4.08998 -33.0068)
(-1.91288e-13 -3.49566 -35.1728)
(-1.87349e-13 -2.43252 -36.9263)
(-1.82402e-13 -0.978633 -37.563)
(-1.85564e-13 0.266294 -37.6449)
(2.49312e-15 -0.126753 22.1657)
(2.93981e-15 0.235067 22.0415)
(4.16275e-15 0.696616 21.7688)
(1.02008e-14 1.12065 21.0423)
(1.19005e-14 1.3532 19.8394)
(3.41074e-15 1.42385 18.3906)
(-4.82339e-14 1.40398 16.8671)
(-5.51444e-15 1.33346 15.366)
(-7.81071e-15 1.21328 13.9566)
(-1.35777e-14 1.05351 12.7071)
(4.93047e-15 0.816485 11.668)
(3.76526e-14 0.535663 10.8606)
(2.32531e-14 -0.0220671 10.4975)
(8.84547e-14 -0.450946 10.5943)
(-7.65637e-15 -0.801135 11.0433)