/*--------------------------------*- C++ -*----------------------------------*\
| =========                 |                                                 |
| \\      /  F ield         | OpenFOAM: The Open Source CFD Toolbox           |
|  \\    /   O peration     | Version:  4.1                                   |
|   \\  /    A nd           | Web:      www.OpenFOAM.org                      |
|    \\/     M anipulation  |                                                 |
\*---------------------------------------------------------------------------*/
FoamFile
{
    version     2.0;
    format      ascii;
    class       volScalarField;
    location    "400";
    object      epsilon;
}
// * * * * * * * * * * * * * * * * * * * * * * * * * * * * * * * * * * * * * //

dimensions      [0 2 -3 0 0 0 0];

internalField   nonuniform List<scalar> 
6820
(
115.949
152.042
190.662
230.213
269.214
306.365
340.625
371.27
397.904
420.407
438.877
453.566
464.819
473.03
478.606
481.944
483.411
483.341
482.029
479.732
476.667
473.019
468.944
464.569
459.999
455.32
450.602
445.901
441.26
436.719
432.297
428.105
425.456
9.48476
17.5528
23.8082
29.3429
34.5613
39.5635
44.3518
48.9023
53.1844
57.1714
60.8463
64.2042
67.2507
70.0002
72.473
74.6936
76.6879
78.482
80.1011
81.5687
82.9058
84.1318
85.2638
86.3161
87.301
88.2285
89.1065
89.9416
90.7373
91.4983
92.2217
92.9044
93.557
4.14146
5.59602
6.98297
8.20862
9.27788
10.2173
11.0506
11.7953
12.4652
13.0716
13.6233
14.1277
14.5906
15.017
15.411
15.7759
16.1147
16.43
16.724
16.9985
17.2568
17.5067
17.7503
17.9883
18.2213
18.4496
18.6737
18.8939
19.1105
19.3236
19.5334
19.7402
19.9424
3.60121
3.91796
4.33109
4.75787
5.1605
5.52671
5.85475
6.14668
6.40581
6.63573
6.83988
7.02141
7.18314
7.32756
7.45683
7.57283
7.67716
7.77121
7.85618
7.93309
8.00279
8.06682
8.12627
8.1819
8.23432
8.28402
8.33141
8.37682
8.42056
8.46289
8.50408
8.54435
8.58407
3.52798
3.56982
3.67476
3.81744
3.97488
4.1328
4.28383
4.42458
4.55377
4.67123
4.77738
4.87292
4.95866
5.03545
5.10411
5.16542
5.22011
5.26885
5.31224
5.35083
5.3851
5.41552
5.44255
5.46658
5.488
5.50711
5.5242
5.53951
5.55327
5.56566
5.57686
5.587
5.59633
3.5197
3.49572
3.49766
3.52374
3.56745
3.62175
3.681
3.74133
3.80034
3.85661
3.90933
3.95814
4.00291
4.04368
4.08059
4.11384
4.14366
4.17028
4.19395
4.2149
4.23336
4.24955
4.26368
4.27593
4.28649
4.29552
4.30319
4.30962
4.31494
4.31927
4.32271
4.32535
4.3273
3.51928
3.48173
3.4529
3.43487
3.42775
3.42982
3.4388
3.45249
3.46904
3.48707
3.50557
3.52383
3.54138
3.55791
3.57324
3.58727
3.59994
3.61127
3.62128
3.63003
3.63758
3.64403
3.64945
3.65391
3.65747
3.6602
3.66217
3.66344
3.66408
3.66413
3.66365
3.66269
3.6613
3.51938
3.47956
3.44297
3.41081
3.38393
3.36257
3.34634
3.33451
3.32623
3.32072
3.31725
3.31524
3.31422
3.31382
3.31375
3.31381
3.31384
3.31372
3.31337
3.31275
3.31183
3.31059
3.30903
3.30715
3.30497
3.30249
3.29973
3.29671
3.29344
3.28994
3.28624
3.28234
3.27827
3.51942
3.47931
3.44106
3.40504
3.37162
3.34118
3.31388
3.28963
3.26823
3.24937
3.23274
3.218
3.20484
3.19299
3.18219
3.17226
3.16302
3.15433
3.14609
3.13821
3.13061
3.12324
3.11605
3.109
3.10207
3.09524
3.08848
3.08179
3.07516
3.06859
3.06205
3.05556
3.04912
3.51943
3.47931
3.44074
3.4038
3.36856
3.33518
3.30378
3.27441
3.24705
3.22165
3.19809
3.17623
3.15594
3.13705
3.11941
3.10289
3.08735
3.07269
3.0588
3.04559
3.03298
3.02092
3.00934
2.9982
2.98744
2.97704
2.96696
2.95718
2.94767
2.93841
2.92939
2.92058
2.91198
3.51944
3.47931
3.44068
3.40355
3.36786
3.33364
3.30091
3.26968
3.23995
3.2117
3.18491
3.15952
3.13548
3.1127
3.09111
3.07063
3.05118
3.03268
3.01505
2.99824
2.98217
2.96679
2.95204
2.93789
2.92427
2.91116
2.89853
2.88633
2.87453
2.86313
2.85208
2.84137
2.83098
3.51944
3.47931
3.44066
3.40348
3.3677
3.33326
3.30016
3.26835
3.23781
3.20852
3.18044
3.15355
3.12781
3.10317
3.0796
3.05704
3.03545
3.01477
2.99496
2.97596
2.95774
2.94023
2.92342
2.90724
2.89168
2.87668
2.86222
2.84827
2.8348
2.82179
2.80921
2.79703
2.78524
3.51944
3.47931
3.44064
3.40345
3.36764
3.33315
3.29995
3.26797
3.23718
3.20753
3.17899
3.15152
3.12508
3.09964
3.07516
3.05162
3.02896
3.00716
2.98618
2.96599
2.94654
2.92781
2.90976
2.89235
2.87557
2.85937
2.84374
2.82864
2.81405
2.79994
2.7863
2.7731
2.76032
3.51944
3.4793
3.44063
3.40343
3.36761
3.3331
3.29987
3.26785
3.23698
3.20723
3.17854
3.15087
3.12418
3.09845
3.07362
3.04967
3.02656
3.00426
2.98274
2.96197
2.94192
2.92256
2.90386
2.88579
2.86833
2.85146
2.83514
2.81936
2.8041
2.78932
2.77502
2.76116
2.74774
3.51944
3.4793
3.44063
3.40341
3.36758
3.33307
3.29982
3.26778
3.23689
3.2071
3.17836
3.15063
3.12386
3.09801
3.07305
3.04894
3.02564
3.00314
2.98138
2.96035
2.94002
2.92036
2.90134
2.88294
2.86514
2.84791
2.83123
2.81508
2.79944
2.78428
2.7696
2.75537
2.74157
3.51944
3.4793
3.44062
3.4034
3.36756
3.33304
3.29979
3.26774
3.23684
3.20703
3.17827
3.15051
3.12371
3.09783
3.07282
3.04866
3.0253
3.00271
2.98087
2.95974
2.9393
2.91951
2.90036
2.88182
2.86386
2.84647
2.82962
2.81329
2.79747
2.78212
2.76725
2.75282
2.73882
3.51944
3.4793
3.44061
3.40339
3.36754
3.33302
3.29976
3.2677
3.23679
3.20698
3.17821
3.15044
3.12362
3.09772
3.0727
3.04851
3.02512
3.0025
2.98062
2.95945
2.93896
2.91912
2.89991
2.88131
2.86328
2.84581
2.82888
2.81247
2.79656
2.78112
2.76615
2.75163
2.73753
3.51944
3.47929
3.44061
3.40338
3.36753
3.333
3.29974
3.26767
3.23675
3.20693
3.17816
3.15038
3.12355
3.09764
3.07261
3.04841
3.02501
3.00238
2.98048
2.95929
2.93878
2.91893
2.89969
2.88106
2.86301
2.84551
2.82855
2.81211
2.79615
2.78068
2.76567
2.7511
2.73696
3.51944
3.47929
3.44061
3.40337
3.36752
3.33299
3.29972
3.26765
3.23672
3.2069
3.17811
3.15033
3.1235
3.09758
3.07253
3.04833
3.02492
3.00228
2.98037
2.95918
2.93866
2.91879
2.89954
2.8809
2.86283
2.84532
2.82834
2.81187
2.7959
2.78041
2.76538
2.75079
2.73662
3.51944
3.47929
3.44061
3.40337
3.36752
3.33298
3.2997
3.26763
3.2367
3.20686
3.17807
3.15028
3.12345
3.09752
3.07247
3.04826
3.02484
3.0022
2.98028
2.95908
2.93855
2.91868
2.89942
2.88077
2.8627
2.84518
2.82819
2.81172
2.79574
2.78024
2.7652
2.7506
2.73642
3.51944
3.47929
3.4406
3.40337
3.36751
3.33297
3.29969
3.26761
3.23668
3.20684
3.17804
3.15025
3.1234
3.09747
3.07242
3.0482
3.02478
3.00212
2.98021
2.959
2.93846
2.91858
2.89932
2.88066
2.86258
2.84506
2.82806
2.81158
2.7956
2.78009
2.76504
2.75043
2.73625
3.51944
3.47929
3.4406
3.40336
3.36751
3.33296
3.29968
3.2676
3.23666
3.20682
3.17802
3.15022
3.12337
3.09743
3.07237
3.04815
3.02472
3.00206
2.98014
2.95893
2.93839
2.9185
2.89924
2.88057
2.86249
2.84495
2.82796
2.81147
2.79548
2.77997
2.76491
2.7503
2.73612
3.51944
3.47929
3.4406
3.40336
3.3675
3.33296
3.29967
3.26759
3.23665
3.2068
3.178
3.15019
3.12334
3.0974
3.07233
3.0481
3.02467
3.00201
2.98009
2.95887
2.93832
2.91843
2.89916
2.88049
2.8624
2.84487
2.82787
2.81138
2.79538
2.77987
2.76481
2.75019
2.736
3.51944
3.47929
3.4406
3.40336
3.3675
3.33295
3.29967
3.26758
3.23664
3.20678
3.17798
3.15017
3.12331
3.09737
3.0723
3.04807
3.02463
3.00197
2.98004
2.95881
2.93827
2.91837
2.8991
2.88043
2.86233
2.84479
2.82779
2.81129
2.7953
2.77977
2.76471
2.75009
2.7359
3.51944
3.47929
3.4406
3.40336
3.3675
3.33295
3.29966
3.26757
3.23663
3.20678
3.17797
3.15016
3.1233
3.09735
3.07228
3.04804
3.02461
3.00194
2.98001
2.95878
2.93823
2.91833
2.89906
2.88038
2.86228
2.84474
2.82773
2.81124
2.79524
2.77972
2.76465
2.75003
2.73583
3.51944
3.47929
3.4406
3.40336
3.3675
3.33295
3.29966
3.26757
3.23662
3.20677
3.17796
3.15015
3.12329
3.09734
3.07227
3.04803
3.02459
3.00192
2.97998
2.95875
2.9382
2.91829
2.89902
2.88034
2.86224
2.84469
2.82768
2.81118
2.79518
2.77965
2.76458
2.74996
2.73576
3.51944
3.47929
3.4406
3.40336
3.3675
3.33295
3.29966
3.26757
3.23662
3.20677
3.17796
3.15014
3.12328
3.09733
3.07226
3.04802
3.02458
3.00191
2.97997
2.95874
2.93819
2.91829
2.89901
2.88034
2.86224
2.84469
2.82768
2.81118
2.79518
2.77965
2.76458
2.74996
2.73576
3.51944
3.47929
3.4406
3.40336
3.3675
3.33295
3.29966
3.26757
3.23662
3.20677
3.17796
3.15014
3.12328
3.09733
3.07226
3.04801
3.02457
3.0019
2.97996
2.95873
2.93817
2.91827
2.89899
2.88031
2.8622
2.84465
2.82764
2.81114
2.79513
2.7796
2.76453
2.7499
2.7357
3.51944
3.47929
3.4406
3.40336
3.3675
3.33295
3.29966
3.26757
3.23663
3.20677
3.17797
3.15016
3.1233
3.09735
3.07228
3.04804
3.02461
3.00194
2.98001
2.95878
2.93823
2.91833
2.89905
2.88038
2.86228
2.84473
2.82772
2.81123
2.79522
2.7797
2.76463
2.75
2.7358
3.51944
3.47929
3.4406
3.40336
3.3675
3.33296
3.29967
3.26758
3.23663
3.20678
3.17797
3.15016
3.1233
3.09735
3.07227
3.04803
3.02459
3.00192
2.97998
2.95875
2.9382
2.9183
2.89902
2.88034
2.86224
2.84469
2.82768
2.81119
2.79518
2.77966
2.76459
2.74997
2.73578
3.51944
3.47929
3.4406
3.40336
3.3675
3.33296
3.29968
3.26759
3.23666
3.20681
3.17802
3.15022
3.12337
3.09744
3.07238
3.04815
3.02473
3.00207
2.98015
2.95893
2.9384
2.91851
2.89925
2.88059
2.8625
2.84498
2.82798
2.8115
2.79552
2.78001
2.76496
2.75036
2.73618
3.51944
3.47929
3.4406
3.40337
3.36751
3.33297
3.29968
3.2676
3.23666
3.20681
3.178
3.1502
3.12335
3.09741
3.07236
3.04814
3.02472
3.00208
2.98017
2.95898
2.93846
2.9186
2.89937
2.88075
2.8627
2.84521
2.82826
2.81183
2.7959
2.78044
2.76545
2.75091
2.73679
3.51944
3.47929
3.44061
3.40337
3.36753
3.333
3.29975
3.26771
3.23682
3.20703
3.17829
3.15055
3.12378
3.09793
3.07295
3.04883
3.02551
3.00297
2.98118
2.96011
2.93972
2.91999
2.9009
2.88242
2.86453
2.8472
2.83041
2.81414
2.79838
2.7831
2.76829
2.75392
2.73999
3.51944
3.47929
3.44061
3.40338
3.36754
3.33305
3.29985
3.26787
3.23707
3.2074
3.1788
3.15124
3.12468
3.09906
3.07436
3.05054
3.02756
3.00539
2.98399
2.96333
2.94338
2.92411
2.9055
2.88752
2.87013
2.85332
2.83706
2.82134
2.80612
2.7914
2.77714
2.76333
2.74995
3.51943
3.4793
3.44066
3.40356
3.36794
3.33374
3.30092
3.26945
3.23927
3.21034
3.18261
3.15603
3.13055
3.10613
3.08271
3.06025
3.03869
3.018
2.99812
2.97901
2.96065
2.94297
2.92596
2.90957
2.89377
2.87854
2.86384
2.84965
2.83595
2.82271
2.8099
2.79751
2.78552
3.51942
3.47942
3.4412
3.4049
3.37061
3.33828
3.30787
3.27931
3.25251
3.22735
3.20373
3.18153
3.16063
3.14093
3.12231
3.1047
3.08799
3.07211
3.05699
3.04256
3.02878
3.01558
3.00292
2.99076
2.97907
2.96781
2.95696
2.94648
2.93636
2.92656
2.91707
2.90788
2.89896
3.5196
3.48203
3.4494
3.42177
3.39875
3.37983
3.36441
3.35191
3.34177
3.33353
3.3268
3.32125
3.31661
3.31267
3.30924
3.3062
3.30343
3.30084
3.29837
3.29596
3.29357
3.29117
3.28874
3.28627
3.28374
3.28115
3.27849
3.27576
3.27296
3.2701
3.26717
3.26419
3.26115
3.53049
3.53943
3.57109
3.61695
3.67052
3.72753
3.78534
3.8424
3.89781
3.95098
4.00159
4.04947
4.0946
4.13701
4.17678
4.21402
4.24887
4.28145
4.31191
4.34038
4.36698
4.39185
4.41509
4.43682
4.45714
4.47616
4.49395
4.51061
4.52621
4.54083
4.55453
4.56739
4.5795
4.00122
4.78106
5.43757
6.00232
6.50078
6.9483
7.35512
7.72874
8.07479
8.39758
8.70046
8.98608
9.2566
9.51376
9.75899
9.99346
10.2182
10.434
10.6416
10.8416
11.0345
11.2208
11.401
11.5752
11.744
11.9075
12.066
12.2198
12.3691
12.514
12.6549
12.7917
12.9252
31.176
33.6247
36.0474
38.4445
40.8147
43.1561
45.4658
47.7406
49.977
52.172
54.3227
56.4266
58.4813
60.4849
62.436
64.3332
66.1757
67.9627
69.694
71.3694
72.9892
74.5535
76.0631
77.5186
78.9207
80.2706
81.5692
82.8177
84.0174
85.1695
86.2753
87.3368
88.3625
436.019
502.026
591.055
688.93
777.856
845.6
887.689
905.144
902.449
885.464
859.652
829.155
796.617
763.578
730.775
698.595
667.153
636.755
607.472
579.498
553.018
528.114
504.765
482.885
462.36
443.074
424.924
407.838
391.786
376.796
362.986
350.596
339.981
331.536
325.554
322.054
320.652
320.494
320.319
318.694
314.382
306.75
295.949
282.813
268.477
253.965
239.986
226.92
214.891
203.855
193.682
184.198
175.208
166.482
157.748
148.694
138.997
128.357
116.55
103.487
89.2925
74.3721
59.4364
45.4033
33.1682
23.3216
15.995
11.027
8.25186
7.32717
7.614
8.52514
9.69728
10.935
12.1382
13.2597
14.2808
15.1976
16.0126
16.7306
17.3561
17.8929
18.344
18.7113
18.9964
19.2008
19.3263
19.3749
19.3493
19.2529
19.0895
18.8634
18.5801
18.2441
17.8628
17.4384
16.9858
16.4927
16.0119
15.319
94.7082
99.651
109.442
126.063
150.082
180.61
215.746
252.88
289.133
322.077
350.131
372.595
389.452
401.097
408.105
411.099
410.646
407.316
401.883
394.993
387.167
378.783
370.086
361.219
352.252
343.215
334.115
324.965
315.801
306.712
297.874
289.576
282.225
276.293
272.208
270.208
270.216
271.746
273.906
275.512
275.358
272.562
266.819
258.45
248.169
236.774
224.969
213.257
201.94
191.159
180.934
171.193
161.792
152.533
143.174
133.459
123.142
112.028
100.018
87.1642
73.7212
60.17
47.1808
35.4835
25.6722
18.0334
12.4997
8.82925
6.86357
6.3463
6.77748
7.69717
8.81954
9.98788
11.1204
12.178
13.1456
14.0204
14.8052
15.5046
16.1229
16.6635
17.1288
17.5203
17.8389
18.0853
18.2604
18.3652
18.4016
18.3716
18.2784
18.1252
17.9166
17.6564
17.3514
17.0035
16.6265
16.2099
15.8018
15.2078
20.1954
20.583
21.2678
22.5494
24.7906
28.3762
33.6116
40.6297
49.5095
60.1841
72.4845
86.072
100.513
115.327
130.024
144.128
157.227
168.912
179.063
187.713
194.967
200.95
205.779
209.544
212.308
214.112
214.985
214.959
214.089
212.479
210.305
207.845
205.484
203.689
202.93
203.577
205.78
209.375
213.842
218.348
221.903
223.603
222.864
219.568
213.996
206.653
198.119
188.916
179.445
169.97
160.624
151.435
142.344
133.233
123.939
114.29
104.134
93.3797
82.0394
70.2645
58.3694
46.8194
36.1642
26.916
19.4123
13.7291
9.70176
7.07693
5.71771
5.45957
5.94486
6.82585
7.87759
8.97104
10.0355
11.0354
11.9558
12.7929
13.5486
14.2268
14.8314
15.366
15.833
16.2342
16.5706
16.8429
17.0519
17.1983
17.2833
17.3085
17.276
17.1884
17.0491
16.8614
16.631
16.3595
16.0591
15.7209
15.3876
14.8985
8.62994
8.68663
8.75714
8.8639
9.04103
9.34276
9.84193
10.6221
11.7737
13.3912
15.5064
18.192
21.5227
25.5487
30.2888
35.7209
41.7758
48.3307
55.2152
62.2948
69.4481
76.5602
83.519
90.2133
96.533
102.371
107.629
112.226
116.11
119.278
121.793
123.806
125.568
127.41
129.71
132.818
136.968
142.196
148.278
154.711
160.784
165.728
168.897
169.924
168.76
165.627
160.893
154.963
148.212
140.941
133.356
125.572
117.623
109.478
101.067
92.3082
83.147
73.5857
63.7167
53.742
43.9735
34.801
26.6213
19.7458
14.3206
10.2979
7.48814
5.67862
4.77008
4.67229
5.15164
5.95828
6.91885
7.92685
8.91968
9.86301
10.7403
11.5453
12.2774
12.9388
13.5323
14.0607
14.5266
14.9317
15.2777
15.5657
15.7968
15.9719
16.0922
16.1592
16.1747
16.1407
16.06
15.9351
15.7708
15.5684
15.3388
15.0741
14.8117
14.424
5.60587
5.61726
5.63039
5.64663
5.6691
5.70333
5.7589
5.85004
5.99538
6.21755
6.54035
6.98455
7.57241
8.33274
9.2964
10.4942
11.9544
13.7011
15.7413
18.0837
20.7318
23.6809
26.9147
30.402
34.0954
37.9305
41.829
45.7046
49.4736
53.0691
56.4582
59.6603
62.7602
65.911
69.3195
73.2123
77.7862
83.1473
89.2519
95.8648
102.562
108.794
114.002
117.731
119.729
119.968
118.591
115.842
112.003
107.332
102.04
96.275
90.1248
83.6272
76.7903
69.6163
62.1283
54.3961
46.5548
38.8111
31.4296
24.6961
18.8609
14.0805
10.3835
7.67602
5.79281
4.58264
3.99242
3.98766
4.42695
5.13829
5.99205
6.9021
7.81346
8.69311
9.52285
10.2939
11.0028
11.6493
12.2342
12.759
13.2255
13.6353
13.9898
14.2905
14.5388
14.7361
14.884
14.9839
15.0379
15.0477
15.0159
14.9445
14.8376
14.6962
14.5299
14.3318
14.1339
13.8385
4.32865
4.32942
4.33016
4.33109
4.33253
4.33521
4.34044
4.35034
4.36827
4.39899
4.44854
4.52378
4.6312
4.77923
4.97711
5.23497
5.56367
5.97487
6.47896
7.08682
7.81037
8.66176
9.65239
10.7915
12.0842
13.5301
15.1213
16.8425
18.6728
20.5894
22.5757
24.6302
26.777
29.0728
31.6082
34.4995
37.8688
41.8136
46.3682
51.4643
56.9063
62.3794
67.5013
71.882
75.2183
77.3327
78.1819
77.8334
76.4254
74.1246
71.0923
67.4635
63.3399
58.7937
53.879
48.6486
43.1717
37.549
31.9206
26.4632
21.3723
16.8321
12.979
9.87379
7.49465
5.75401
4.53481
3.74346
3.36458
3.40421
3.78567
4.39388
5.1341
5.93836
6.75952
7.56652
8.34029
9.06997
9.74985
10.3772
10.9511
11.4714
11.9384
12.3529
12.716
13.0288
13.2927
13.5093
13.6804
13.8078
13.8936
13.9398
13.9488
13.9227
13.8651
13.7767
13.666
13.527
13.3868
13.1728
3.65911
3.65599
3.65232
3.64845
3.64426
3.63988
3.63551
3.63153
3.62855
3.62769
3.63035
3.63842
3.6539
3.67935
3.71773
3.7724
3.84707
3.94583
4.07297
4.23257
4.42944
4.66869
4.9557
5.29592
5.69453
6.15605
6.68386
7.27994
7.94495
8.67917
9.48434
10.3668
11.3414
12.4355
13.6921
15.1696
16.9375
19.066
21.6079
24.576
27.9189
31.5089
35.149
38.5974
41.6188
44.0201
45.6772
46.5405
46.6248
45.9885
44.712
42.8797
40.5692
37.8501
34.7867
31.4469
27.9106
24.2759
20.66
17.1923
14.0004
11.1901
8.82802
6.93179
5.47368
4.39488
3.62591
3.11558
2.86963
2.91932
3.23369
3.73831
4.36477
5.06063
5.78661
6.51435
7.22462
7.90514
8.54838
9.14985
9.70687
10.2179
10.682
11.0989
11.4688
11.7923
12.0703
12.3043
12.4959
12.6472
12.7601
12.837
12.8803
12.8922
12.8761
12.8329
12.7701
12.6825
12.5933
12.4503
3.27328
3.2672
3.26069
3.25389
3.2468
3.23944
3.23185
3.22408
3.21622
3.20849
3.2012
3.19485
3.19004
3.18755
3.18835
3.19357
3.20454
3.22277
3.24997
3.28785
3.33831
3.40349
3.48565
3.58703
3.70988
3.85638
4.02857
4.22827
4.45719
4.71714
5.0107
5.34215
5.7189
6.15316
6.66352
7.27605
8.0241
8.94599
10.0794
11.4522
13.0699
14.9048
16.889
18.9179
20.8667
22.6096
24.0382
25.075
25.6779
25.8365
25.565
24.8925
23.8569
22.501
20.8727
19.027
17.0278
14.9494
12.8731
10.8821
9.05149
7.43906
6.07773
4.97384
4.11123
3.45928
2.98271
2.65589
2.49083
2.52946
2.77326
3.17789
3.69431
4.28273
4.9115
5.55576
6.19693
6.82189
7.42172
7.99045
8.52406
9.01978
9.47568
9.8905
10.2635
10.5946
10.8842
11.1331
11.3427
11.5147
11.6512
11.7543
11.8266
11.8702
11.8888
11.8832
11.8604
11.8162
11.7704
11.689
3.04161
3.03288
3.02388
3.01464
3.00524
2.99564
2.98583
2.9758
2.96556
2.95514
2.94463
2.93414
2.92384
2.91397
2.90482
2.89677
2.89027
2.88587
2.88422
2.88607
2.89218
2.90346
2.92091
2.94555
2.97843
3.02062
3.07313
3.13693
3.21302
3.30244
3.40651
3.52715
3.66736
3.83187
4.02777
4.26516
4.55746
4.92114
5.37439
5.93428
6.61231
7.40917
8.31002
9.28243
10.2789
11.2426
12.1148
12.8426
13.3844
13.7126
13.8129
13.6834
13.3319
12.7749
12.0364
11.1482
10.1492
9.08429
8.00171
6.94911
5.96859
5.09214
4.3389
3.71484
3.21493
2.8267
2.53459
2.32621
2.21078
2.22849
2.40287
2.71384
3.12686
3.61174
4.14375
4.70217
5.2701
5.83434
6.38506
6.9151
7.41927
7.89377
8.33578
8.74322
9.11464
9.44918
9.74657
10.0071
10.2316
10.4214
10.5781
10.7038
10.8009
10.8713
10.9187
10.9441
10.9542
10.9456
10.9352
10.9056
2.90215
2.89096
2.87964
2.86818
2.85662
2.84498
2.83321
2.82131
2.80927
2.7971
2.78479
2.77239
2.75991
2.74744
2.73503
2.72281
2.71092
2.69955
2.68893
2.67936
2.67112
2.66463
2.6603
2.6586
2.66002
2.66508
2.67428
2.68823
2.70748
2.73262
2.76431
2.80343
2.85121
2.90947
2.98088
3.06921
3.17955
3.31832
3.49304
3.71151
3.98046
4.30372
4.67987
5.10078
5.55134
6.01054
6.45364
6.85489
7.19022
7.43931
7.58688
7.62339
7.54518
7.35451
7.05955
6.67391
6.21618
5.70911
5.17789
4.64781
4.14175
3.67796
3.26879
2.92038
2.63331
2.4039
2.22611
2.09407
2.01166
2.00808
2.11794
2.34296
2.6612
3.04922
3.48769
3.96012
4.45214
4.95149
5.44814
5.93418
6.40346
6.85126
7.27392
7.66864
8.03334
8.36654
8.66734
8.93546
9.17116
9.37519
9.54883
9.69365
9.81175
9.90506
9.97667
10.028
10.0649
10.0851
10.1027
10.1147
2.81921
2.8059
2.79256
2.77917
2.76573
2.75226
2.73876
2.7252
2.71157
2.69787
2.68409
2.67022
2.65629
2.64229
2.62824
2.61418
2.60016
2.58622
2.57246
2.55896
2.54583
2.53321
2.52129
2.51025
2.50033
2.49177
2.48484
2.4798
2.47699
2.47672
2.47935
2.48533
2.49521
2.50974
2.53
2.55743
2.59398
2.64214
2.70495
2.78574
2.88808
3.01512
3.16761
3.34374
3.53879
3.7452
3.95313
4.15131
4.32812
4.47259
4.57524
4.6287
4.62821
4.57206
4.46163
4.30097
4.09764
3.86197
3.60606
3.34255
3.08346
2.83911
2.61734
2.42318
2.25877
2.12377
2.01605
1.93291
1.87479
1.85702
1.91203
2.05942
2.29175
2.59136
2.94228
3.33135
3.747
4.17874
4.61725
5.05452
5.48386
5.8998
6.29797
6.67488
7.02782
7.35475
7.65425
7.92548
8.16816
8.38252
8.56932
8.72968
8.86528
8.97775
9.06981
9.14277
9.20189
9.2456
9.28544
9.32946
2.77192
2.75692
2.74192
2.72693
2.71194
2.69695
2.68197
2.66698
2.65197
2.63694
2.62189
2.6068
2.59167
2.57652
2.56132
2.54609
2.53084
2.51558
2.50034
2.48514
2.47002
2.45503
2.44023
2.42569
2.41151
2.39779
2.38467
2.37229
2.3608
2.35036
2.34116
2.3334
2.32736
2.32337
2.32187
2.32344
2.32886
2.33908
2.35549
2.37986
2.41373
2.45855
2.51519
2.58362
2.6626
2.7496
2.84087
2.93169
3.01676
3.0906
3.14799
3.18439
3.19618
3.18111
3.13835
3.06882
2.97615
2.86469
2.73969
2.6071
2.47303
2.34312
2.22214
2.11352
2.01927
1.9399
1.8747
1.82234
1.78227
1.75995
1.77586
1.85659
2.0112
2.23068
2.50162
2.8126
3.15417
3.51783
3.89565
4.28027
4.66508
5.04431
5.41304
5.7672
6.1035
6.41936
6.71282
6.98256
7.2278
7.44827
7.64424
7.81635
7.96579
8.09385
8.20278
8.29376
8.37135
8.43448
8.49246
8.56109
2.7459
2.72965
2.71344
2.69724
2.68107
2.66491
2.64878
2.63266
2.61655
2.60045
2.58435
2.56825
2.55214
2.53602
2.51988
2.50374
2.48758
2.47142
2.45526
2.43911
2.42298
2.40687
2.3908
2.37481
2.35892
2.34318
2.32764
2.31236
2.29742
2.28288
2.26884
2.2554
2.24268
2.23081
2.21999
2.21045
2.20248
2.19656
2.19344
2.1938
2.19834
2.20771
2.22246
2.24281
2.2686
2.2991
2.333
2.36846
2.40319
2.4346
2.46001
2.47688
2.48295
2.47659
2.45676
2.42405
2.37934
2.32417
2.2608
2.19202
2.12092
2.05053
1.98358
1.92218
1.86771
1.82069
1.78085
1.74741
1.71977
1.69922
1.69442
1.72561
1.81241
1.95888
2.15698
2.39643
2.6686
2.96635
3.2832
3.61296
3.9497
4.28788
4.62247
4.94907
5.26393
5.56397
5.84675
6.11044
6.3538
6.57608
6.77709
6.957
7.11655
7.25659
7.37891
7.48446
7.57712
7.6561
7.72899
7.81709
2.73259
2.71552
2.69847
2.68144
2.66443
2.64745
2.63048
2.61353
2.5966
2.57969
2.56279
2.5459
2.52902
2.51215
2.49528
2.47841
2.46155
2.44469
2.42783
2.41098
2.39414
2.3773
2.36048
2.34368
2.32692
2.31023
2.29361
2.27709
2.2607
2.24447
2.22844
2.21263
2.19711
2.18193
2.16716
2.15288
2.13921
2.1265
2.11505
2.10513
2.09705
2.09108
2.08747
2.08639
2.08788
2.09178
2.09769
2.10498
2.11274
2.11987
2.12513
2.1273
2.12513
2.11797
2.10515
2.08631
2.06153
2.03132
1.99663
1.95876
1.91922
1.87957
1.8413
1.8056
1.77325
1.74458
1.71942
1.69722
1.67747
1.66029
1.64835
1.65124
1.68644
1.76849
1.89963
2.07344
2.28181
2.51786
2.77593
3.05089
3.33779
3.6318
3.92826
4.2228
4.51153
4.79104
5.05848
5.31159
5.54865
5.76847
5.97038
6.15414
6.32002
6.46847
6.60078
6.71763
6.8222
6.91383
6.9987
7.10222
2.72598
2.7084
2.69084
2.67328
2.65574
2.63821
2.6207
2.6032
2.58572
2.56825
2.55079
2.53335
2.51592
2.4985
2.48108
2.46368
2.44629
2.42891
2.41156
2.39422
2.37689
2.35957
2.34227
2.32499
2.30773
2.2905
2.27331
2.25616
2.23907
2.22205
2.20512
2.18827
2.17154
2.15492
2.13846
2.12216
2.10608
2.09046
2.07544
2.06113
2.04765
2.0351
2.02357
2.01312
2.00379
1.99553
1.98825
1.98173
1.97567
1.96971
1.96343
1.95653
1.94841
1.93852
1.92642
1.91182
1.89462
1.87496
1.8532
1.8299
1.80579
1.78162
1.75815
1.73596
1.71547
1.69677
1.6797
1.66385
1.64878
1.63432
1.62118
1.61261
1.61756
1.65028
1.7221
1.83505
1.9843
2.16333
2.36641
2.58882
2.82634
3.07495
3.33066
3.58957
3.84796
4.10241
4.34988
4.5878
4.81407
5.02711
5.22579
5.40942
5.57785
5.73113
5.87007
5.99505
6.10858
6.20999
6.30421
6.41964
2.723
2.70514
2.68728
2.66943
2.65158
2.63373
2.61589
2.59805
2.58022
2.56239
2.54458
2.52677
2.50897
2.49118
2.4734
2.45563
2.43787
2.42011
2.40238
2.38465
2.36694
2.34925
2.33159
2.31395
2.29633
2.27875
2.2612
2.24368
2.2262
2.20876
2.19137
2.17401
2.15671
2.13944
2.12223
2.10505
2.08797
2.07113
2.05459
2.03841
2.02262
2.00726
1.99234
1.97788
1.96386
1.95027
1.93705
1.92414
1.91157
1.89941
1.8875
1.87564
1.8636
1.85115
1.83807
1.8242
1.80945
1.79385
1.77753
1.76073
1.74376
1.72698
1.71073
1.69526
1.68072
1.6671
1.65419
1.64166
1.62915
1.61641
1.6036
1.59171
1.58391
1.58777
1.61465
1.67392
1.76801
1.89362
2.04549
2.2187
2.40911
2.61316
2.82748
3.04877
3.27377
3.49935
3.72259
3.94083
4.15179
4.35359
4.54476
4.72421
4.89134
5.04583
5.18801
5.31796
5.43755
5.54606
5.64728
5.77161
2.72158
2.70358
2.68557
2.66756
2.64953
2.63151
2.61348
2.59545
2.57742
2.55939
2.54137
2.52334
2.50532
2.48731
2.4693
2.45129
2.43329
2.4153
2.39734
2.37939
2.36145
2.34353
2.32563
2.30776
2.28991
2.27209
2.25429
2.23653
2.2188
2.2011
2.18343
2.16579
2.14818
2.13058
2.11299
2.0954
2.07784
2.06043
2.0432
2.02619
2.00939
1.99281
1.97644
1.96027
1.94425
1.92838
1.91259
1.89704
1.88184
1.86697
1.8524
1.83807
1.82391
1.80983
1.79577
1.78165
1.76746
1.7532
1.73893
1.72476
1.71082
1.69727
1.68424
1.67181
1.65999
1.64869
1.63769
1.62671
1.61545
1.60366
1.59131
1.5787
1.56688
1.55856
1.55978
1.57948
1.62566
1.70138
1.80476
1.93167
2.07783
2.23953
2.4136
2.59716
2.78745
2.98177
3.17751
3.37223
3.56366
3.74984
3.9291
4.10011
4.2619
4.4138
4.5557
4.68735
4.81005
4.92296
5.02892
5.15951
2.72096
2.70289
2.68481
2.66672
2.64861
2.6305
2.61238
2.59425
2.57612
2.55798
2.53983
2.52169
2.50355
2.4854
2.46726
2.44912
2.43098
2.41284
2.39471
2.37659
2.35849
2.34041
2.32235
2.30431
2.28631
2.26832
2.25037
2.23245
2.21455
2.19669
2.17885
2.16103
2.14323
2.12544
2.10766
2.08987
2.0721
2.05443
2.03689
2.01949
2.00223
1.98509
1.96807
1.95113
1.93426
1.91739
1.9006
1.88405
1.86778
1.85179
1.83609
1.82066
1.8055
1.79058
1.77591
1.76146
1.74726
1.73333
1.7197
1.70645
1.69363
1.6813
1.66951
1.65825
1.64747
1.63704
1.62675
1.61635
1.60558
1.59423
1.58219
1.56955
1.55666
1.54443
1.53504
1.53308
1.54548
1.57913
1.63758
1.72033
1.82435
1.94596
2.0818
2.22896
2.3849
2.54727
2.71382
2.88243
3.05106
3.21783
3.38111
3.53945
3.69171
3.83697
3.97479
4.10461
4.22721
4.34163
4.44982
4.58407
2.72059
2.7025
2.68438
2.66625
2.6481
2.62994
2.61177
2.59359
2.57541
2.55721
2.53901
2.5208
2.50259
2.48438
2.46617
2.44795
2.42974
2.41152
2.39332
2.37512
2.35694
2.33878
2.32063
2.3025
2.2844
2.26632
2.24827
2.23024
2.21224
2.19427
2.17632
2.15839
2.14048
2.12257
2.10468
2.08677
2.06886
2.05104
2.03333
2.01572
1.99822
1.98081
1.96347
1.94618
1.9289
1.91161
1.89447
1.87755
1.86087
1.84445
1.82829
1.81241
1.79681
1.7815
1.76651
1.75184
1.73753
1.7236
1.7101
1.69707
1.68455
1.67256
1.6611
1.65014
1.6396
1.62934
1.61917
1.60887
1.59821
1.58698
1.5751
1.56256
1.54948
1.53619
1.52343
1.51283
1.50776
1.51349
1.53577
1.57848
1.64228
1.72529
1.82455
1.93699
2.05993
2.19104
2.32827
2.46974
2.6137
2.75849
2.9026
3.04467
3.18353
3.31817
3.44794
3.57212
3.69105
3.80374
3.9112
4.0461
2.72038
2.70227
2.68413
2.66598
2.64782
2.62964
2.61145
2.59325
2.57503
2.55681
2.53858
2.52034
2.5021
2.48385
2.4656
2.44735
2.4291
2.41084
2.39258
2.37433
2.35609
2.33787
2.31967
2.30149
2.28333
2.26519
2.24708
2.22899
2.21093
2.19289
2.17487
2.15687
2.13889
2.12092
2.10295
2.08499
2.06703
2.04913
2.03133
2.0136
1.99597
1.9784
1.96089
1.94342
1.92592
1.90848
1.8912
1.87413
1.85729
1.84069
1.82435
1.80828
1.7925
1.77702
1.76186
1.74706
1.73264
1.71864
1.7051
1.69205
1.67951
1.6675
1.656
1.64498
1.63433
1.62395
1.61364
1.60322
1.59247
1.58124
1.56942
1.55697
1.54394
1.53046
1.51681
1.50353
1.49183
1.48406
1.48409
1.49657
1.52534
1.572
1.6358
1.71459
1.80574
1.90679
2.01556
2.13019
2.24905
2.37069
2.49376
2.61707
2.73954
2.8602
2.97834
3.09318
3.20479
3.31222
3.4156
3.54745
2.7202
2.70208
2.68393
2.66577
2.6476
2.62941
2.6112
2.59299
2.57476
2.55652
2.53828
2.52002
2.50176
2.4835
2.46523
2.44696
2.42868
2.4104
2.39213
2.37386
2.35561
2.33737
2.31914
2.30093
2.28274
2.26457
2.24642
2.2283
2.21019
2.19212
2.17406
2.15602
2.13799
2.11998
2.10198
2.08398
2.06598
2.04803
2.03016
2.01236
1.99464
1.97698
1.95936
1.94177
1.92417
1.90669
1.88937
1.87225
1.85534
1.83867
1.82224
1.80608
1.79021
1.77464
1.75939
1.7445
1.72999
1.7159
1.70226
1.68911
1.67645
1.6643
1.65264
1.64142
1.63056
1.61994
1.6094
1.59878
1.58789
1.57659
1.56477
1.5524
1.53949
1.52609
1.51232
1.4984
1.48472
1.4721
1.46216
1.45761
1.46202
1.47888
1.51037
1.55676
1.61682
1.68851
1.76965
1.85824
1.95254
2.05108
2.15259
2.25597
2.36028
2.46465
2.56842
2.67086
2.77192
2.87075
2.96673
3.09144
2.72006
2.70193
2.68378
2.66561
2.64743
2.62923
2.61102
2.5928
2.57456
2.55632
2.53806
2.5198
2.50153
2.48326
2.46498
2.4467
2.42841
2.41012
2.39184
2.37355
2.35528
2.33703
2.31878
2.30056
2.28235
2.26416
2.24599
2.22785
2.20972
2.19162
2.17354
2.15547
2.13743
2.11939
2.10137
2.08336
2.06535
2.04737
2.02946
2.01161
1.99383
1.9761
1.95842
1.94074
1.92311
1.90563
1.8883
1.87116
1.85422
1.83751
1.82104
1.80483
1.7889
1.77327
1.75795
1.74299
1.72841
1.71423
1.7005
1.68722
1.67443
1.66211
1.65026
1.63882
1.62772
1.61685
1.60608
1.59525
1.58421
1.57283
1.561
1.5487
1.53592
1.52268
1.50905
1.49512
1.48103
1.46707
1.45378
1.44219
1.43414
1.43221
1.43931
1.45778
1.48871
1.53177
1.58565
1.6486
1.71884
1.79478
1.87504
1.95847
2.0441
2.13113
2.21894
2.30694
2.39499
2.48246
2.56818
2.68197
2.71994
2.70181
2.68365
2.66548
2.64729
2.62908
2.61087
2.59264
2.5744
2.55615
2.53789
2.51962
2.50135
2.48306
2.46478
2.44649
2.4282
2.40991
2.39161
2.37332
2.35504
2.33678
2.31853
2.30029
2.28207
2.26387
2.2457
2.22754
2.2094
2.19128
2.17318
2.15511
2.13705
2.119
2.10097
2.08295
2.06494
2.04695
2.02901
2.01113
1.9933
1.97552
1.95778
1.94007
1.92246
1.90499
1.88766
1.87052
1.85357
1.83684
1.82034
1.80409
1.78812
1.77244
1.75708
1.74206
1.72741
1.71315
1.69932
1.68594
1.67302
1.66055
1.64852
1.63688
1.62557
1.61448
1.6035
1.5925
1.58133
1.56987
1.55806
1.54583
1.53319
1.52015
1.50675
1.49304
1.47906
1.46492
1.4508
1.43703
1.42425
1.41363
1.40693
1.40639
1.41418
1.4318
1.45972
1.49742
1.54373
1.5972
1.65643
1.72016
1.78729
1.85694
1.92843
2.00114
2.07489
2.14922
2.22263
2.32236
2.71983
2.70169
2.68353
2.66535
2.64716
2.62895
2.61073
2.59249
2.57425
2.55599
2.53773
2.51946
2.50118
2.48289
2.4646
2.44631
2.42802
2.40972
2.39142
2.37314
2.35486
2.33659
2.31834
2.3001
2.28187
2.26366
2.24548
2.22731
2.20916
2.19104
2.17293
2.15484
2.13678
2.11873
2.10069
2.08267
2.06467
2.04668
2.02872
2.0108
1.99294
1.97512
1.95735
1.93967
1.92209
1.90463
1.88732
1.87017
1.85322
1.83647
1.81995
1.80368
1.78767
1.77196
1.75655
1.74149
1.72679
1.71247
1.69857
1.6851
1.67207
1.65948
1.64731
1.63552
1.62404
1.61278
1.60165
1.59051
1.57925
1.56777
1.55599
1.54387
1.5314
1.5186
1.50548
1.49207
1.4784
1.46449
1.45039