/*--------------------------------*- C++ -*----------------------------------*\
| =========                 |                                                 |
| \\      /  F ield         | OpenFOAM: The Open Source CFD Toolbox           |
|  \\    /   O peration     | Version:  4.1                                   |
|   \\  /    A nd           | Web:      www.OpenFOAM.org                      |
|    \\/     M anipulation  |                                                 |
\*---------------------------------------------------------------------------*/
FoamFile
{
    version     2.0;
    format      ascii;
    class       volScalarField;
    location    "400";
    object      k;
}
// * * * * * * * * * * * * * * * * * * * * * * * * * * * * * * * * * * * * * //

dimensions      [0 2 -2 0 0 0 0];

internalField   nonuniform List<scalar> 
6820
(
0.241787
0.289665
0.336844
0.381951
0.423954
0.462111
0.495949
0.525267
0.550096
0.570645
0.587239
0.60027
0.610157
0.617322
0.622163
0.625052
0.626319
0.626258
0.625124
0.623136
0.620478
0.617308
0.613757
0.609932
0.605925
0.601808
0.597643
0.593477
0.589351
0.585299
0.58134
0.577573
0.57518
0.202474
0.204679
0.206995
0.209467
0.212041
0.21468
0.217362
0.220055
0.222731
0.225368
0.227951
0.230474
0.232937
0.235342
0.237699
0.240015
0.2423
0.244565
0.246818
0.249066
0.251317
0.253575
0.255846
0.25813
0.26043
0.262744
0.265072
0.26741
0.269754
0.2721
0.27444
0.276763
0.27956
0.199741
0.199215
0.198471
0.197596
0.196619
0.195573
0.194482
0.193366
0.192234
0.191099
0.189969
0.188854
0.187759
0.186692
0.185659
0.184664
0.183712
0.182807
0.181952
0.181151
0.180406
0.179715
0.179079
0.178496
0.177967
0.177489
0.177061
0.176683
0.176352
0.176065
0.175819
0.175617
0.175488
0.199153
0.198176
0.197113
0.195992
0.194809
0.19357
0.192296
0.191001
0.189694
0.188384
0.187078
0.185781
0.1845
0.183237
0.181996
0.180779
0.179589
0.178429
0.177299
0.176201
0.175136
0.174106
0.173109
0.172147
0.171218
0.170323
0.169461
0.168632
0.167835
0.16707
0.166334
0.165629
0.164952
0.198981
0.1979
0.196807
0.195699
0.194559
0.193388
0.192197
0.190994
0.189784
0.188574
0.187366
0.186166
0.184977
0.183802
0.182643
0.181502
0.180381
0.179281
0.178204
0.177151
0.176122
0.175118
0.17414
0.173187
0.172259
0.171357
0.17048
0.169628
0.1688
0.167997
0.167218
0.166462
0.165721
0.198926
0.197795
0.196678
0.195576
0.194473
0.193363
0.192249
0.191134
0.190019
0.188909
0.187805
0.186711
0.185628
0.184558
0.183503
0.182465
0.181443
0.18044
0.179456
0.178491
0.177546
0.176622
0.175718
0.174835
0.173972
0.17313
0.172309
0.171508
0.170727
0.169966
0.169224
0.168501
0.167788
0.198906
0.197755
0.196631
0.195537
0.194463
0.193399
0.192342
0.191294
0.190254
0.189222
0.188201
0.187191
0.186194
0.18521
0.18424
0.183286
0.182347
0.181425
0.18052
0.179632
0.178761
0.177908
0.177073
0.176256
0.175457
0.174676
0.173912
0.173166
0.172438
0.171727
0.171033
0.170354
0.169683
0.1989
0.19774
0.196611
0.195517
0.194452
0.193408
0.192382
0.191373
0.19038
0.189401
0.188437
0.187487
0.186551
0.185631
0.184726
0.183837
0.182964
0.182106
0.181265
0.18044
0.179632
0.17884
0.178065
0.177306
0.176563
0.175837
0.175126
0.174432
0.173753
0.17309
0.172442
0.171807
0.171178
0.198897
0.197734
0.196603
0.195508
0.194448
0.193415
0.192408
0.191424
0.19046
0.189516
0.188591
0.187683
0.186792
0.185918
0.185061
0.18422
0.183396
0.182588
0.181796
0.18102
0.180259
0.179515
0.178786
0.178073
0.177375
0.176693
0.176025
0.175372
0.174734
0.17411
0.173501
0.172903
0.17231
0.198896
0.197732
0.1966
0.195505
0.194445
0.193417
0.192417
0.191444
0.190496
0.189571
0.188667
0.187785
0.186922
0.186079
0.185254
0.184446
0.183656
0.182884
0.182127
0.181388
0.180664
0.179956
0.179264
0.178587
0.177924
0.177277
0.176644
0.176026
0.175421
0.17483
0.174252
0.173686
0.173124
0.198896
0.197731
0.196599
0.195504
0.194444
0.193417
0.192421
0.191454
0.190514
0.1896
0.18871
0.187844
0.186999
0.186175
0.185371
0.184587
0.183821
0.183073
0.182342
0.181628
0.180931
0.18025
0.179585
0.178934
0.178299
0.177679
0.177072
0.17648
0.175901
0.175336
0.174783
0.174242
0.173704
0.198896
0.19773
0.196599
0.195504
0.194444
0.193418
0.192423
0.191458
0.190521
0.189612
0.188729
0.18787
0.187035
0.186222
0.18543
0.184659
0.183908
0.183176
0.182461
0.181765
0.181086
0.180423
0.179777
0.179145
0.17853
0.177929
0.177342
0.176769
0.17621
0.175664
0.175131
0.174609
0.174091
0.198896
0.19773
0.196599
0.195504
0.194444
0.193418
0.192424
0.19146
0.190525
0.189618
0.188738
0.187884
0.187054
0.186247
0.185463
0.1847
0.183958
0.183235
0.182532
0.181847
0.181179
0.180529
0.179895
0.179277
0.178675
0.178087
0.177514
0.176956
0.176411
0.175879
0.17536
0.174852
0.174348
0.198896
0.19773
0.196599
0.195504
0.194445
0.193419
0.192425
0.191461
0.190527
0.189621
0.188743
0.18789
0.187062
0.186259
0.185478
0.184719
0.183981
0.183264
0.182567
0.181888
0.181227
0.180584
0.179958
0.179349
0.178755
0.178176
0.177612
0.177063
0.176527
0.176005
0.175496
0.174998
0.174504
0.198896
0.19773
0.196599
0.195505
0.194445
0.193419
0.192425
0.191462
0.190528
0.189623
0.188745
0.187893
0.187067
0.186265
0.185486
0.184729
0.183994
0.18328
0.182586
0.181911
0.181254
0.180616
0.179995
0.17939
0.178801
0.178229
0.177671
0.177127
0.176598
0.176082
0.17558
0.175088
0.174601
0.198896
0.19773
0.196599
0.195505
0.194446
0.19342
0.192426
0.191463
0.190529
0.189624
0.188747
0.187895
0.187069
0.186268
0.18549
0.184734
0.184
0.183288
0.182595
0.181922
0.181267
0.180631
0.180012
0.179411
0.178825
0.178255
0.177701
0.177161
0.176635
0.176123
0.175625
0.175137
0.174654
0.198896
0.19773
0.1966
0.195505
0.194446
0.19342
0.192426
0.191463
0.19053
0.189625
0.188748
0.187896
0.187071
0.18627
0.185492
0.184737
0.184004
0.183292
0.1826
0.181928
0.181275
0.18064
0.180023
0.179422
0.178838
0.17827
0.177718
0.17718
0.176657
0.176147
0.175651
0.175166
0.174686
0.198896
0.19773
0.1966
0.195505
0.194446
0.19342
0.192427
0.191464
0.19053
0.189626
0.188748
0.187897
0.187072
0.186271
0.185493
0.184739
0.184006
0.183294
0.182603
0.181931
0.181279
0.180644
0.180028
0.179428
0.178845
0.178278
0.177726
0.17719
0.176667
0.176159
0.175664
0.175181
0.174702
0.198896
0.197729
0.1966
0.195506
0.194446
0.193421
0.192427
0.191464
0.190531
0.189626
0.188749
0.187898
0.187073
0.186272
0.185494
0.18474
0.184007
0.183296
0.182605
0.181933
0.181281
0.180647
0.180031
0.179432
0.178849
0.178283
0.177732
0.177196
0.176674
0.176166
0.175672
0.17519
0.174712
0.198896
0.197729
0.1966
0.195506
0.194446
0.193421
0.192427
0.191464
0.190531
0.189627
0.188749
0.187899
0.187073
0.186272
0.185495
0.184741
0.184008
0.183297
0.182606
0.181935
0.181283
0.180649
0.180033
0.179434
0.178852
0.178285
0.177734
0.177199
0.176677
0.17617
0.175676
0.175194
0.174717
0.198896
0.197729
0.1966
0.195506
0.194447
0.193421
0.192427
0.191465
0.190532
0.189627
0.18875
0.187899
0.187074
0.186273
0.185496
0.184742
0.184009
0.183298
0.182607
0.181936
0.181284
0.18065
0.180034
0.179435
0.178853
0.178287
0.177737
0.177201
0.17668
0.176173
0.175679
0.175197
0.17472
0.198896
0.197729
0.1966
0.195506
0.194447
0.193421
0.192428
0.191465
0.190532
0.189627
0.18875
0.1879
0.187074
0.186274
0.185497
0.184742
0.18401
0.183299
0.182608
0.181937
0.181285
0.180651
0.180035
0.179437
0.178855
0.178289
0.177738
0.177202
0.176682
0.176175
0.175681
0.175199
0.174722
0.198896
0.197729
0.1966
0.195506
0.194447
0.193421
0.192428
0.191465
0.190532
0.189628
0.188751
0.1879
0.187075
0.186274
0.185497
0.184743
0.18401
0.183299
0.182608
0.181937
0.181285
0.180652
0.180036
0.179437
0.178855
0.178289
0.177739
0.177203
0.176683
0.176176
0.175682
0.1752
0.174723
0.198896
0.19773
0.1966
0.195506
0.194447
0.193421
0.192428
0.191465
0.190532
0.189628
0.188751
0.1879
0.187075
0.186274
0.185497
0.184743
0.184011
0.1833
0.182609
0.181938
0.181286
0.180652
0.180037
0.179438
0.178856
0.17829
0.17774
0.177204
0.176683
0.176177
0.175683
0.175201
0.174724
0.198896
0.197729
0.1966
0.195506
0.194447
0.193421
0.192428
0.191465
0.190532
0.189628
0.188751
0.1879
0.187075
0.186274
0.185497
0.184743
0.184011
0.1833
0.182609
0.181938
0.181286
0.180653
0.180037
0.179438
0.178856
0.17829
0.17774
0.177204
0.176683
0.176176
0.175683
0.175201
0.174724
0.198896
0.197729
0.1966
0.195506
0.194447
0.193421
0.192428
0.191465
0.190532
0.189628
0.188751
0.1879
0.187075
0.186274
0.185497
0.184743
0.184011
0.1833
0.182609
0.181938
0.181286
0.180653
0.180037
0.179438
0.178856
0.17829
0.17774
0.177204
0.176683
0.176177
0.175683
0.175201
0.174724
0.198896
0.197729
0.1966
0.195506
0.194447
0.193421
0.192428
0.191465
0.190532
0.189628
0.188751
0.1879
0.187075
0.186274
0.185497
0.184743
0.18401
0.183299
0.182608
0.181937
0.181285
0.180652
0.180036
0.179437
0.178855
0.178289
0.177738
0.177203
0.176682
0.176175
0.175681
0.1752
0.174722
0.198896
0.197729
0.1966
0.195506
0.194447
0.193421
0.192428
0.191465
0.190532
0.189628
0.188751
0.1879
0.187075
0.186274
0.185497
0.184743
0.18401
0.183299
0.182608
0.181937
0.181285
0.180652
0.180036
0.179437
0.178855
0.178289
0.177738
0.177203
0.176682
0.176175
0.175681
0.175199
0.174722
0.198896
0.197729
0.1966
0.195506
0.194447
0.193421
0.192428
0.191465
0.190532
0.189627
0.18875
0.187899
0.187074
0.186273
0.185496
0.184741
0.184009
0.183297
0.182606
0.181935
0.181283
0.180649
0.180033
0.179434
0.178852
0.178285
0.177735
0.177199
0.176678
0.176171
0.175677
0.175195
0.174718
0.198896
0.197729
0.1966
0.195506
0.194447
0.193421
0.192427
0.191465
0.190532
0.189627
0.18875
0.187899
0.187074
0.186273
0.185496
0.184742
0.184009
0.183298
0.182607
0.181936
0.181283
0.18065
0.180034
0.179435
0.178852
0.178286
0.177735
0.1772
0.176678
0.176171
0.175677
0.175195
0.174717
0.198896
0.197729
0.1966
0.195506
0.194447
0.193421
0.192427
0.191464
0.190531
0.189626
0.188749
0.187898
0.187072
0.186271
0.185493
0.184738
0.184005
0.183294
0.182602
0.181931
0.181278
0.180644
0.180028
0.179428
0.178846
0.178279
0.177728
0.177192
0.17667
0.176162
0.175668
0.175186
0.174708
0.198896
0.197729
0.1966
0.195506
0.194446
0.193421
0.192427
0.191464
0.190531
0.189627
0.18875
0.187899
0.187074
0.186273
0.185496
0.184741
0.184008
0.183297
0.182605
0.181934
0.181281
0.180647
0.18003
0.17943
0.178847
0.17828
0.177728
0.177192
0.176669
0.176161
0.175666
0.175183
0.174704
0.198896
0.19773
0.1966
0.195505
0.194446
0.19342
0.192426
0.191462
0.190528
0.189623
0.188745
0.187893
0.187067
0.186265
0.185487
0.184732
0.183998
0.183286
0.182594
0.181921
0.181267
0.180632
0.180014
0.179414
0.178829
0.178261
0.177708
0.17717
0.176646
0.176136
0.17564
0.175155
0.174674
0.198896
0.19773
0.1966
0.195506
0.194447
0.193422
0.192429
0.191467
0.190534
0.18963
0.188753
0.187901
0.187076
0.186274
0.185495
0.184739
0.184004
0.183291
0.182597
0.181923
0.181267
0.180629
0.180009
0.179406
0.178818
0.178247
0.177691
0.177149
0.176622
0.176108
0.175607
0.175119
0.174634
0.198896
0.19773
0.1966
0.195504
0.194443
0.193416
0.192421
0.191457
0.190522
0.189617
0.188738
0.187885
0.187057
0.186253
0.185472
0.184713
0.183975
0.183258
0.18256
0.181881
0.181221
0.180578
0.179952
0.179343
0.17875
0.178172
0.17761
0.177062
0.176528
0.176007
0.1755
0.175004
0.174513
0.198897
0.197733
0.196606
0.195516
0.194462
0.193441
0.19245
0.191489
0.190556
0.18965
0.18877
0.187914
0.187083
0.186274
0.185486
0.18472
0.183975
0.183248
0.182541
0.181853
0.181182
0.180528
0.179891
0.17927
0.178665
0.178076
0.177501
0.176941
0.176394
0.175862
0.175342
0.174834
0.17433
0.1989
0.197735
0.196605
0.195515
0.194465
0.193449
0.192464
0.191508
0.190579
0.189676
0.188796
0.187939
0.187104
0.186291
0.185498
0.184724
0.183971
0.183236
0.182519
0.18182
0.181139
0.180474
0.179826
0.179194
0.178578
0.177978
0.177392
0.176821
0.176264
0.175722
0.175192
0.174675
0.174162
0.198944
0.197852
0.196795
0.195774
0.194787
0.193827
0.192894
0.191986
0.191101
0.190238
0.189398
0.188578
0.187778
0.186998
0.186238
0.185496
0.184772
0.184067
0.183379
0.182709
0.182056
0.181419
0.180799
0.180195
0.179606
0.179033
0.178475
0.177931
0.177402
0.176887
0.176386
0.175897
0.175415
0.199227
0.198572
0.198048
0.197613
0.197233
0.196892
0.196584
0.196305
0.196052
0.195821
0.19561
0.195418
0.195244
0.195086
0.194943
0.194816
0.194702
0.194601
0.194512
0.194436
0.19437
0.194315
0.194269
0.194233
0.194206
0.194187
0.194176
0.194172
0.194175
0.194184
0.1942
0.194222
0.194252
0.209515
0.220347
0.230808
0.24093
0.250733
0.260233
0.269437
0.278351
0.286978
0.29532
0.303381
0.311165
0.318673
0.325911
0.332883
0.339593
0.346046
0.352248
0.358205
0.363923
0.369409
0.374669
0.379709
0.384538
0.389161
0.393586
0.39782
0.401869
0.405741
0.409441
0.412978
0.416358
0.419612
0.641939
0.797571
0.970786
1.15005
1.3117
1.44465
1.54751
1.62361
1.67858
1.71828
1.74748
1.76946
1.78623
1.79922
1.80922
1.81671
1.82177
1.82509
1.82678
1.82741
1.82752
1.8275
1.82755
1.82778
1.82832
1.82931
1.83102
1.83384
1.83829
1.84514
1.85543
1.87051
1.89179
1.92019
1.95554
1.99592
2.03754
2.07509
2.10268
2.11532
2.11038
2.08875
2.05354
2.0105
1.96474
1.91936
1.87619
1.83618
1.79902
1.76379
1.72911
1.69323
1.65409
1.60944
1.55693
1.49445
1.42035
1.33373
1.23473
1.12472
1.00651
0.884329
0.763508
0.649834
0.548845
0.466393
0.412977
0.407716
0.459406
0.544964
0.634222
0.712398
0.775891
0.825246
0.862309
0.889196
0.907875
0.919991
0.926842
0.929412
0.928434
0.924455
0.917882
0.90903
0.898153
0.885463
0.87115
0.855385
0.838335
0.820156
0.801006
0.781034
0.760398
0.739234
0.71773
0.695984
0.674338
0.652808
0.63291
0.616728
0.287116
0.306137
0.339819
0.392205
0.462697
0.547843
0.642302
0.739607
0.834498
0.923266
1.00387
1.0756
1.13867
1.19382
1.24197
1.28398
1.32051
1.35221
1.38019
1.40518
1.4278
1.44851
1.46762
1.48533
1.50172
1.5169
1.53104
1.5444
1.55749
1.57108
1.58632
1.60472
1.62797
1.65751
1.69391
1.73631
1.78215
1.82725
1.86649
1.89492
1.90903
1.90786
1.89257
1.86658
1.83363
1.79643
1.75793
1.71947
1.68153
1.64392
1.60581
1.56587
1.52236
1.47327
1.41664
1.35076
1.27452
1.18761
1.09078
0.985921
0.876158
0.765634
0.659082
0.56117
0.476036
0.40821
0.367171
0.371223
0.427926
0.51361
0.600229
0.675423
0.736597
0.784479
0.820816
0.847569
0.866555
0.879308
0.887042
0.890691
0.89095
0.888342
0.883255
0.875989
0.866783
0.855835
0.843318
0.829391
0.814206
0.797907
0.780641
0.762547
0.743776
0.724463
0.70479
0.684866
0.665021
0.645297
0.627116
0.612386
0.175702
0.177105
0.180319
0.186543
0.197011
0.212761
0.234757
0.264035
0.300729
0.344429
0.393962
0.447965
0.50491
0.563281
0.621715
0.679062
0.734389
0.786837
0.836453
0.883326
0.927602
0.96942
1.00887
1.04599
1.08076
1.11314
1.14317
1.17097
1.19691
1.22166
1.24625
1.27216
1.30111
1.33478
1.37431
1.41976
1.46974
1.52129
1.57035
1.61245
1.6438
1.66221
1.66735
1.66051
1.6436
1.61946
1.59055
1.55858
1.52458
1.48888
1.45119
1.41065
1.36598
1.3157
1.25835
1.19278
1.11839
1.03542
0.945011
0.849336
0.751476
0.655153
0.564265
0.482359
0.412381
0.357725
0.326699
0.336375
0.393947
0.477049
0.560075
0.632354
0.691747
0.738877
0.775238
0.802542
0.822412
0.836249
0.845186
0.850112
0.851706
0.850484
0.846839
0.841076
0.833436
0.82412
0.813298
0.801124
0.787742
0.773287
0.757895
0.741695
0.72483
0.707427
0.68966
0.671639
0.653681
0.635841
0.61944
0.606215
0.16413
0.163433
0.162963
0.162938
0.163623
0.165315
0.168363
0.17317
0.180122
0.189605
0.202192
0.218232
0.23795
0.261455
0.288702
0.319478
0.353391
0.389855
0.428204
0.467971
0.508685
0.549883
0.59111
0.631926
0.67191
0.710676
0.74791
0.783426
0.817245
0.849678
0.881406
0.913511
0.947418
0.984676
1.0266
1.0738
1.12583
1.18089
1.23602
1.28756
1.33186
1.36614
1.38898
1.40021
1.40039
1.39164
1.37576
1.35432
1.3285
1.29892
1.26574
1.22857
1.18668
1.13915
1.08509
1.02388
0.955441
0.880392
0.800139
0.716865
0.633372
0.552781
0.478123
0.411953
0.35626
0.313487
0.29062
0.303185
0.358711
0.437368
0.516005
0.585143
0.642841
0.689497
0.726278
0.75459
0.775815
0.791185
0.801726
0.808264
0.811451
0.811797
0.809703
0.805484
0.799398
0.791657
0.782445
0.771921
0.760232
0.747511
0.733891
0.719496
0.704459
0.688902
0.672989
0.656828
0.640722
0.624732
0.610075
0.598312
0.164786
0.163864
0.162983
0.16219
0.161543
0.161111
0.160991
0.161301
0.162168
0.163729
0.166157
0.169651
0.174418
0.180656
0.188563
0.198336
0.210146
0.224122
0.240291
0.258716
0.279393
0.302248
0.327129
0.353798
0.381941
0.411187
0.441142
0.471445
0.501842
0.53227
0.562939
0.594388
0.627477
0.663285
0.702891
0.747052
0.79586
0.848464
0.903001
0.956789
1.00679
1.0502
1.08505
1.11009
1.12503
1.13074
1.12833
1.11897
1.10369
1.08321
1.05788
1.02767
0.99227
0.951257
0.904249
0.851122
0.792194
0.728345
0.661055
0.592343
0.524587
0.460252
0.401569
0.350275
0.30762
0.275282
0.258864
0.272033
0.323226
0.396182
0.469951
0.535708
0.591549
0.637649
0.674857
0.704267
0.727013
0.744138
0.75654
0.764963
0.770011
0.772169
0.771831
0.769319
0.7649
0.758803
0.751225
0.742338
0.732299
0.721251
0.709328
0.696657
0.683368
0.669577
0.655443
0.641069
0.626741
0.612525
0.599527
0.589129
0.166886
0.165974
0.165065
0.16417
0.163305
0.162492
0.161761
0.161151
0.16071
0.16049
0.160553
0.160969
0.161822
0.163199
0.16519
0.167894
0.171414
0.175855
0.181308
0.187876
0.195662
0.204766
0.215268
0.227225
0.240655
0.255532
0.271792
0.289343
0.308102
0.328038
0.349235
0.371943
0.396613
0.423873
0.454444
0.488962
0.527752
0.57058
0.616497
0.663837
0.710422
0.753931
0.792438
0.824025
0.847987
0.864137
0.872761
0.874418
0.869741
0.859274
0.843376
0.822192
0.795705
0.763835
0.72658
0.684158
0.63714
0.586511
0.533673
0.480356
0.428454
0.379804
0.335954
0.298009
0.266693
0.243108
0.231531
0.243501
0.288495
0.354715
0.423304
0.485537
0.539348
0.584697
0.622155
0.652536
0.676731
0.695599
0.709908
0.72031
0.727347
0.731469
0.733048
0.732396
0.729781
0.725437
0.719569
0.712364
0.703989
0.694597
0.684333
0.673327
0.661715
0.649614
0.637177
0.624507
0.611871
0.599338
0.587906
0.578762
0.168834
0.16797
0.167101
0.166231
0.165367
0.164515
0.163685
0.162889
0.162146
0.161474
0.160901
0.160455
0.160171
0.160091
0.160257
0.160718
0.161522
0.162723
0.164373
0.166521
0.169225
0.172542
0.176532
0.181255
0.186762
0.193104
0.200321
0.208451
0.21754
0.227656
0.238918
0.25152
0.265753
0.282018
0.300793
0.322576
0.347755
0.376464
0.408426
0.442869
0.478558
0.513983
0.547614
0.577573
0.603025
0.623238
0.63787
0.646871
0.650369
0.648554
0.641596
0.629611
0.612674
0.590876
0.564416
0.533685
0.499336
0.462314
0.423821
0.385233
0.347964
0.313302
0.282266
0.255522
0.233471
0.216817
0.208652
0.218193
0.255573
0.314038
0.377078
0.435651
0.487268
0.531648
0.569126
0.600268
0.625741
0.646226
0.662357
0.674698
0.683727
0.68985
0.69341
0.6947
0.693979
0.691474
0.687394
0.681928
0.675252
0.667526
0.658903
0.649524
0.63953
0.629044
0.61822
0.607163
0.596125
0.585175
0.575215
0.567236
0.170384
0.169572
0.168754
0.167931
0.167106
0.166279
0.165455
0.164639
0.163837
0.163057
0.162312
0.161612
0.160974
0.160418
0.159963
0.159634
0.159458
0.159463
0.159679
0.160133
0.160857
0.16188
0.163236
0.164958
0.167077
0.169626
0.172641
0.176156
0.180215
0.184877
0.190227
0.196386
0.203528
0.211887
0.221751
0.233448
0.247292
0.263516
0.282177
0.303075
0.325718
0.349359
0.373079
0.395793
0.416635
0.434839
0.449829
0.461209
0.468733
0.472259
0.471707
0.46704
0.458273
0.445499
0.428943
0.408993
0.38624
0.361462
0.335592
0.30964
0.284594
0.261314
0.240451
0.22241
0.207426
0.195954
0.190082
0.196636
0.225548
0.275216
0.332169
0.38687
0.436107
0.479274
0.516497
0.548139
0.574662
0.596578
0.614387
0.628558
0.639505
0.647585
0.653111
0.656354
0.657553
0.656928
0.654679
0.650992
0.646043
0.639998
0.633013
0.625236
0.616813
0.607876
0.598581
0.589039
0.579494
0.570016
0.561422
0.554532
0.171562
0.170797
0.170025
0.169247
0.168464
0.167677
0.166888
0.166097
0.165308
0.164525
0.163751
0.162992
0.162255
0.161547
0.16088
0.160265
0.159717
0.159251
0.158883
0.158631
0.158513
0.158547
0.158753
0.159151
0.159762
0.160605
0.161704
0.16308
0.164761
0.16678
0.169183
0.172035
0.175423
0.179466
0.184313
0.190142
0.197144
0.20549
0.215295
0.226564
0.239163
0.252811
0.267097
0.281511
0.295523
0.308615
0.320307
0.330177
0.337868
0.343084
0.345593
0.345228
0.341901
0.335628
0.326549
0.314945
0.301245
0.286006
0.269877
0.253539
0.237647
0.222759
0.209293
0.197516
0.187588
0.179806
0.175468
0.179163
0.199516
0.239371
0.289416
0.339887
0.38653
0.428229
0.464893
0.496718
0.524006
0.547111
0.566404
0.582252
0.594995
0.604942
0.612369
0.617521
0.620619
0.621867
0.621453
0.619557
0.616349
0.611992
0.606644
0.600454
0.593572
0.586133
0.578297
0.570183
0.562025
0.553904
0.54656
0.540675
0.172416
0.171691
0.170959
0.170222
0.169478
0.16873
0.167977
0.16722
0.16646
0.165699
0.164939
0.16418
0.163428
0.162685
0.161956
0.161247
0.160566
0.15992
0.159318
0.15877
0.158287
0.15788
0.157561
0.157343
0.15724
0.157265
0.157433
0.157759
0.15826
0.158956
0.159873
0.161042
0.162506
0.164324
0.166568
0.169328
0.172706
0.176803
0.181706
0.187462
0.194054
0.201394
0.209321
0.217613
0.22601
0.23423
0.241979
0.248963
0.254895
0.259504
0.262551
0.263837
0.26323
0.26068
0.256234
0.250047
0.242378
0.233575
0.224046
0.214221
0.204514
0.195282
0.186801
0.179258
0.172774
0.167537
0.164283
0.165766
0.178437
0.207816
0.249752
0.295329
0.339077
0.379066
0.414873
0.446546
0.474264
0.498256
0.518778
0.536095
0.55047
0.562153
0.571377
0.578357
0.583292
0.586368
0.58776
0.587636
0.586157
0.583481
0.57976
0.575142
0.569777
0.563801
0.557375
0.55062
0.543765
0.536897
0.530685
0.525714
0.173028
0.172335
0.171635
0.170931
0.170221
0.169505
0.168785
0.16806
0.167331
0.166598
0.165863
0.165125
0.164387
0.16365
0.162916
0.162188
0.16147
0.160764
0.160077
0.159413
0.158778
0.158179
0.157624
0.157119
0.156673
0.156297
0.155999
0.155791
0.155682
0.155686
0.155817
0.156093
0.156534
0.157171
0.158038
0.15918
0.16065
0.162507
0.164807
0.167593
0.170884
0.174664
0.178877
0.183428
0.188195
0.19303
0.197767
0.202228
0.206224
0.209564
0.212066
0.213567
0.213945
0.21313
0.211116
0.207972
0.203834
0.198901
0.193411
0.187621
0.181785
0.176131
0.17084
0.166046
0.161839
0.15833
0.155899
0.156014
0.162763
0.181984
0.214444
0.253938
0.294219
0.332205
0.366896
0.398107
0.425911
0.450451
0.471893
0.490415
0.506204
0.519446
0.530324
0.539016
0.545694
0.550523
0.553661
0.555262
0.555476
0.554452
0.552334
0.549267
0.545394
0.540853
0.535799
0.530356
0.524742
0.51905
0.513877
0.509724
0.173439
0.172772
0.172099
0.171421
0.170738
0.17005
0.169357
0.168659
0.167957
0.167251
0.166541
0.165827
0.16511
0.164391
0.163671
0.16295
0.162231
0.161516
0.160806
0.160105
0.159415
0.158741
0.158087
0.157456
0.156855
0.156289
0.155764
0.155287
0.154866
0.154507
0.15422
0.154014
0.153901
0.153895
0.154014
0.154281
0.154723
0.155372
0.156263
0.157429
0.158896
0.160673
0.162751
0.165097
0.167655
0.170351
0.173092
0.175771
0.178268
0.180458
0.182215
0.183424
0.18399
0.183849
0.182979
0.1814
0.17918
0.176423
0.173264
0.169853
0.166345
0.162881
0.159582
0.15654
0.153817
0.151476
0.149693
0.149167
0.152099
0.162897
0.185159
0.216887
0.252574
0.288019
0.321294
0.351778
0.379365
0.404119
0.426147
0.445565
0.462497
0.477068
0.48941
0.49966
0.507954
0.51443
0.519227
0.522481
0.524331
0.524911
0.524358
0.522807
0.520397
0.51726
0.513547
0.509379
0.504964
0.500396
0.496209
0.492802
0.173715
0.173067
0.172414
0.171756
0.171094
0.170427
0.169756
0.16908
0.1684
0.167716
0.167028
0.166336
0.16564
0.164941
0.164239
0.163534
0.162828
0.162121
0.161414
0.160709
0.160007
0.15931
0.158621
0.157942
0.157276
0.156626
0.155996
0.155391
0.154815
0.154272
0.153767
0.153306
0.152896
0.152542
0.152255
0.152046
0.151928
0.151919
0.15204
0.152312
0.152756
0.15339
0.154221
0.155246
0.156446
0.157789
0.159225
0.160694
0.162121
0.163425
0.164523
0.165335
0.165791
0.165842
0.16546
0.164646
0.163427
0.161859
0.160014
0.157982
0.155854
0.153719
0.151655
0.149722
0.147962
0.146406
0.145129
0.144425
0.145324
0.150394
0.163388
0.185925
0.215258
0.24707
0.278386
0.307831
0.334937
0.359619
0.381919
0.401913
0.419681
0.435306
0.448875
0.460481
0.470223
0.478208
0.484549
0.489361
0.492766
0.494884
0.495841
0.495761
0.494775
0.493007
0.490602
0.487677
0.484426
0.480944
0.477707
0.475012
0.173885
0.17325
0.172612
0.171969
0.171322
0.170671
0.170016
0.169358
0.168695
0.168029
0.167358
0.166684
0.166006
0.165324
0.164639
0.163951
0.16326
0.162566
0.161871
0.161174
0.160476
0.159779
0.159084
0.158392
0.157704
0.157023
0.156351
0.15569
0.155043
0.154413
0.153801
0.153212
0.152648
0.152113
0.151612
0.151149
0.150732
0.150371
0.150075
0.149859
0.149738
0.149726
0.149834
0.15007
0.150434
0.150916
0.151494
0.152139
0.152807
0.15345
0.154014
0.154445
0.154695
0.154725
0.154509
0.154039
0.153325
0.152392
0.15128
0.15004
0.148727
0.147396
0.146094
0.14486
0.143718
0.142684
0.141782
0.141122
0.141131
0.143038
0.149327
0.162825
0.184061
0.210477
0.238736
0.266566
0.29286
0.317209
0.339515
0.359795
0.378098
0.394482
0.409002
0.421719
0.432697
0.442011
0.449746
0.455992
0.460848
0.464418
0.466814
0.468146
0.468535
0.468096
0.466964
0.46525
0.463134
0.460707
0.458396
0.456399
0.173991
0.173366
0.172737
0.172105
0.171469
0.17083
0.170187
0.16954
0.16889
0.168237
0.16758
0.166919
0.166255
0.165587
0.164917
0.164242
0.163565
0.162885
0.162202
0.161516
0.160829
0.160139
0.159449
0.158758
0.158068
0.15738
0.156695
0.156014
0.155339
0.15467
0.154011
0.153361
0.152723
0.152098
0.151488
0.150895
0.150324
0.149779
0.149266
0.148792
0.148368
0.148003
0.147706
0.147488
0.147354
0.147303
0.147332
0.147426
0.147567
0.147727
0.147875
0.147978
0.148002
0.14792
0.147712
0.147365
0.146882
0.146272
0.145557
0.144763
0.143924
0.14307
0.142231
0.141428
0.140676
0.139979
0.139339
0.138791
0.13849
0.138948
0.141413
0.148034
0.16088
0.180074
0.203521
0.2286
0.253453
0.277106
0.299153
0.31947
0.338047
0.354912
0.370103
0.38366
0.395626
0.406049
0.414986
0.422503
0.428675
0.433586
0.437327
0.439997
0.441699
0.442539
0.442639
0.442104
0.441097
0.439701
0.438296
0.436988
0.17405
0.173431
0.172809
0.172184
0.171555
0.170924
0.170289
0.169651
0.169009
0.168365
0.167717
0.167067
0.166413
0.165756
0.165096
0.164433
0.163766
0.163097
0.162425
0.16175
0.161072
0.160392
0.15971
0.159026
0.158341
0.157656
0.15697
0.156286
0.155603
0.154921
0.154243
0.153568
0.152898
0.152232
0.151571
0.150917
0.150271
0.149635
0.149013
0.14841
0.14783
0.147281
0.146769
0.146303
0.145887
0.145526
0.145221
0.144968
0.144761
0.144587
0.14443
0.144271
0.144091
0.143872
0.143599
0.143263
0.142861
0.142397
0.141879
0.141322
0.140744
0.140162
0.139593
0.139046
0.138529
0.138038
0.137569
0.137125
0.136754
0.136646
0.137329
0.139938
0.14623
0.157771
0.174632
0.195214
0.217428
0.23968
0.261059
0.281136
0.299748
0.316856
0.332467
0.346605
0.359301
0.370587
0.380501
0.389088
0.396402
0.402507
0.407472
0.411378
0.414313
0.416367
0.417649
0.418252
0.418325
0.417938
0.417426
0.416802
0.174085
0.17347
0.172852
0.172231
0.171608
0.170981
0.170351
0.169719
0.169083
0.168445
0.167804
0.16716
0.166513
0.165864
0.165211
0.164556
0.163898
0.163237
0.162573
0.161906
0.161237
0.160565
0.159891
0.159215
0.158537
0.157857
0.157176
0.156494
0.155811
0.155128
0.154445
0.153762
0.15308
0.152397
0.151716
0.151035
0.150355
0.149678
0.149006
0.148341
0.147686
0.147046
0.146426
0.145831
0.145266
0.144735
0.14424
0.143783
0.143363
0.142974
0.14261
0.142262
0.14192
0.141576
0.141218
0.140843
0.140445
0.140026
0.139591
0.139145
0.138698
0.138258
0.137832
0.137426
0.137039
0.136666
0.136298
0.135926
0.13556
0.135262
0.135233
0.13596
0.138402
0.143962
0.15389
0.168349
0.186202
0.205785
0.225698
0.245058
0.263398
0.280511
0.29632
0.310814
0.324005
0.335914
0.34657
0.356004
0.364256
0.37137
0.377401
0.382409
0.386466
0.389646
0.392039
0.393727
0.394839
0.395434
0.395797
0.395857
0.174103
0.17349
0.172875
0.172256
0.171636
0.171012
0.170386
0.169757
0.169125
0.16849
0.167853
0.167214
0.166572
0.165927
0.165279
0.164629
0.163977
0.163322
0.162664
0.162003
0.16134
0.160675
0.160007
0.159337
0.158665
0.157991
0.157315
0.156637
0.155958
0.155278
0.154596
0.153912
0.153228
0.152541
0.151852
0.151162
0.15047
0.149777
0.149084
0.148393
0.147705
0.147025
0.146354
0.145697
0.145057
0.144438
0.143843
0.143274
0.142731
0.142214
0.141721
0.141249
0.140794
0.140352
0.139918
0.139489
0.139064
0.138642
0.138227
0.13782
0.137425
0.137047
0.136688
0.136349
0.136024
0.135709
0.135391
0.13506
0.134711
0.134359
0.134075
0.134045
0.134687
0.136773
0.14141
0.149634
0.161736
0.176988
0.194099
0.211839
0.229342
0.246101
0.261856
0.276492
0.289972
0.302294
0.313475
0.323538
0.332512
0.340433
0.347342
0.353285
0.358317
0.3625
0.365904
0.368597
0.370687
0.372218
0.373433
0.374172
0.174113
0.173502
0.172888
0.172272
0.171652
0.171031
0.170406
0.169779
0.16915
0.168518
0.167883
0.167246
0.166607
0.165965
0.165321
0.164674
0.164025
0.163374
0.16272
0.162063
0.161405
0.160744
0.16008
0.159415
0.158748
0.158078
0.157406
0.156733
0.156058
0.155381
0.154702
0.15402
0.153337
0.152651
0.151962
0.15127
0.150575
0.149878
0.149178
0.148478
0.147778
0.147081
0.146389
0.145705
0.145031
0.14437
0.143725
0.143097
0.142489
0.141901
0.141334
0.140786
0.140258
0.139748
0.139255
0.138779
0.138319
0.137876
0.137451
0.137046
0.136662
0.136301
0.135963
0.135644
0.135341
0.135045
0.134745
0.13443
0.134091
0.133726
0.133358
0.133053
0.132972
0.133454
0.1351
0.13877
0.145335
0.155192
0.167966
0.182708
0.198363
0.214098
0.229365
0.243852
0.2574
0.269941
0.281457
0.291955
0.301455
0.309984
0.317577
0.32427
0.330108
0.335138
0.339418
0.343002
0.345975
0.348369
0.350395
0.351784
0.174119
0.173508
0.172895
0.172279
0.171661
0.17104
0.170417
0.169791
0.169163
0.168532
0.167899
0.167263
0.166626
0.165986
0.165343
0.164699
0.164052
0.163402
0.162751
0.162097
0.161441
0.160783
0.160123
0.159461
0.158796
0.15813
0.157462
0.156791
0.156119
0.155445
0.154768
0.15409
0.153409
0.152724
0.152037
0.151347
0.150653
0.149957
0.149257
0.148556
0.147853
0.147152
0.146453
0.145758
0.14507
0.144391
0.143723
0.143068
0.142427
0.141802
0.141194
0.140603
0.140031
0.139479
0.138946
0.138433
0.137943
0.137474
0.13703
0.136611
0.136218
0.135851
0.135509
0.135188
0.134882
0.134584
0.134282
0.133966
0.133626
0.133257
0.132862
0.132463
0.13212
0.131964
0.132256
0.13345
0.136207
0.141245
0.149022
0.159446
0.171889
0.185496