/*--------------------------------*- C++ -*----------------------------------*\
| =========                 |                                                 |
| \\      /  F ield         | OpenFOAM: The Open Source CFD Toolbox           |
|  \\    /   O peration     | Version:  4.1                                   |
|   \\  /    A nd           | Web:      www.OpenFOAM.org                      |
|    \\/     M anipulation  |                                                 |
\*---------------------------------------------------------------------------*/
FoamFile
{
    version     2.0;
    format      ascii;
    class       volScalarField;
    location    "400";
    object      nut;
}
// * * * * * * * * * * * * * * * * * * * * * * * * * * * * * * * * * * * * * //

dimensions      [0 2 -1 0 0 0 0];

internalField   nonuniform List<scalar> 
6820
(
4.53774e-05
4.96674e-05
5.35596e-05
5.7033e-05
6.00872e-05
6.2733e-05
6.49892e-05
6.68825e-05
6.8445e-05
6.97116e-05
7.07179e-05
7.14982e-05
7.20846e-05
7.25065e-05
7.27902e-05
7.29589e-05
7.30328e-05
7.30291e-05
7.29629e-05
7.28466e-05
7.2691e-05
7.2505e-05
7.2296e-05
7.20702e-05
7.18329e-05
7.15883e-05
7.13399e-05
7.10907e-05
7.08429e-05
7.05986e-05
7.03591e-05
7.01304e-05
6.99835e-05
0.000389004
0.000214804
0.000161971
0.000134577
0.000117082
0.000104841
9.5873e-05
8.91202e-05
8.39501e-05
7.99555e-05
7.68585e-05
7.44602e-05
7.26142e-05
7.12105e-05
7.01648e-05
6.94119e-05
6.89006e-05
6.85899e-05
6.84473e-05
6.84461e-05
6.85648e-05
6.87854e-05
6.9093e-05
6.94749e-05
6.99205e-05
7.04206e-05
7.09676e-05
7.15545e-05
7.21761e-05
7.28259e-05
7.35031e-05
7.42031e-05
7.51824e-05
0.000867009
0.000638273
0.00050769
0.000428082
0.000375013
0.000336915
0.000308048
0.000285294
0.000266811
0.000251438
0.000238411
0.000227207
0.000217456
0.000208887
0.0002013
0.000194542
0.000188493
0.000183058
0.000178163
0.000173746
0.000169739
0.000166037
0.000162602
0.000159408
0.000156438
0.000153673
0.000151098
0.0001487
0.000146464
0.000144378
0.000142429
0.000140613
0.000138982
0.000991214
0.000902164
0.000807377
0.000726621
0.000661863
0.000610174
0.00056843
0.000534163
0.000505564
0.000481327
0.000460508
0.000442408
0.000426501
0.000412391
0.00039977
0.000388401
0.000378097
0.000368708
0.000360115
0.000352221
0.000344948
0.000338193
0.000331887
0.000325975
0.000320415
0.000315173
0.000310217
0.000305524
0.000301071
0.000296838
0.000292805
0.000288958
0.000285274
0.00101005
0.00098739
0.000948626
0.000902916
0.000857083
0.00081444
0.000776075
0.000742009
0.000711857
0.00068513
0.000661356
0.000640111
0.000621033
0.000603816
0.000588204
0.000573983
0.000560975
0.000549031
0.000538024
0.000527849
0.000518415
0.000509642
0.00050146
0.000493804
0.000486622
0.000479867
0.000473498
0.000467481
0.000461785
0.000456384
0.000451252
0.000446367
0.000441665
0.00101185
0.00100724
0.000995356
0.000976942
0.000954121
0.000929118
0.000903658
0.0008788
0.000855098
0.000832804
0.000811999
0.000792666
0.000774735
0.00075811
0.000742689
0.00072837
0.000715056
0.000702657
0.00069109
0.000680281
0.000670163
0.000660676
0.000651765
0.000643381
0.000635478
0.000628018
0.000620965
0.000614286
0.000607953
0.000601941
0.000596227
0.000590781
0.000585526
0.00101178
0.00101089
0.00100777
0.00100182
0.000992905
0.000981471
0.000968241
0.000953919
0.000939071
0.000924116
0.000909346
0.000894952
0.000881052
0.000867714
0.000854968
0.000842825
0.000831278
0.000820309
0.000809897
0.000800016
0.000790635
0.000781723
0.000773252
0.000765198
0.000757537
0.000750245
0.0007433
0.000736682
0.000730372
0.00072435
0.0007186
0.000713097
0.000707751
0.00101168
0.00101136
0.00101047
0.00100868
0.00100565
0.0010012
0.000995411
0.000988493
0.000980691
0.000972244
0.000963374
0.000954263
0.000945057
0.00093587
0.000926786
0.000917868
0.00090916
0.000900693
0.000892484
0.000884546
0.000876883
0.000869495
0.000862379
0.000855528
0.000848937
0.000842597
0.000836502
0.000830641
0.000825007
0.00081959
0.000814381
0.000809359
0.000804436
0.00101165
0.00101137
0.00101095
0.0010103
0.00100928
0.00100768
0.00100543
0.00100251
0.000998941
0.000994802
0.000990178
0.000985159
0.000979837
0.000974295
0.000968605
0.000962829
0.000957018
0.000951214
0.000945449
0.000939749
0.000934134
0.000928622
0.000923224
0.00091795
0.000912804
0.000907791
0.000902915
0.000898175
0.000893572
0.000889106
0.000884772
0.000880555
0.00087637
0.00101164
0.00101135
0.00101102
0.00101063
0.00101016
0.00100951
0.0010086
0.00100738
0.00100583
0.00100394
0.00100172
0.0009992
0.000996407
0.00099338
0.000990156
0.000986771
0.00098326
0.000979655
0.000975984
0.00097227
0.000968535
0.000964797
0.000961071
0.00095737
0.000953706
0.000950086
0.000946519
0.000943011
0.000939565
0.000936187
0.000932875
0.00092962
0.000926337
0.00101163
0.00101134
0.00101103
0.0010107
0.00101036
0.00100998
0.00100952
0.00100894
0.00100823
0.00100736
0.00100632
0.00100511
0.00100373
0.00100218
0.00100049
0.000998654
0.000996697
0.000994633
0.000992478
0.000990247
0.000987954
0.000985614
0.000983236
0.000980834
0.000978416
0.000975992
0.000973568
0.000971153
0.000968752
0.000966369
0.000964008
0.000961657
0.000959236
0.00101163
0.00101134
0.00101103
0.00101072
0.00101041
0.0010101
0.00100977
0.00100939
0.00100897
0.00100849
0.00100793
0.0010073
0.00100658
0.00100577
0.00100487
0.00100388
0.00100281
0.00100167
0.00100045
0.000999162
0.00099782
0.000996426
0.000994987
0.000993512
0.000992005
0.000990473
0.000988922
0.000987357
0.000985782
0.000984203
0.00098262
0.000981024
0.000979334
0.00101163
0.00101133
0.00101104
0.00101073
0.00101043
0.00101014
0.00100984
0.00100953
0.00100921
0.00100886
0.0010085
0.0010081
0.00100766
0.00100719
0.00100667
0.00100611
0.0010055
0.00100485
0.00100416
0.00100342
0.00100264
0.00100183
0.00100098
0.00100009
0.000999183
0.000998247
0.000997288
0.000996311
0.000995318
0.000994311
0.000993291
0.000992247
0.000991099
0.00101163
0.00101133
0.00101104
0.00101074
0.00101045
0.00101016
0.00100987
0.00100958
0.00100929
0.00100899
0.00100869
0.00100837
0.00100804
0.0010077
0.00100734
0.00100696
0.00100656
0.00100614
0.0010057
0.00100524
0.00100475
0.00100424
0.00100372
0.00100317
0.0010026
0.00100202
0.00100141
0.0010008
0.00100017
0.000999531
0.000998878
0.000998201
0.00099742
0.00101163
0.00101133
0.00101104
0.00101075
0.00101046
0.00101018
0.00100989
0.00100961
0.00100933
0.00100905
0.00100877
0.00100848
0.0010082
0.00100791
0.00100761
0.00100731
0.00100701
0.00100669
0.00100637
0.00100604
0.0010057
0.00100535
0.00100499
0.00100462
0.00100424
0.00100385
0.00100346
0.00100305
0.00100264
0.00100221
0.00100178
0.00100133
0.00100078
0.00101163
0.00101133
0.00101105
0.00101075
0.00101047
0.00101019
0.00100991
0.00100963
0.00100936
0.00100908
0.00100881
0.00100854
0.00100827
0.001008
0.00100773
0.00100746
0.00100719
0.00100692
0.00100665
0.00100637
0.00100609
0.00100581
0.00100553
0.00100524
0.00100495
0.00100466
0.00100437
0.00100407
0.00100376
0.00100346
0.00100315
0.00100282
0.00100239
0.00101163
0.00101133
0.00101105
0.00101076
0.00101048
0.0010102
0.00100992
0.00100965
0.00100938
0.00100911
0.00100884
0.00100858
0.00100831
0.00100805
0.0010078
0.00100754
0.00100729
0.00100704
0.00100679
0.00100654
0.00100629
0.00100604
0.0010058
0.00100555
0.00100531
0.00100507
0.00100482
0.00100458
0.00100434
0.00100409
0.00100385
0.00100358
0.00100323
0.00101163
0.00101133
0.00101105
0.00101076
0.00101048
0.00101021
0.00100994
0.00100966
0.0010094
0.00100913
0.00100887
0.00100861
0.00100835
0.00100809
0.00100784
0.00100759
0.00100735
0.0010071
0.00100687
0.00100663
0.00100639
0.00100616
0.00100593
0.0010057
0.00100548
0.00100526
0.00100504
0.00100482
0.0010046
0.00100439
0.00100417
0.00100394
0.00100362
0.00101163
0.00101133
0.00101105
0.00101077
0.00101049
0.00101022
0.00100994
0.00100968
0.00100941
0.00100915
0.00100889
0.00100863
0.00100838
0.00100812
0.00100788
0.00100763
0.00100739
0.00100716
0.00100692
0.00100669
0.00100647
0.00100624
0.00100602
0.0010058
0.00100559
0.00100538
0.00100517
0.00100497
0.00100477
0.00100457
0.00100437
0.00100416
0.00100386
0.00101163
0.00101133
0.00101105
0.00101077
0.00101049
0.00101022
0.00100995
0.00100969
0.00100942
0.00100916
0.0010089
0.00100865
0.0010084
0.00100815
0.00100791
0.00100767
0.00100743
0.0010072
0.00100697
0.00100674
0.00100652
0.0010063
0.00100608
0.00100587
0.00100566
0.00100546
0.00100526
0.00100506
0.00100487
0.00100467
0.00100448
0.00100428
0.00100399
0.00101163
0.00101133
0.00101105
0.00101077
0.0010105
0.00101023
0.00100996
0.00100969
0.00100943
0.00100917
0.00100892
0.00100867
0.00100842
0.00100817
0.00100793
0.00100769
0.00100746
0.00100723
0.001007
0.00100678
0.00100656
0.00100635
0.00100614
0.00100593
0.00100572
0.00100552
0.00100533
0.00100513
0.00100494
0.00100476
0.00100457
0.00100438
0.00100409
0.00101163
0.00101133
0.00101105
0.00101077
0.0010105
0.00101023
0.00100996
0.0010097
0.00100944
0.00100918
0.00100893
0.00100868
0.00100843
0.00100819
0.00100795
0.00100772
0.00100749
0.00100726
0.00100703
0.00100681
0.0010066
0.00100639
0.00100618
0.00100597
0.00100577
0.00100557
0.00100538
0.00100519
0.001005
0.00100482
0.00100464
0.00100445
0.00100416
0.00101163
0.00101133
0.00101105
0.00101077
0.0010105
0.00101023
0.00100997
0.00100971
0.00100945
0.00100919
0.00100894
0.00100869
0.00100845
0.00100821
0.00100797
0.00100774
0.00100751
0.00100728
0.00100706
0.00100684
0.00100663
0.00100642
0.00100621
0.00100601
0.00100581
0.00100561
0.00100542
0.00100524
0.00100505
0.00100487
0.00100469
0.0010045
0.00100422
0.00101163
0.00101133
0.00101105
0.00101077
0.0010105
0.00101023
0.00100997
0.00100971
0.00100945
0.0010092
0.00100895
0.0010087
0.00100846
0.00100822
0.00100798
0.00100775
0.00100753
0.0010073
0.00100708
0.00100687
0.00100665
0.00100644
0.00100624
0.00100604
0.00100584
0.00100565
0.00100546
0.00100527
0.00100509
0.00100491
0.00100474
0.00100455
0.00100427
0.00101163
0.00101133
0.00101105
0.00101077
0.0010105
0.00101024
0.00100997
0.00100971
0.00100946
0.0010092
0.00100895
0.00100871
0.00100847
0.00100823
0.00100799
0.00100776
0.00100754
0.00100731
0.00100709
0.00100688
0.00100667
0.00100646
0.00100626
0.00100606
0.00100586
0.00100567
0.00100548
0.00100529
0.00100511
0.00100493
0.00100476
0.00100457
0.00100429
0.00101163
0.00101133
0.00101105
0.00101077
0.0010105
0.00101024
0.00100997
0.00100971
0.00100946
0.0010092
0.00100895
0.00100871
0.00100847
0.00100823
0.001008
0.00100777
0.00100754
0.00100732
0.0010071
0.00100689
0.00100668
0.00100647
0.00100627
0.00100607
0.00100588
0.00100569
0.0010055
0.00100532
0.00100514
0.00100496
0.00100478
0.0010046
0.00100432
0.00101163
0.00101133
0.00101105
0.00101077
0.0010105
0.00101024
0.00100997
0.00100971
0.00100946
0.0010092
0.00100896
0.00100871
0.00100847
0.00100823
0.001008
0.00100777
0.00100754
0.00100732
0.0010071
0.00100688
0.00100667
0.00100646
0.00100626
0.00100606
0.00100586
0.00100567
0.00100548
0.0010053
0.00100512
0.00100494
0.00100476
0.00100457
0.0010043
0.00101163
0.00101133
0.00101105
0.00101077
0.0010105
0.00101024
0.00100997
0.00100971
0.00100946
0.0010092
0.00100895
0.00100871
0.00100847
0.00100823
0.00100799
0.00100777
0.00100754
0.00100732
0.0010071
0.00100689
0.00100668
0.00100647
0.00100627
0.00100607
0.00100587
0.00100568
0.0010055
0.00100531
0.00100513
0.00100496
0.00100478
0.00100459
0.00100432
0.00101163
0.00101133
0.00101105
0.00101077
0.0010105
0.00101023
0.00100997
0.00100971
0.00100945
0.0010092
0.00100894
0.0010087
0.00100845
0.00100821
0.00100798
0.00100774
0.00100751
0.00100729
0.00100706
0.00100685
0.00100663
0.00100642
0.00100621
0.00100601
0.00100581
0.00100562
0.00100543
0.00100524
0.00100506
0.00100487
0.0010047
0.00100451
0.00100422
0.00101163
0.00101133
0.00101105
0.00101077
0.0010105
0.00101023
0.00100997
0.0010097
0.00100945
0.00100919
0.00100894
0.00100869
0.00100845
0.00100821
0.00100798
0.00100775
0.00100752
0.0010073
0.00100708
0.00100686
0.00100665
0.00100644
0.00100623
0.00100603
0.00100583
0.00100564
0.00100545
0.00100526
0.00100507
0.00100489
0.00100471
0.00100452
0.00100423
0.00101163
0.00101133
0.00101105
0.00101077
0.0010105
0.00101023
0.00100996
0.00100969
0.00100943
0.00100917
0.00100891
0.00100866
0.00100841
0.00100816
0.00100791
0.00100767
0.00100744
0.0010072
0.00100697
0.00100675
0.00100652
0.0010063
0.00100609
0.00100587
0.00100566
0.00100546
0.00100526
0.00100506
0.00100486
0.00100467
0.00100447
0.00100427
0.00100397
0.00101163
0.00101133
0.00101105
0.00101077
0.00101049
0.00101022
0.00100996
0.0010097
0.00100944
0.00100918
0.00100893
0.00100868
0.00100844
0.00100819
0.00100795
0.00100771
0.00100747
0.00100723
0.001007
0.00100676
0.00100653
0.0010063
0.00100607
0.00100584
0.00100561
0.00100539
0.00100516
0.00100494
0.00100472
0.0010045
0.00100427
0.00100403
0.0010037
0.00101163
0.00101133
0.00101105
0.00101077
0.00101048
0.0010102
0.00100992
0.00100964
0.00100935
0.00100907
0.00100879
0.00100851
0.00100822
0.00100794
0.00100766
0.00100738
0.0010071
0.00100681
0.00100653
0.00100624
0.00100595
0.00100566
0.00100536
0.00100507
0.00100477
0.00100447
0.00100417
0.00100386
0.00100356
0.00100325
0.00100294
0.00100262
0.00100219
0.00101163
0.00101134
0.00101105
0.00101077
0.00101049
0.00101021
0.00100993
0.00100964
0.00100934
0.00100903
0.00100871
0.00100837
0.00100802
0.00100766
0.00100729
0.00100689
0.00100648
0.00100606
0.00100562
0.00100516
0.00100469
0.00100421
0.00100371
0.00100321
0.00100269
0.00100216
0.00100162
0.00100107
0.00100051
0.000999952
0.000999381
0.000998789
0.000998098
0.00101163
0.00101134
0.00101103
0.00101069
0.00101033
0.00100994
0.00100951
0.00100904
0.00100853
0.00100796
0.00100734
0.00100667
0.00100594
0.00100515
0.00100431
0.00100342
0.00100248
0.0010015
0.00100047
0.000999416
0.000998327
0.00099721
0.00099607
0.000994911
0.000993736
0.000992548
0.000991351
0.000990147
0.00098894
0.000987731
0.000986521
0.000985299
0.000983986
0.00101164
0.00101133
0.00101094
0.00101042
0.00100973
0.00100883
0.0010077
0.00100635
0.00100478
0.001003
0.00100104
0.00099891
0.000996633
0.00099423
0.000991722
0.000989128
0.000986467
0.000983754
0.000981005
0.000978232
0.000975447
0.00097266
0.000969881
0.000967115
0.000964368
0.000961647
0.000958956
0.0009563
0.000953682
0.000951105
0.000948568
0.00094606
0.000943507
0.00101162
0.0010106
0.00100853
0.00100543
0.0010014
0.000996513
0.00099091
0.000984748
0.000978176
0.000971316
0.000964275
0.00095714
0.000949982
0.00094286
0.000935816
0.000928885
0.000922092
0.000915456
0.00090899
0.000902702
0.000896598
0.00089068
0.000884949
0.000879404
0.000874041
0.000868858
0.00086385
0.000859012
0.000854341
0.00084983
0.000845473
0.000841254
0.000837098
0.00100895
0.000995379
0.000976042
0.000953695
0.000930321
0.000907094
0.000884659
0.000863331
0.000843232
0.000824393
0.000806788
0.000790359
0.000775033
0.00076073
0.00074737
0.000734875
0.000723175
0.000712202
0.000701898
0.000692207
0.000683079
0.000674471
0.000666341
0.000658653
0.000651373
0.000644473
0.000637925
0.000631703
0.000625787
0.000620155
0.000614787
0.000609663
0.000604722
0.000892788
0.000742254
0.0006492
0.000585538
0.000538562
0.000502133
0.000472877
0.000448744
0.000428406
0.000410968
0.000395808
0.000382475
0.000370634
0.000360033
0.000350473
0.000341801
0.000333893
0.000326649
0.000319985
0.000313835
0.000308139
0.00030285
0.000297926
0.000293332
0.000289036
0.000285011
0.000281234
0.000277683
0.000274341
0.00027119
0.000268215
0.000265405
0.000262747
0.000126722
0.000129956
0.000133005
0.000135891
0.000138628
0.000141229
0.000143705
0.000146063
0.000148309
0.00015045
0.000152489
0.000154433
0.000156285
0.00015805
0.000159731
0.000161333
0.000162859
0.000164312
0.000165695
0.000167013
0.000168267
0.000169461
0.000170597
0.000171678
0.000172707
0.000173686
0.000174618
0.000175504
0.000176348
0.00017715
0.000177914
0.000178641
0.000179337
8.50599e-05
0.000114039
0.000143503
0.000172782
0.000199072
0.000222129
0.000242799
0.000262112
0.000280998
0.000300096
0.0003197
0.00033985
0.00036047
0.000381554
0.000403127
0.000425195
0.000447718
0.000470805
0.000494414
0.000518635
0.000543536
0.000569152
0.000595511
0.000622656
0.000650677
0.000679737
0.000710098
0.000742123
0.000776286
0.000813192
0.000853573
0.000898165
0.000947398
0.00100093
0.00105719
0.00111327
0.00116526
0.0012092
0.00124225
0.00126363
0.00127499
0.00128007
0.00128243
0.00128633
0.00129403
0.00130552
0.00132012
0.00133721
0.00135549
0.00137345
0.00138931
0.00140084
0.00140543
0.0014003
0.00138298
0.0013518
0.00130626
0.00124727
0.00117726
0.00110013
0.0010211
0.000946368
0.000882708
0.000837067
0.000817373
0.000839439
0.000959644
0.00135674
0.00230188
0.00364789
0.00475459
0.0053578
0.00558719
0.00560521
0.00551332
0.00536666
0.00519447
0.00501227
0.00482826
0.00464673
0.00446986
0.00429865
0.00413354
0.00397462
0.00382184
0.00367506
0.00353411
0.00339881
0.00326897
0.00314442
0.00302497
0.00291046
0.00280076
0.00269579
0.00259546
0.00249997
0.00240942
0.00232552
0.00225156
0.0022346
7.83373e-05
8.46435e-05
9.49627e-05
0.00010982
0.000128383
0.000149559
0.000172099
0.000194684
0.000216768
0.000238197
0.000259039
0.000279452
0.000299632
0.000319797
0.000340168
0.000360922
0.000382171
0.000404014
0.000426602
0.000449903
0.00047389
0.000498533
0.000523804
0.000549687
0.000576191
0.000603383
0.000631418
0.000660581
0.00069132
0.000724282
0.00076031
0.000800348
0.000845165
0.00089492
0.000948682
0.00100415
0.00105784
0.00110579
0.0011447
0.00117296
0.00119116
0.00120191
0.00120817
0.00121328
0.00121932
0.00122667
0.00123629
0.00124775
0.00126018
0.00127235
0.00128266
0.00128905
0.00128919
0.00128069
0.00126152
0.0012304
0.0011872
0.00113309
0.00107063
0.00100367
0.000937162
0.000876809
0.000828622
0.000798739
0.000794436
0.000831637
0.000970685
0.00140471
0.00240121
0.00374101
0.00478419
0.00533413
0.00553678
0.00554539
0.00545273
0.00530903
0.00514108
0.00496322
0.00478317
0.00460506
0.00443105
0.00426223
0.00409909
0.00394184
0.00379049
0.00364499
0.00350522
0.00337105
0.00324232
0.00311889
0.00300059
0.0028873
0.00277888
0.0026753
0.00257649
0.00248265
0.00239394
0.00231196
0.00223992
0.00221936
0.000137577
0.00013715
0.000137595
0.000138888
0.000140909
0.000143573
0.000147568
0.000154426
0.000164401
0.000177403
0.000192711
0.00020983
0.000228269
0.000247606
0.000267549
0.000287947
0.000308721
0.000329877
0.000351657
0.000374102
0.000397196
0.000420899
0.000445157
0.000469918
0.000495144
0.000520839
0.000547083
0.000574088
0.000602243
0.000632156
0.000664671
0.000700792
0.000741468
0.000787217
0.000837656
0.000891141
0.000944754
0.000994822
0.00103787
0.00107168
0.00109592
0.00111208
0.00112269
0.0011302
0.00113614
0.00114219
0.00114924
0.00115726
0.00116576
0.00117379
0.00118
0.00118265
0.00117975
0.00116935
0.00114984
0.00112034
0.00108104
0.00103329
0.000979702
0.000923986
0.000870738
0.00082509
0.000792374
0.000777989
0.00078843
0.00083888
0.000990121
0.00143894
0.00244285
0.00375155
0.0047489
0.00527238
0.00546694
0.00547702
0.00538979
0.00525277
0.00509148
0.00491977
0.00474517
0.00457181
0.00440188
0.00423656
0.00407643
0.00392177
0.00377268
0.00362916
0.00349115
0.00335858
0.00323134
0.00310931
0.00299238
0.00288044
0.0027734
0.00267123
0.00257392
0.00248168
0.00239471
0.00231453
0.00224425
0.00222001
0.000280937
0.000276738
0.000272936
0.000269565
0.000266509
0.000263264
0.000259214
0.000254084
0.000248006
0.000241615
0.000237279
0.000235612
0.000236766
0.000240806
0.000247662
0.00025716
0.000269048
0.000283026
0.000298872
0.000316394
0.000335336
0.000355451
0.000376525
0.000398387
0.00042091
0.000444025
0.000467745
0.000492203
0.000517698
0.000544743
0.00057408
0.000606635
0.000643352
0.000684898
0.000731254
0.000781334
0.000832852
0.000882616
0.0009273
0.000964395
0.000992924
0.00101352
0.00102804
0.00103842
0.00104585
0.00105235
0.00105874
0.00106527
0.00107171
0.00107739
0.00108123
0.0010818
0.0010775
0.00106679
0.00104849
0.00102211
0.000988105
0.000947984
0.000904316
0.000860605
0.000821049
0.000790236
0.000772845
0.000773502
0.000797659
0.000858877
0.00101513
0.00145685
0.00242777
0.00368474
0.00465161
0.00517185
0.00537547
0.00539768
0.0053223
0.00519583
0.00504365
0.00487972
0.00471179
0.00454416
0.0043792
0.00421822
0.00406191
0.00391062
0.00376452
0.00362367
0.00348805
0.00335763
0.00323235
0.00311213
0.00299688
0.00288654
0.00278105
0.00268042
0.00258467
0.00249404
0.00240874
0.00233023
0.00226154
0.00223363
0.000435954
0.000430213
0.000424607
0.000419278
0.000414288
0.000409604
0.00040505
0.000400276
0.00039478
0.000388039
0.00037991
0.000370866
0.000361567
0.000352498
0.000344225
0.000337361
0.000332474
0.000329956
0.000330124
0.00033312
0.000338871
0.000347193
0.000357842
0.000370553
0.000385071
0.000401175
0.000418719
0.000437667
0.000458144
0.000480468
0.000505171
0.000532964
0.000564617
0.000600738
0.00064145
0.000686057
0.000732846
0.000779222
0.000822245
0.000859439
0.000889477
0.000912396
0.00092946
0.000942038
0.000951416
0.000959192
0.000966192
0.000972769
0.000978832
0.000983882
0.000987066
0.000987264
0.000983237
0.000973848
0.000958322
0.000936516
0.00090911
0.000877706
0.000844799
0.000813642
0.000788022
0.000771978
0.000769486
0.000784225
0.000820214
0.000888508
0.00104111
0.00145335
0.00235515
0.00354254
0.00448997
0.00502668
0.00525591
0.00530183
0.00524592
0.00513502
0.00499528
0.0048414
0.00468169
0.00452091
0.00436176
0.00420581
0.0040539
0.00390652
0.00376392
0.00362621
0.00349344
0.00336559
0.00324265
0.00312456
0.00301128
0.00290276
0.00279899
0.0027
0.00260584
0.00251679
0.00243308
0.00235608
0.00228875
0.00225722
0.000579069
0.000572657
0.0005663
0.000560054
0.000553989
0.000548147
0.000542569
0.000537261
0.00053213
0.00052697
0.000521507
0.000515496
0.000508893
0.000501557
0.000493439
0.000484616
0.000475306
0.000465826
0.000456639
0.000448263
0.000441148
0.000435664
0.000432084
0.000430602
0.000431334
0.000434344
0.00043967
0.000447365
0.000457533
0.000470378
0.000486224
0.000505508
0.000528706
0.000556196
0.000588034
0.000623706
0.000661943
0.000700742
0.000737707
0.000770654
0.000798206
0.000820095
0.00083726
0.000850165
0.000860394
0.000869049
0.000876852
0.000884127
0.00089081
0.000896487
0.000900455
0.000901821
0.000899641
0.000893123
0.000881839
0.000865935
0.000846278
0.000824511
0.000803011
0.000784741
0.000773036
0.0007713
0.000782641
0.000809502
0.000854112
0.000924419
0.0010639
0.00142551
0.00222632
0.00332649
0.00425995
0.00482881
0.00509936
0.00518129
0.00515376
0.00506472
0.00494189
0.00480126
0.00465209
0.00449986
0.00434778
0.00419778
0.00405099
0.00390808
0.00376944
0.00363527
0.00350569
0.00338074
0.00326043
0.00314473
0.00303363
0.00292711
0.00282518
0.0027279
0.00263536
0.00254784
0.00246559
0.00238993
0.0023237
0.00228858
0.000701113
0.000694542
0.000688065
0.000681643
0.000675352
0.000669219
0.000663275
0.000657564
0.000652107
0.000646875
0.000641815
0.000636846
0.000631911
0.000626911
0.000621729
0.000616242
0.000610345
0.000603954
0.000597026
0.000589626
0.000581862
0.0005739
0.000565961
0.000558315
0.000551269
0.00054516
0.000540341
0.000537184
0.000536078
0.000537432
0.000541669
0.000549215
0.000560447
0.000575615
0.000594716
0.00061735
0.000642598
0.000669006
0.000694794
0.000718261
0.000738265
0.000754582
0.000767854
0.000777853
0.000786363
0.000794144
0.000801691
0.000809182
0.000816479
0.000823162
0.000828593
0.000832025
0.000832729
0.000830173
0.000824192
0.000815144
0.000804005
0.000792392
0.000782486
0.000776882
0.000778342
0.000789467
0.000812261
0.000847724
0.000896246
0.000962678
0.00108062
0.00137526
0.00204854
0.00304036
0.00395738
0.00456925
0.00489572
0.00502673
0.00503774
0.00497808
0.00487772
0.00475446
0.00461895
0.00447762
0.0043344
0.00419171
0.00405107
0.00391342
0.00377935
0.0036492
0.00352319
0.00340144
0.00328401
0.00317092
0.00306219
0.00295782
0.00285784
0.00276234
0.00267143
0.0025854
0.00250451
0.00243002
0.00236464
0.00232589
0.000798208
0.000792089
0.000786035
0.000780014
0.000774049
0.000768153
0.000762345
0.000756659
0.000751136
0.000745802
0.000740676
0.000735766
0.000731072
0.000726589
0.000722292
0.00071815
0.000714114
0.00071012
0.000706084
0.00070193
0.00069758
0.000692957
0.000688007
0.000682735
0.000677195
0.000671505
0.000665852
0.0006605
0.000655788
0.000652124
0.00064996
0.00064975
0.000651897
0.000656678
0.000664158
0.000674103
0.000685907
0.000698599
0.000710966
0.00072186
0.000730554
0.000736988
0.00074172
0.000745259
0.000748684
0.000752673
0.00075759
0.000763476
0.000770077
0.000776906
0.000783323
0.000788645
0.000792276
0.000793844
0.000793345
0.000791236
0.000788492
0.000786582
0.000787375
0.000792949
0.000805329
0.000826133
0.000856161
0.000895078
0.000941888
0.000999
0.00109021
0.00131026
0.00183814
0.00269502
0.00358072
0.0042387
0.00463335
0.00482712
0.00488838
0.00486721
0.00479613
0.00469539
0.00457744
0.00445003
0.00431801
0.00418447
0.00405141
0.00392013
0.00379147
0.003666
0.00354408
0.00342593
0.00331169
0.00320145
0.00309527
0.00299319
0.00289528
0.00280164
0.00271239
0.00262784
0.00254824
0.00247478
0.00241009
0.00236765
0.00087093
0.000865659
0.000860405
0.000855166
0.000849923
0.000844699
0.00083951
0.000834378
0.000829328
0.000824383
0.000819563
0.000814886
0.000810372
0.000806041
0.000801914
0.000798009
0.000794341
0.000790911
0.000787712
0.000784714
0.000781889
0.000779186
0.000776547
0.000773919
0.000771257
0.000768539
0.000765777
0.000763024
0.000760389
0.000758044
0.000756219
0.000755183
0.000755201
0.000756477
0.000759085
0.000762897
0.000767515
0.000772254
0.000776213
0.000778495
0.000778535
0.000776365
0.000772645
0.000768371
0.000764677
0.000762449
0.000762184
0.000763983
0.000767602
0.000772549
0.000778195
0.0007839
0.000789134
0.000793602
0.000797339
0.000800771
0.000804732
0.000810406
0.000819201
0.000832539
0.000851601
0.000877023
0.000908599
0.000945159
0.000985107
0.00102937
0.00109328
0.00124191
0.00162051
0.00231407
0.00313732
0.00383113
0.00430031
0.00456959
0.00469412
0.00472241
0.00468918
0.00461744
0.004522
0.00441231
0.00429445
0.00417239
0.00404876
0.00392531
0.00380324
0.00368335
0.00356621
0.00345221
0.00334158
0.00323452
0.00313113
0.00303154
0.00293583
0.00284414
0.0027566
0.00267355
0.00259522
0.00252273
0.00245861
0.00241249
0.00092189
0.000917687
0.00091346
0.000909213
0.000904936
0.000900632
0.000896319
0.000892006
0.000887708
0.000883438
0.000879213
0.000875048
0.000870962
0.000866979
0.000863125
0.000859429
0.000855918
0.00085262
0.000849556
0.00084674
0.000844191
0.000841903
0.00083987
0.000838083
0.000836532
0.000835207
0.000834111
0.000833227
0.000832569
0.000832185
0.000832156
0.000832587
0.000833593
0.000835278
0.000837688
0.000840764
0.000844285
0.000847818
0.000850705
0.000852155
0.000851441
0.000848188
0.000842624
0.000835555
0.000828134
0.000821513
0.000816572
0.00081379
0.000813247
0.000814703
0.00081772
0.000821798
0.000826503
0.000831581
0.000837027
0.000843152
0.000850559
0.000860053
0.000872494
0.000888626
0.000908878
0.000933168
0.000960757
0.000990282
0.00102024
0.00105086
0.00109114
0.00118098
0.00142448
0.00193562
0.00265061
0.00335035
0.00388832
0.00424114
0.00444157
0.00453176
0.00454688
0.00451244
0.00444587
0.00435878
0.00425888
0.00415127
0.00403942
0.00392569
0.0038117
0.0036986
0.00358721
0.0034781
0.00337169
0.00326825
0.00316803
0.00307118
0.00297787
0.00288827
0.00280254
0.00272103
0.00264398
0.00257244
0.00250886
0.00245916
0.000955758
0.000952608
0.000949411
0.000946168
0.000942882
0.000939548
0.000936173
0.000932766
0.000929337
0.000925896
0.000922452
0.000919015
0.000915597
0.000912212
0.000908879
0.000905619
0.000902454
0.000899407
0.000896505
0.000893773
0.000891243
0.000888937
0.000886875
0.000885076
0.000883558
0.000882339
0.000881435
0.000880862
0.000880635
0.000880778
0.000881323
0.000882314
0.000883803
0.000885842
0.000888472
0.000891695
0.000895447
0.000899563
0.000903716
0.000907426
0.000909988
0.000910636
0.000909112
0.000905612
0.000900749
0.000895397
0.000890452
0.000886628
0.000884348
0.000883727
0.000884646
0.000886854
0.000890091
0.000894169
0.000899069
0.000905076
0.000912564
0.000921951
0.000933621
0.000947824
0.000964545
0.000983403
0.0010036
0.00102403
0.0010436
0.00106233
0.00108499
0.00113333
0.00127174
0.00160506
0.00216458
0.00281809
0.00339951
0.0038329
0.0041176
0.00428176
0.00435709
0.0043701
0.00434055
0.00428244
0.00420541
0.0041161
0.00401906
0.00391744
0.00381348
0.00370873
0.00360435
0.00350116
0.00339977
0.00330062
0.00320406
0.00311036
0.00301975
0.00293246
0.00284871
0.00276885
0.00269314
0.00262256
0.00255952
0.00250643
0.000976691
0.000974459
0.00097217
0.000969826
0.00096743
0.000964985
0.000962485
0.000959938
0.000957351
0.000954728
0.000952075
0.000949395
0.000946697
0.00094399
0.000941284
0.000938595
0.000935937
0.000933327
0.000930784
0.000928329
0.000925983
0.000923776
0.000921729
0.00091987
0.000918227
0.000916828
0.000915691
0.000914842
0.00091431
0.000914122
0.000914307
0.000914897
0.000915925
0.000917428
0.000919445
0.000922008
0.000925139
0.00092884
0.000932978
0.000937262
0.000941407
0.000945037
0.000947802
0.000949488
0.0009501
0.000949866
0.000949173
0.000948456
0.000948086
0.000948311
0.000949241
0.000950887
0.000953232
0.000956286
0.000960156
0.000965045
0.000970884
0.000977863
0.000986185
0.000995938
0.00100701
0.00101903
0.00103143
0.00104348
0.00105452
0.00106451
0.00107576
0.0010989
0.00116822
0.00135695
0.00173749
0.00228032
0.00285472
0.00334693
0.00371388
0.00395978
0.00410651
0.00417818
0.00419548
0.0041744
0.00412668
0.0040607
0.00398243
0.00389607
0.00380463
0.00371026
0.00361453
0.0035186
0.00342332
0.00332934
0.00323716
0.00314718
0.00305973
0.00297513
0.00289362
0.00281562
0.00274137
0.00267185
0.00260939
0.00255305
0.000989087
0.000987557
0.000985975
0.000984341
0.000982657
0.000980924
0.00097914
0.000977308
0.000975432
0.000973515
0.000971559
0.000969566
0.000967541
0.000965489
0.000963414
0.000961326
0.000959231
0.000957135
0.000955052
0.000952994
0.000950979
0.000949025
0.000947153
0.000945383
0.000943739
0.000942245
0.000940927
0.000939809
0.000938918
0.000938278
0.000937918
0.000937861
0.000938137
0.000938774
0.000939804
0.000941264
0.000943208
0.000945642
0.000948492
0.00095173
0.000955317