/*--------------------------------*- C++ -*----------------------------------*\
| =========                 |                                                 |
| \\      /  F ield         | OpenFOAM: The Open Source CFD Toolbox           |
|  \\    /   O peration     | Version:  4.1                                   |
|   \\  /    A nd           | Web:      www.OpenFOAM.org                      |
|    \\/     M anipulation  |                                                 |
\*---------------------------------------------------------------------------*/
FoamFile
{
    version     2.0;
    format      ascii;
    class       volScalarField;
    location    "400";
    object      p;
}
// * * * * * * * * * * * * * * * * * * * * * * * * * * * * * * * * * * * * * //

dimensions      [0 2 -2 0 0 0 0];

internalField   nonuniform List<scalar> 
6820
(
-8.70773
-8.96529
-9.06291
-9.08363
-9.11688
-9.16221
-9.20385
-9.24003
-9.27377
-9.30591
-9.336
-9.36392
-9.38992
-9.41426
-9.43713
-9.45869
-9.4791
-9.49851
-9.51706
-9.53486
-9.55203
-9.56866
-9.58484
-9.60064
-9.61614
-9.63141
-9.64654
-9.66158
-9.67669
-9.69178
-9.70794
-9.72293
-9.75462
-8.82052
-8.98657
-9.0653
-9.08619
-9.11314
-9.14841
-9.18004
-9.20698
-9.23231
-9.25707
-9.28097
-9.30387
-9.32595
-9.34735
-9.36813
-9.38831
-9.40796
-9.42711
-9.44582
-9.46411
-9.48204
-9.49964
-9.51695
-9.534
-9.55084
-9.56751
-9.58405
-9.60051
-9.61696
-9.63342
-9.65013
-9.66695
-9.68368
-8.87677
-8.98148
-9.05951
-9.09143
-9.11965
-9.15286
-9.18333
-9.20967
-9.23431
-9.25826
-9.28128
-9.30327
-9.32437
-9.3447
-9.36434
-9.38333
-9.40174
-9.41963
-9.43704
-9.45404
-9.47066
-9.48695
-9.50295
-9.51871
-9.53426
-9.54965
-9.56491
-9.58009
-9.59524
-9.61032
-9.62547
-9.64013
-9.65466
-8.92656
-9.00155
-9.07421
-9.10938
-9.13686
-9.16845
-9.19849
-9.22484
-9.24925
-9.27269
-9.29507
-9.31633
-9.33663
-9.35613
-9.37491
-9.39307
-9.41065
-9.42773
-9.44438
-9.46064
-9.47655
-9.49217
-9.50752
-9.52266
-9.53761
-9.55241
-9.5671
-9.58169
-9.59621
-9.61064
-9.62497
-9.63898
-9.65236
-8.96805
-9.01928
-9.0795
-9.11436
-9.14162
-9.17188
-9.20113
-9.22717
-9.25133
-9.27455
-9.29683
-9.31812
-9.33854
-9.35821
-9.37722
-9.39562
-9.41346
-9.4308
-9.44769
-9.46417
-9.48029
-9.49608
-9.51158
-9.52683
-9.54185
-9.55669
-9.57136
-9.58589
-9.60029
-9.61454
-9.62861
-9.6424
-9.65569
-9.00284
-9.03869
-9.08954
-9.12483
-9.1525
-9.18156
-9.20992
-9.23565
-9.25961
-9.28263
-9.30471
-9.32581
-9.34603
-9.36548
-9.38425
-9.40239
-9.41996
-9.43702
-9.45362
-9.46981
-9.48563
-9.50112
-9.51632
-9.53127
-9.54599
-9.56052
-9.57487
-9.58906
-9.6031
-9.61697
-9.63066
-9.64411
-9.65723
-9.03268
-9.05824
-9.10014
-9.13332
-9.1598
-9.18691
-9.21382
-9.23876
-9.26214
-9.28462
-9.30625
-9.32701
-9.34698
-9.36625
-9.38489
-9.40296
-9.42049
-9.43755
-9.45418
-9.47041
-9.48629
-9.50184
-9.5171
-9.53209
-9.54685
-9.56139
-9.57573
-9.58988
-9.60386
-9.61764
-9.63122
-9.64457
-9.65766
-9.05862
-9.0772
-9.11162
-9.14247
-9.1682
-9.19409
-9.22
-9.24442
-9.26744
-9.2896
-9.31097
-9.33154
-9.35135
-9.37048
-9.389
-9.40694
-9.42436
-9.44129
-9.45778
-9.47386
-9.48958
-9.50496
-9.52003
-9.53483
-9.54937
-9.56368
-9.57778
-9.59167
-9.60535
-9.61884
-9.6321
-9.64515
-9.65796
-9.08147
-9.0953
-9.1236
-9.15171
-9.17617
-9.20048
-9.22496
-9.24838
-9.27066
-9.29217
-9.313
-9.33311
-9.35253
-9.37134
-9.38958
-9.40728
-9.4245
-9.44126
-9.45761
-9.47357
-9.48918
-9.50447
-9.51945
-9.53416
-9.54862
-9.56283
-9.57682
-9.59059
-9.60415
-9.61749
-9.6306
-9.64351
-9.65619
-9.10184
-9.11238
-9.13574
-9.16105
-9.18414
-9.20708
-9.23034
-9.25296
-9.27468
-9.29572
-9.31616
-9.33597
-9.35516
-9.37377
-9.39185
-9.40942
-9.42652
-9.44317
-9.4594
-9.47526
-9.49075
-9.50591
-9.52077
-9.53533
-9.54962
-9.56366
-9.57745
-9.591
-9.60433
-9.61741
-9.63027
-9.64289
-9.65526
-9.12018
-9.12838
-9.1478
-9.17044
-9.19204
-9.21361
-9.23558
-9.25721
-9.27816
-9.29855
-9.31841
-9.33773
-9.3565
-9.37475
-9.3925
-9.40978
-9.42662
-9.44303
-9.45905
-9.4747
-9.49001
-9.50499
-9.51966
-9.53405
-9.54817
-9.56202
-9.57563
-9.58899
-9.60212
-9.615
-9.62764
-9.64005
-9.65223
-9.13679
-9.1433
-9.15959
-9.17976
-9.19985
-9.2201
-9.24085
-9.26153
-9.28175
-9.30154
-9.32091
-9.33982
-9.35826
-9.37622
-9.39374
-9.41081
-9.42747
-9.44372
-9.4596
-9.47511
-9.49028
-9.50513
-9.51966
-9.53391
-9.54787
-9.56156
-9.57498
-9.58815
-9.60106
-9.61372
-9.62612
-9.63827
-9.65014
-9.15192
-9.15718
-9.17097
-9.18894
-9.20752
-9.2265
-9.24608
-9.26579
-9.28524
-9.30437
-9.32317
-9.34158
-9.35958
-9.37717
-9.39434
-9.41111
-9.42748
-9.44347
-9.4591
-9.47438
-9.48933
-9.50395
-9.51827
-9.53229
-9.54603
-9.5595
-9.57269
-9.58562
-9.59829
-9.6107
-9.62285
-9.63474
-9.64637
-9.16575
-9.17005
-9.18186
-9.19789
-9.21502
-9.23279
-9.25125
-9.27001
-9.28869
-9.30717
-9.32541
-9.34335
-9.36095
-9.37818
-9.39505
-9.41154
-9.42768
-9.44345
-9.45888
-9.47397
-9.48874
-9.50319
-9.51734
-9.53118
-9.54474
-9.55802
-9.57102
-9.58375
-9.59621
-9.60839
-9.62031
-9.63194
-9.64329
-9.17841
-9.18197
-9.19217
-9.20652
-9.2223
-9.23892
-9.25632
-9.27416
-9.29208
-9.3099
-9.32757
-9.34501
-9.36216
-9.379
-9.39552
-9.4117
-9.42754
-9.44304
-9.4582
-9.47305
-9.48757
-9.50178
-9.51569
-9.5293
-9.54262
-9.55565
-9.5684
-9.58088
-9.59307
-9.60499
-9.61663
-9.62799
-9.63906
-9.18999
-9.19297
-9.20187
-9.21476
-9.22931
-9.24485
-9.26126
-9.27822
-9.29538
-9.31256
-9.32966
-9.3466
-9.36332
-9.37978
-9.39595
-9.41181
-9.42737
-9.44261
-9.45754
-9.47215
-9.48645
-9.50045
-9.51415
-9.52755
-9.54066
-9.55348
-9.56601
-9.57826
-9.59023
-9.60191
-9.6133
-9.62441
-9.63521
-9.20057
-9.20308
-9.21092
-9.22257
-9.236
-9.25053
-9.26602
-9.28215
-9.29858
-9.31513
-9.33167
-9.34811
-9.36439
-9.38045
-9.39626
-9.4118
-9.42705
-9.44201
-9.45666
-9.47101
-9.48506
-9.49881
-9.51226
-9.52541
-9.53827
-9.55084
-9.56311
-9.5751
-9.5868
-9.59821
-9.60933
-9.62016
-9.63069
-9.2102
-9.21232
-9.2193
-9.22989
-9.24231
-9.25593
-9.27056
-9.2859
-9.30165
-9.31758
-9.33357
-9.34953
-9.36537
-9.38104
-9.39649
-9.4117
-9.42665
-9.44132
-9.45571
-9.4698
-9.4836
-9.49711
-9.51032
-9.52324
-9.53587
-9.5482
-9.56024
-9.57199
-9.58344
-9.5946
-9.60547
-9.61604
-9.62631
-9.21891
-9.22073
-9.22699
-9.23667
-9.2482
-9.26099
-9.27483
-9.28945
-9.30454
-9.31989
-9.33536
-9.35084
-9.36625
-9.38153
-9.39663
-9.41151
-9.42615
-9.44053
-9.45463
-9.46846
-9.482
-9.49525
-9.50821
-9.52088
-9.53325
-9.54532
-9.5571
-9.56859
-9.57978
-9.59068
-9.60127
-9.61157
-9.62156
-9.22674
-9.22829
-9.23396
-9.24288
-9.25363
-9.26567
-9.2788
-9.29275
-9.30723
-9.32203
-9.33699
-9.35202
-9.36702
-9.38192
-9.39666
-9.41121
-9.42555
-9.43963
-9.45347
-9.46702
-9.48031
-9.4933
-9.50601
-9.51843
-9.53055
-9.54238
-9.55391
-9.56515
-9.57609
-9.58673
-9.59707
-9.60711
-9.61684
-9.23367
-9.23502
-9.24019
-9.24847
-9.25855
-9.26993
-9.28242
-9.29577
-9.30969
-9.32397
-9.33846
-9.35306
-9.36766
-9.38218
-9.39659
-9.41082
-9.42485
-9.43864
-9.4522
-9.46549
-9.47851
-9.49124
-9.5037
-9.51586
-9.52773
-9.5393
-9.55058
-9.56156
-9.57224
-9.58262
-9.5927
-9.60248
-9.61194
-9.23973
-9.2409
-9.24567
-9.25341
-9.26292
-9.27372
-9.28565
-9.29846
-9.31187
-9.32568
-9.33974
-9.35392
-9.36814
-9.38232
-9.39639
-9.41031
-9.42404
-9.43755
-9.45083
-9.46385
-9.47661
-9.48909
-9.50129
-9.5132
-9.52482
-9.53614
-9.54717
-9.55789
-9.56832
-9.57845
-9.58827
-9.59779
-9.60701
-9.24488
-9.24591
-9.25036
-9.25766
-9.26669
-9.27701
-9.28845
-9.30078
-9.31374
-9.32712
-9.34078
-9.35459
-9.36846
-9.3823
-9.39605
-9.40967
-9.42312
-9.43635
-9.44936
-9.46212
-9.47462
-9.48685
-9.4988
-9.51046
-9.52183
-9.5329
-9.54368
-9.55415
-9.56433
-9.57421
-9.58378
-9.59305
-9.60202
-9.24911
-9.25003
-9.25423
-9.26119
-9.26983
-9.27974
-9.29077
-9.3027
-9.31526
-9.32827
-9.34157
-9.35504
-9.36858
-9.38211
-9.39556
-9.40889
-9.42206
-9.43503
-9.44777
-9.46028
-9.47252
-9.4845
-9.49619
-9.5076
-9.51872
-9.52955
-9.54008
-9.5503
-9.56023
-9.56986
-9.57918
-9.5882
-9.59692
-9.25238
-9.25323
-9.25723
-9.26393
-9.27228
-9.28187
-9.29257
-9.30416
-9.31639
-9.32907
-9.34205
-9.35522
-9.36846
-9.38171
-9.39489
-9.40795
-9.42086
-9.43357
-9.44606
-9.45832
-9.47032
-9.48205
-9.49351
-9.50468
-9.51557
-9.52615
-9.53644
-9.54644
-9.55613
-9.56552
-9.57461
-9.5834
-9.59188
-9.25463
-9.25543
-9.25931
-9.26583
-9.27396
-9.28332
-9.29377
-9.3051
-9.31706
-9.32947
-9.34219
-9.35509
-9.36807
-9.38106
-9.39398
-9.40679
-9.41945
-9.43191
-9.44416
-9.45617
-9.46793
-9.47942
-9.49064
-9.50157
-9.5122
-9.52255
-9.53259
-9.54234
-9.55179
-9.56093
-9.56978
-9.57833
-9.58658
-9.25579
-9.25657
-9.26038
-9.2668
-9.27482
-9.28403
-9.29431
-9.30545
-9.31721
-9.32941
-9.34191
-9.35459
-9.36735
-9.38011
-9.39281
-9.4054
-9.41783
-9.43008
-9.4421
-9.45389
-9.46543
-9.47671
-9.4877
-9.49841
-9.50884
-9.51896
-9.52879
-9.53832
-9.54756
-9.55649
-9.56512
-9.57345
-9.58148
-9.25579
-9.25658
-9.2604
-9.26681
-9.27481
-9.28397
-9.29417
-9.3052
-9.31684
-9.3289
-9.34123
-9.35373
-9.36631
-9.37887
-9.39136
-9.40374
-9.41595
-9.42797
-9.43977
-9.45133
-9.46264
-9.47368
-9.48444
-9.49492
-9.5051
-9.51499
-9.52458
-9.53388
-9.54287
-9.55157
-9.55997
-9.56807
-9.57589
-9.25453
-9.25538
-9.25929
-9.26581
-9.2739
-9.28312
-9.29334
-9.30436
-9.31596
-9.32794
-9.34018
-9.35256
-9.365
-9.37742
-9.38976
-9.40197
-9.41401
-9.42586
-9.43749
-9.44887
-9.46
-9.47085
-9.48143
-9.49172
-9.50172
-9.51142
-9.52082
-9.52993
-9.53873
-9.54723
-9.55544
-9.56334
-9.57094
-9.25189
-9.25284
-9.25694
-9.26371
-9.27202
-9.28143
-9.29178
-9.30289
-9.31452
-9.32649
-9.33867
-9.35097
-9.36329
-9.37556
-9.38774
-9.39978
-9.41163
-9.42328
-9.4347
-9.44587
-9.45678
-9.46741
-9.47776
-9.48782
-9.49759
-9.50707
-9.51624
-9.52512
-9.53369
-9.54197
-9.54996
-9.55767
-9.56509
-9.24768
-9.2488
-9.25323
-9.26041
-9.26912
-9.27885
-9.28946
-9.30078
-9.31256
-9.32464
-9.33688
-9.3492
-9.36151
-9.37375
-9.38587
-9.39782
-9.40958
-9.42112
-9.43242
-9.44346
-9.45423
-9.46472
-9.47492
-9.48483
-9.49445
-9.50376
-9.51278
-9.52149
-9.5299
-9.53801
-9.54583
-9.55333
-9.56052
-9.24168
-9.24305
-9.24801
-9.25583
-9.26512
-9.27533
-9.28632
-9.29792
-9.30989
-9.32207
-9.33435
-9.34665
-9.35889
-9.37104
-9.38303
-9.39484
-9.40643
-9.4178
-9.42891
-9.43976
-9.45033
-9.46062
-9.47062
-9.48032
-9.48972
-9.49883
-9.50763
-9.51614
-9.52434
-9.53226
-9.53988
-9.54723
-9.55431
-9.23355
-9.2353
-9.24107
-9.24984
-9.25998
-9.2709
-9.28252
-9.29466
-9.30708
-9.3196
-9.33213
-9.34461
-9.35698
-9.36919
-9.38121
-9.39301
-9.40456
-9.41587
-9.4269
-9.43766
-9.44812
-9.45829
-9.46817
-9.47774
-9.48701
-9.49597
-9.50463
-9.51298
-9.52103
-9.52878
-9.53623
-9.54337
-9.55019
-9.22283
-9.22519
-9.23222
-9.24237
-9.25354
-9.26517
-9.27734
-9.28991
-9.30263
-9.31534
-9.32798
-9.34051
-9.35287
-9.36504
-9.37699
-9.38869
-9.40014
-9.41131
-9.42219
-9.43279
-9.44309
-9.4531
-9.4628
-9.4722
-9.48129
-9.49008
-9.49856
-9.50675
-9.51463
-9.52223
-9.52954
-9.53658
-9.54336
-9.20882
-9.21214
-9.22121
-9.23354
-9.24647
-9.25952
-9.2729
-9.28644
-9.29985
-9.31306
-9.32605
-9.33881
-9.35133
-9.36357
-9.37554
-9.38722
-9.39862
-9.40972
-9.42051
-9.431
-9.44119
-9.45106
-9.46062
-9.46987
-9.47881
-9.48744
-9.49576
-9.50378
-9.51149
-9.5189
-9.526
-9.53279
-9.53927
-9.19042
-9.19551
-9.2076
-9.2221
-9.23604
-9.2499
-9.26418
-9.27848
-9.29243
-9.30601
-9.31929
-9.33226
-9.34489
-9.3572
-9.36918
-9.38083
-9.39216
-9.40318
-9.41387
-9.42425
-9.43431
-9.44406
-9.4535
-9.46263
-9.47144
-9.47995
-9.48816
-9.49606
-9.50367
-9.51098
-9.51801
-9.52477
-9.53127
-9.16549
-9.17464
-9.19403
-9.21377
-9.2302
-9.24558
-9.2611
-9.2762
-9.29057
-9.30435
-9.31772
-9.33071
-9.3433
-9.35551
-9.36737
-9.37889
-9.39007
-9.40091
-9.41143
-9.42162
-9.43148
-9.44102
-9.45025
-9.45915
-9.46775
-9.47603
-9.484
-9.49167
-9.49904
-9.50612
-9.5129
-9.51938
-9.52557
-9.13054
-9.1442
-9.16982
-9.19308
-9.21203
-9.23004
-9.24766
-9.2641
-9.2793
-9.29366
-9.30741
-9.3206
-9.33326
-9.34546
-9.35726
-9.36869
-9.37977
-9.3905
-9.40092
-9.41101
-9.42079
-9.43026
-9.43942
-9.44827
-9.45682
-9.46507
-9.47302
-9.48068
-9.48803
-9.49509
-9.50185
-9.50829
-9.5144
-9.08315
-9.13081
-9.17019
-9.19045
-9.20672
-9.22506
-9.24302
-9.25895
-9.2735
-9.28741
-9.30083
-9.3137
-9.32606
-9.33797
-9.3495
-9.36067
-9.37148
-9.38197
-9.39213
-9.40198
-9.41153
-9.42078
-9.42973
-9.43839
-9.44676
-9.45485
-9.46265
-9.47019
-9.47747
-9.4845
-9.49131
-9.49796
-9.50445
-8.94881
-9.07099
-9.14564
-9.16985
-9.18616
-9.20717
-9.22764
-9.24483
-9.26014
-9.27494
-9.28944
-9.30353
-9.31723
-9.33061
-9.34373
-9.35658
-9.36915
-9.38143
-9.39341
-9.40509
-9.41646
-9.42751
-9.43823
-9.44861
-9.45866
-9.46837
-9.47773
-9.48675
-9.49542
-9.50374
-9.51171
-9.51931
-9.52666
-9.79987
-9.92779
-10.134
-10.236
-10.3435
-10.4486
-10.5317
-10.5993
-10.6564
-10.7034
-10.7408
-10.7701
-10.7928
-10.8113
-10.8281
-10.845
-10.8606
-10.8699
-10.8766
-10.8835
-10.8917
-10.9022
-10.916
-10.9335
-10.954
-10.9761
-10.9963
-11.0102
-11.012
-10.9955
-10.954
-10.8814
-10.7739
-10.6324
-10.4661
-10.2939
-10.1424
-10.043
-10.0253
-10.1105
-10.3054
-10.5968
-10.954
-11.3386
-11.7166
-12.0639
-12.3666
-12.6172
-12.8125
-12.9522
-13.0377
-13.0717
-13.057
-12.9972
-12.8961
-12.7572
-12.5832
-12.3746
-12.1292
-11.8415
-11.5015
-11.095
-10.6034
-10.0042
-9.27411
-8.39738
-7.36755
-6.22691
-5.12832
-4.22687
-3.53023
-2.95369
-2.44664
-2.00048
-1.61888
-1.30383
-1.05247
-0.857889
-0.711007
-0.602226
-0.522588
-0.464363
-0.421266
-0.388423
-0.362196
-0.339989
-0.319985
-0.301033
-0.282316
-0.263514
-0.244155
-0.224521
-0.20369
-0.183118
-0.159363
-0.138412
-0.106314
-0.0892694
-0.0283797
-0.0491047
-9.71132
-9.74779
-9.83162
-9.87601
-9.92802
-9.9958
-10.0648
-10.1332
-10.2017
-10.2673
-10.3276
-10.3818
-10.4301
-10.4737
-10.5141
-10.5525
-10.5892
-10.6185
-10.6424
-10.6637
-10.6845
-10.7059
-10.729
-10.7543
-10.7813
-10.8084
-10.8325
-10.8493
-10.8534
-10.8389
-10.7995
-10.7299
-10.6269
-10.4926
-10.3366
-10.1775
-10.0412
-9.95713
-9.95261
-10.0466
-10.2441
-10.5325
-10.8828
-11.2589
-11.6285
-11.9683
-12.2644
-12.5092
-12.6996
-12.835
-12.9169
-12.9476
-12.9301
-12.8681
-12.7652
-12.6247
-12.4488
-12.2376
-11.9887
-11.6963
-11.3504
-10.937
-10.4383
-9.83326
-9.10063
-8.22689
-7.20777
-6.08702
-5.00185
-4.10158
-3.40938
-2.84517
-2.35493
-1.92662
-1.56168
-1.26094
-1.02108
-0.835261
-0.69477
-0.590491
-0.51393
-0.45776
-0.416009
-0.384041
-0.358382
-0.336558
-0.316826
-0.298091
-0.27957
-0.260965
-0.241813
-0.222416
-0.201829
-0.181573
-0.15807
-0.137622
-0.105587
-0.0897422
-0.0276169
-0.052776
-9.67031
-9.68231
-9.71989
-9.74544
-9.76838
-9.80182
-9.84002
-9.88017
-9.92315
-9.96805
-10.0132
-10.0578
-10.1016
-10.145
-10.1886
-10.233
-10.2776
-10.3195
-10.3569
-10.3913
-10.4244
-10.4573
-10.4909
-10.5255
-10.5604
-10.5942
-10.6239
-10.6455
-10.6537
-10.6431
-10.6081
-10.5441
-10.4488
-10.3251
-10.1828
-10.0398
-9.92045
-9.85217
-9.86004
-9.96107
-10.1591
-10.4418
-10.7827
-11.1484
-11.5088
-11.8413
-12.1317
-12.3719
-12.5585
-12.6907
-12.77
-12.7987
-12.78
-12.7172
-12.6137
-12.4725
-12.2955
-12.0825
-11.8309
-11.5347
-11.184
-10.7652
-10.2616
-9.65361
-8.92258
-8.05662
-7.05376
-5.96056
-4.90086
-4.01227
-3.32515
-2.76859
-2.29
-1.87488
-1.52253
-1.23259
-1.00133
-0.821947
-0.686007
-0.584772
-0.510122
-0.455056
-0.413864
-0.382105
-0.356449
-0.33452
-0.314644
-0.295769
-0.277136
-0.258466
-0.239297
-0.219944
-0.199432
-0.179338
-0.155944
-0.135856
-0.103799
-0.0889624
-0.0259957
-0.0545412
-9.66714
-9.68402
-9.71466
-9.7407
-9.7596
-9.78148
-9.80508
-9.82787
-9.85088
-9.87471
-9.89893
-9.92337
-9.94844
-9.97484
-10.0033
-10.0344
-10.0679
-10.1025
-10.1357
-10.168
-10.2004
-10.2336
-10.2682
-10.304
-10.3403
-10.3754
-10.4064
-10.4295
-10.4398
-10.4321
-10.4015
-10.3439
-10.2577
-10.1462
-10.0191
-9.89298
-9.79057
-9.73689
-9.75473
-9.85935
-10.054
-10.3278
-10.6566
-11.0102
-11.3598
-11.6839
-11.968
-12.2038
-12.3876
-12.5182
-12.5967
-12.6253
-12.6069
-12.5448
-12.4423
-12.3019
-12.1254
-11.9121
-11.6593
-11.3607
-11.0069
-10.5849
-10.079
-9.47148
-8.746
-7.89246
-6.91056
-5.84646
-4.81218
-3.93577
-3.25327
-2.70235
-2.23306
-1.82923
-1.48801
-1.20775
-0.984219
-0.810617
-0.678752
-0.580224
-0.507248
-0.453119
-0.412359
-0.380712
-0.354976
-0.332872
-0.312789
-0.293721
-0.274934
-0.256173
-0.236974
-0.217671
-0.197265
-0.177376
-0.154193
-0.134522
-0.102672
-0.0887806
-0.0255688
-0.0566364
-9.67104
-9.68883
-9.71238
-9.73422
-9.75124
-9.76956
-9.78972
-9.80959
-9.82916
-9.84866
-9.86761
-9.88575
-9.90337
-9.9211
-9.93967
-9.95969
-9.98134
-10.004
-10.0264
-10.0488
-10.072
-10.0965
-10.1228
-10.1506
-10.1794
-10.2075
-10.2323
-10.2501
-10.2566
-10.2471
-10.2171
-10.163
-10.0839
-9.98309
-9.8696
-9.75879
-9.6711
-9.62912
-9.6534
-9.75771
-9.94506
-10.2056
-10.5182
-10.8556
-11.1915
-11.505
-11.7817
-12.0128
-12.1937
-12.323
-12.4014
-12.4309
-12.4141
-12.3542
-12.254
-12.1158
-11.9409
-11.7286
-11.4757
-11.1763
-10.821
-10.3978
-9.89221
-9.28839
-8.57208
-7.73499
-6.77881
-5.74776
-4.74304
-3.8811
-3.20269
-2.65566
-2.19325
-1.79812
-1.46559
-1.19284
-0.975155
-0.805744
-0.676637
-0.579737
-0.507559
-0.453651
-0.412738
-0.380713
-0.354487
-0.331855
-0.311259
-0.291727
-0.272547
-0.253477
-0.234056
-0.214623
-0.194165
-0.174326
-0.151228
-0.131833
-0.100145
-0.0870566
-0.0240352
-0.0566059
-9.67246
-9.69002
-9.71063
-9.7316
-9.75005
-9.76865
-9.78819
-9.80723
-9.82537
-9.84282
-9.85936
-9.87487
-9.88957
-9.90394
-9.91852
-9.93377
-9.94979
-9.96621
-9.98251
-9.99852
-10.0148
-10.032
-10.0502
-10.0695
-10.0892
-10.1079
-10.1234
-10.1326
-10.1317
-10.1166
-10.0836
-10.0297
-9.95461
-9.86144
-9.75852
-9.65961
-9.58284
-9.54828
-9.57419
-9.67298
-9.84762
-10.0899
-10.3817
-10.6987
-11.017
-11.3167
-11.5833
-11.8079
-11.9851
-12.1131
-12.1918
-12.223
-12.2087
-12.1519
-12.0549
-11.9199
-11.7477
-11.5373
-11.2854
-10.9863
-10.6311
-10.2086
-9.70556
-9.10806
-8.40388
-7.58632
-6.65887
-5.6624
-4.68835
-3.84197
-3.16651
-2.62154
-2.16418
-1.77604
-1.45071
-1.18418
-0.971274
-0.805152
-0.678057
-0.582177
-0.510306
-0.456231
-0.414862
-0.382225
-0.355325
-0.332021
-0.310798
-0.29071
-0.271064
-0.251625
-0.231937
-0.21234
-0.191815
-0.172018
-0.149036
-0.129914
-0.0985222
-0.0860523
-0.0237896
-0.0569443
-9.67283
-9.69044
-9.70964
-9.72926
-9.74727
-9.7648
-9.78274
-9.80039
-9.81737
-9.83376
-9.84946
-9.86432
-9.87845
-9.89215
-9.90578
-9.91961
-9.93371
-9.94785
-9.96167
-9.97501
-9.98822
-10.0017
-10.0155
-10.0296
-10.0432
-10.0553
-10.0637
-10.0658
-10.0585
-10.0383
-10.0022
-9.94811
-9.87592
-9.78891
-9.69465
-9.6053
-9.53677
-9.50661
-9.53088
-9.62064
-9.7789
-9.99905
-10.2656
-10.5578
-10.8539
-11.1355
-11.3887
-11.6038
-11.7753
-11.9003
-11.9784
-12.0106
-11.9988
-11.9451
-11.8517
-11.7201
-11.551
-11.3429
-11.0928
-10.7948
-10.4408
-10.0204
-9.52174
-8.93264
-8.2428
-7.4471
-6.55065
-5.59063
-4.6487
-3.81981
-3.14748
-2.60299
-2.14859
-1.76535
-1.44531
-1.18335
-0.973798
-0.809761
-0.683654
-0.587922
-0.515619
-0.46075
-0.418395
-0.384702
-0.356758
-0.332475
-0.310369
-0.289513
-0.269219
-0.249256
-0.229166
-0.209285
-0.188592
-0.168737
-0.145815
-0.126877
-0.0958366
-0.0838978
-0.0227073
-0.05596
-9.67272
-9.68992
-9.70802
-9.72638
-9.74399
-9.76121
-9.77863
-9.79589
-9.81256
-9.82859
-9.84389
-9.85835
-9.87204
-9.88518
-9.89803
-9.91082
-9.92358
-9.93619
-9.94839
-9.96011
-9.9715
-9.98278
-9.99398
-10.0048
-10.0147
-10.0225
-10.0264
-10.0241
-10.0129
-9.98998
-9.95294
-9.90025
-9.8323
-9.75227
-9.66703
-9.58725
-9.52673
-9.50059
-9.52272
-9.6028
-9.74377
-9.94041
-10.1799
-10.4445
-10.7153
-10.9754
-11.2114
-11.4139
-11.5766
-11.6965
-11.7722
-11.8042
-11.7936
-11.7423
-11.6517
-11.5231
-11.3566
-11.1508
-10.9023
-10.6058
-10.2536
-9.83617
-9.34314
-8.76386
-8.08985
-7.31752
-6.4533
-5.53062
-4.62134
-3.8111
-3.1427
-2.59788
-2.14486
-1.76478
-1.44842
-1.18965
-0.982278
-0.819357
-0.693434
-0.597185
-0.523892
-0.467761
-0.424026
-0.388947
-0.359682
-0.33419
-0.311009
-0.289223
-0.268148
-0.247548
-0.226963
-0.206716
-0.185791
-0.165818
-0.142924
-0.124109
-0.0934618
-0.0818608
-0.0221949
-0.0545781
-9.67085
-9.68771
-9.70512
-9.72269
-9.73986
-9.75668
-9.77342
-9.7899
-9.80585
-9.82118
-9.83585
-9.84982
-9.86311
-9.8759
-9.88836
-9.90062
-9.91271
-9.92452
-9.93588
-9.94672
-9.95705
-9.96701
-9.97652
-9.98528
-9.99266
-9.99758
-9.99849
-9.99342
-9.98009
-9.95622
-9.91987
-9.87009
-9.80753
-9.73535
-9.65971
-9.58998
-9.53802
-9.51676
-9.53803
-9.61015
-9.73575
-9.91066
-10.1243
-10.3616
-10.6063
-10.8431
-11.0597
-11.2468
-11.3983
-11.5103
-11.5813
-11.6109
-11.5997
-11.5491
-11.46
-11.3332
-11.1684
-10.964
-10.7168
-10.4216
-10.0713
-9.65751
-9.1709
-8.6024
-7.94519
-7.1972
-6.36592
-5.48138
-4.60565
-3.8152
-3.15193
-2.60649
-2.15346
-1.77486
-1.46053
-1.20343
-0.996949
-0.834025
-0.707335
-0.609755
-0.534782
-0.476802
-0.431191
-0.394307
-0.363373
-0.336383
-0.311894
-0.28899
-0.266985
-0.245627
-0.224453
-0.203764
-0.182552
-0.162407
-0.13953
-0.120795
-0.0906452
-0.0793008
-0.0215548
-0.0528425
-9.66943
-9.6858
-9.70251
-9.71935
-9.73589
-9.75216
-9.76828
-9.78418
-9.79967
-9.81462
-9.82898
-9.84269
-9.85578
-9.86833
-9.88046
-9.89225
-9.90373
-9.91481
-9.92535
-9.9353
-9.94465
-9.95341
-9.96147
-9.96848
-9.97381
-9.9765
-9.97519
-9.96819
-9.95362
-9.92964
-9.8948
-9.84854
-9.79179
-9.72756
-9.66143
-9.60157
-9.55817
-9.54222
-9.56371
-9.62966
-9.74233
-9.89831
-10.0887
-10.3009
-10.5207
-10.7347
-10.9314
-11.1022
-11.2408
-11.3433
-11.4076
-11.4329
-11.4195
-11.3678
-11.2786
-11.1521
-10.9878
-10.784
-10.5374
-10.2432
-9.89492
-9.48504
-9.00541
-8.44835
-7.80858
-7.08543
-6.28723
-5.44107
-4.59986
-3.83046
-3.17379
-2.62791
-2.17383
-1.79528
-1.48152
-1.22479
-1.01804
-0.854116
-0.725803
-0.626159
-0.548871
-0.488493
-0.440528
-0.401425
-0.368463
-0.339666
-0.313603
-0.289357
-0.266233
-0.243963
-0.222072
-0.200834
-0.179252
-0.158861
-0.135958
-0.117221
-0.0875745
-0.0763042
-0.0206657
-0.050182
-9.66622
-9.6822
-9.69839
-9.71464
-9.73067
-9.74646
-9.7621
-9.77749
-9.79248
-9.80696
-9.82087
-9.83418
-9.84689
-9.85908
-9.8708
-9.88214
-9.89308
-9.90355
-9.91347
-9.92274
-9.93134
-9.93918
-9.94611
-9.95176
-9.95554
-9.95657
-9.95368
-9.94545
-9.93033
-9.90687
-9.87402
-9.83157
-9.7806
-9.72401
-9.66679
-9.61607
-9.58061
-9.5697
-9.59175
-9.65264
-9.75426
-9.89375
-10.0637
-10.2532
-10.4502
-10.6425
-10.8201
-10.9745
-11.0998
-11.1919
-11.2484
-11.2682
-11.2509
-11.1969
-11.1062
-10.9789
-10.8142
-10.6101
-10.3637
-10.0703
-9.72424
-9.31863
-8.84646
-8.30138
-7.67948
-6.98141
-6.21613
-5.4081
-4.60232
-3.85577
-3.20751
-2.66188
-2.20598
-1.82606
-1.51142
-1.25372
-1.04552
-0.879579
-0.748748
-0.646259
-0.565981
-0.502623
-0.451807
-0.410061
-0.374714
-0.343812
-0.31593
-0.29014
-0.265735
-0.242422
-0.219714
-0.19785
-0.175847
-0.155169
-0.132244
-0.113501
-0.0844731
-0.0732529
-0.020083
-0.0475253
-9.66367
-9.67918
-9.69484
-9.71051
-9.72604
-9.74132
-9.75642
-9.77126
-9.78574
-9.79975
-9.81324
-9.82619
-9.83859
-9.85046
-9.86185
-9.87278
-9.88325
-9.89318
-9.90249
-9.9111
-9.91894
-9.92589
-9.93177
-9.9362
-9.93862
-9.93827
-9.93413
-9.92502
-9.90969
-9.88703
-9.85633
-9.81763
-9.77213
-9.72255
-9.67338
-9.63082
-9.60234
-9.59582
-9.61829
-9.67465
-9.76644
-9.89123
-10.0427
-10.2118
-10.3877
-10.5599
-10.7192
-10.8577
-10.9697
-11.0512
-11.0993
-11.1129
-11.0911
-11.0338
-10.9409
-10.812
-10.6462
-10.4415
-10.195
-9.90252
-9.55878
-9.15783
-8.69363
-8.16102
-7.55732
-6.88434
-6.15148
-5.38091
-4.61089
-3.88927
-3.2518
-2.70773
-2.24981
-1.86732
-1.55039
-1.29043
-1.07967
-0.910727
-0.776521
-0.670425
-0.586475
-0.519529
-0.465322
-0.420458
-0.382311
-0.348945
-0.318937
-0.291345
-0.265445
-0.240913
-0.217247
-0.194643
-0.172135
-0.151097
-0.128109
-0.10929
-0.0808964
-0.0696204
-0.0190209
-0.0444272
-9.65967
-9.67478
-9.68997
-9.70515
-9.7202
-9.73505
-9.74964
-9.76399
-9.77801
-9.79159
-9.80468
-9.81724
-9.82927
-9.84078
-9.85177
-9.86226
-9.87222
-9.88161
-9.89033
-9.89831
-9.90544
-9.91161
-9.91659
-9.92001
-9.92134
-9.91993
-9.9149
-9.9053
-9.89013
-9.86855
-9.84014
-9.80512
-9.76475
-9.72158
-9.6796
-9.64419
-9.62173
-9.61885
-9.64143
-9.69351
-9.77634
-9.88783
-10.0226
-10.1729
-10.3294
-10.4829
-10.6248
-10.748
-10.847
-10.9177
-10.9573
-10.9641
-10.9373
-10.8762
-10.7805
-10.6497
-10.4824
-10.277
-10.0304
-9.739
-9.39799
-9.00219
-8.54648
-8.02681
-7.4416
-6.79356
-6.09235
-5.35819
-4.62372
-3.92881
-3.30501
-2.76448
-2.30502
-1.91919
-1.59863
-1.33506
-1.12056
-0.947627
-0.809192
-0.698739
-0.610451
-0.539322
-0.481198
-0.432756
-0.39141
-0.355239
-0.322815
-0.293178
-0.26558
-0.239665
-0.21491
-0.191462
-0.168378
-0.146929
-0.12387
-0.10496
-0.0772606
-0.065891
-0.0179205
-0.0412994
-9.65617
-9.67085
-9.68559
-9.70028
-9.71484
-9.72921
-9.74331
-9.75713
-9.77066
-9.7838
-9.79647
-9.80864
-9.82029
-9.83141
-9.84201
-9.85208
-9.86157
-9.87045
-9.87862
-9.88599
-9.89245
-9.89788
-9.90203
-9.90453
-9.90493
-9.90263
-9.89694
-9.88706
-9.87221
-9.8518
-9.82562
-9.79404
-9.75834
-9.72086
-9.68514
-9.65585
-9.6384
-9.63836
-9.66063
-9.70853
-9.78302
-9.88229
-10.0018
-10.1348
-10.2733
-10.4091
-10.5346
-10.6431
-10.7293
-10.7893
-10.8202
-10.8201
-10.7879
-10.7227
-10.624
-10.4908
-10.3221
-10.1158
-9.86938
-9.57933
-9.24148
-8.85134
-8.40468
-7.8984
-7.33186
-6.7085
-6.03801
-5.33886
-4.63916
-3.97214
-3.36491
-2.83059
-2.37088
-1.98166
-1.65647
-1.38798
-1.16851
-0.99053
-0.846973
-0.731387
-0.638068
-0.56213
-0.499522
-0.446992
-0.401997
-0.36263
-0.327457
-0.295495
-0.26597
-0.238483
-0.212491
-0.188082
-0.164337
-0.14241
-0.119251
-0.100225
-0.073275
-0.0618261
-0.0166042
-0.0382045
-9.65167
-9.66595
-9.68024
-9.69448
-9.70859
-9.72251
-9.73616
-9.74953
-9.76257
-9.77525
-9.78751
-9.79929
-9.81055
-9.82128
-9.83148
-9.8411
-9.85012
-9.85848
-9.8661
-9.87287
-9.87869
-9.88342
-9.8868
-9.88851
-9.88814
-9.88517
-9.87902
-9.86907
-9.85473
-9.83559
-9.8116
-9.78326
-9.7518
-9.71937
-9.6891
-9.66499
-9.65166
-9.65375
-9.67531
-9.71907
-9.78574
-9.87375
-9.97918
-10.0963
-10.218
-10.3373
-10.4471
-10.5415
-10.6153
-10.6647
-10.6869
-10.6798
-10.642
-10.5724
-10.4704
-10.3349
-10.1646
-9.95759
-9.71153
-9.42321
-9.089
-8.70508
-8.26799
-7.7755
-7.22776
-6.62873
-5.98791
-5.3222
-4.65598
-4.01722
-3.42901
-2.90395
-2.44605
-2.05416
-1.72401
-1.44957
-1.2239
-1.03975
-0.890112
-0.768589
-0.669546
-0.588186
-0.520542
-0.463425
-0.414335
-0.371376
-0.33311
-0.298529
-0.26683
-0.237568
-0.210175
-0.184678
-0.160175
-0.137697
-0.114398
-0.0952126
-0.0690153
-0.0574547
-0.014981
-0.0350601
-9.64746
-9.66133
-9.67521
-9.68901
-9.70267
-9.71614
-9.72936
-9.74228
-9.75486
-9.76707
-9.77889
-9.79025
-9.8011
-9.81142
-9.82119
-9.83037
-9.83892
-9.84677
-9.85385
-9.86006
-9.86527
-9.86933
-9.87201
-9.87303
-9.87199
-9.86849
-9.86204
-9.85214
-9.83838
-9.82049
-9.79857
-9.77315
-9.74544
-9.71739
-9.69173
-9.67191
-9.66182
-9.66533
-9.68578
-9.72537
-9.78463
-9.86214
-9.95455
-10.0569
-10.1631
-10.2668
-10.3618
-10.4425
-10.5043
-10.5434
-10.5568
-10.5425
-10.499
-10.425
-10.3195
-10.1815
-10.0097
-9.80219
-9.55675
-9.27057
-8.94049
-8.56329
-8.13626
-7.6579
-7.12899
-6.55384
-5.94164
-5.30776
-4.67346
-4.06256
-3.49487
-2.98198
-2.52863
-2.13561
-1.80087
-1.52003
-1.28717
-1.0957
-0.938921
-0.810553
-0.705016
-0.617571
-0.544305
-0.482082
-0.428433
-0.381471
-0.339755
-0.302248
-0.268117
-0.23687
-0.207908
-0.181189
-0.155835
-0.13274
-0.109274
-0.0899189
-0.0645093
-0.0528608
-0.0131384
-0.0319415
-9.64263
-9.65611
-9.66957
-9.68294
-9.69617
-9.7092
-9.72199
-9.73448
-9.74663
-9.7584
-9.76976
-9.78068
-9.79112
-9.80103
-9.81037
-9.81911
-9.82718
-9.83453
-9.84109
-9.84674
-9.85136
-9.85478
-9.85682
-9.85722
-9.85564
-9.85173
-9.84511
-9.83538
-9.82226
-9.80562
-9.78563
-9.76287
-9.73848
-9.7142
-9.69242
-9.6761
-9.66849
-9.67282
-9.69181
-9.72723
-9.77943
-9.84716
-9.92748
-10.0161
-10.1078
-10.1969
-10.2778
-10.3456
-10.3957
-10.4246
-10.4294
-10.408
-10.3586
-10.2801
-10.1712
-10.0307
-9.85744
-9.64958
-9.40507
-9.12142
-8.79593
-8.42596
-8.00941
-7.54542
-7.0353
-6.48351
-5.89886
-5.29525
-4.69128
-4.10737
-3.56076
-3.06204
-2.61606
-2.22432
-1.8862
-1.59913
-1.3586
-1.15889
-0.993914
-0.857702
-0.744814
-0.650557
-0.571051
-0.503181
-0.444496
-0.393111
-0.347573
-0.306816
-0.269977
-0.236509
-0.205786
-0.177692
-0.151368
-0.127567
-0.103879
-0.0843193
-0.0597076
-0.0480021
-0.0110681
-0.0288532
-9.63791
-9.65101
-9.66407
-9.67703
-9.68984
-9.70246
-9.71483
-9.7269
-9.73864
-9.74999
-9.76091
-9.77138
-9.78138
-9.79086
-9.79977
-9.80806
-9.81566
-9.82251
-9.82854
-9.83364
-9.83768
-9.84051
-9.84198
-9.84185
-9.83983
-9.83561
-9.8289
-9.81941
-9.80695
-9.79148
-9.77324
-9.75283
-9.73129
-9.71018
-9.69159
-9.67802
-9.67218
-9.67676
-9.69396
-9.72517
-9.77061
-9.82913
-9.89819
-9.97405
-10.0522
-10.1275
-10.1952
-10.2505
-10.2893
-10.3083
-10.3046
-10.2761
-10.2209
-10.1377
-10.0253
-9.88246
-9.70784
-9.49984
-9.25655
-8.97583
-8.65537
-8.29305
-7.88734
-7.43791
-6.94644
-6.41747
-5.8593
-5.28448
-4.70929
-4.15135
-3.62574
-3.14223
-2.70567
-2.31777
-1.97845
-1.68619
-1.43804
-1.2296
-1.05557
-0.910512
-0.789304
-0.687398
-0.600951
-0.526848
-0.462628
-0.406391
-0.356662
-0.312337
-0.272516
-0.236597
-0.203921
-0.174295
-0.146881
-0.122283
-0.0983108
-0.078507
-0.0546815
-0.0429265
-0.00882606
-0.0257263
-9.63286
-9.64558
-9.65824
-9.67079
-9.68319
-9.69539
-9.70734
-9.719
-9.73032
-9.74125
-9.75176
-9.7618
-9.77134
-9.78037
-9.78883
-9.79666
-9.8038
-9.81017
-9.81569
-9.82025
-9.82375
-9.82607
-9.82704
-9.82644
-9.82404
-9.8196
-9.81287
-9.80365
-9.79184
-9.77746
-9.7608
-9.74243
-9.72333
-9.70487
-9.68884
-9.67736
-9.6727
-9.67704
-9.69217
-9.71917
-9.75813
-9.80799
-9.86653
-9.93051
-9.99592
-10.0584
-10.1134
-10.1569
-10.1849
-10.1942
-10.1822
-10.1466
-10.0856
-9.99782
-9.88197
-9.7368
-9.56099
-9.35306
-9.1113
-8.83386
-8.51883
-8.16455
-7.76996
-7.33518
-6.86217
-6.35544
-5.82273
-5.27532
-4.72746
-4.19442
-3.68944
-3.22156
-2.79557
-2.4134
-2.07515
-1.7797
-1.52496
-1.30781
-1.1242
-0.969493
-0.839031
-0.728542
-0.634326
-0.553304
-0.48299
-0.421439
-0.367129
-0.318906
-0.275825
-0.23722
-0.202395
-0.171078
-0.142444
-0.11695
-0.0926245
-0.0725348
-0.0494789
-0.0376817