/*--------------------------------*- C++ -*----------------------------------*\
| =========                 |                                                 |
| \\      /  F ield         | OpenFOAM: The Open Source CFD Toolbox           |
|  \\    /   O peration     | Version:  4.1                                   |
|   \\  /    A nd           | Web:      www.OpenFOAM.org                      |
|    \\/     M anipulation  |                                                 |
\*---------------------------------------------------------------------------*/
FoamFile
{
    version     2.0;
    format      ascii;
    class       surfaceScalarField;
    location    "400";
    object      phi;
}
// * * * * * * * * * * * * * * * * * * * * * * * * * * * * * * * * * * * * * //

dimensions      [0 3 -1 0 0 0 0];

internalField   nonuniform List<scalar> 
13452
(
5.95313e-05
7.37189e-07
5.86592e-05
8.72046e-07
5.78162e-05
8.43001e-07
5.69812e-05
8.35057e-07
5.61552e-05
8.25992e-07
5.53511e-05
8.04065e-07
5.45763e-05
7.74853e-07
5.38332e-05
7.43089e-07
5.3123e-05
7.10189e-07
5.24462e-05
6.76731e-07
5.18029e-05
6.43371e-07
5.11922e-05
6.10684e-07
5.06132e-05
5.79029e-07
5.00646e-05
5.48595e-07
4.95451e-05
5.19472e-07
4.90534e-05
4.91691e-07
4.85882e-05
4.65244e-07
4.81481e-05
4.40096e-07
4.77319e-05
4.16193e-07
4.73384e-05
3.93476e-07
4.69665e-05
3.71878e-07
4.66152e-05
3.51332e-07
4.62834e-05
3.3177e-07
4.59703e-05
3.13124e-07
4.5675e-05
2.95322e-07
4.53967e-05
2.78291e-07
4.51347e-05
2.61934e-07
4.48885e-05
2.46202e-07
4.46578e-05
2.30747e-07
4.44417e-05
2.16123e-07
4.42423e-05
1.99346e-07
4.40563e-05
1.8603e-07
1.52999e-07
4.39033e-05
6.23701e-05
3.57393e-07
6.26549e-05
5.87254e-07
6.28762e-05
6.21714e-07
6.30527e-05
6.58566e-07
6.31873e-05
6.91375e-07
6.32836e-05
7.07808e-07
6.3345e-05
7.13457e-07
6.33747e-05
7.13404e-07
6.33759e-05
7.08911e-07
6.33523e-05
7.00386e-07
6.33071e-05
6.8855e-07
6.32436e-05
6.74201e-07
6.31646e-05
6.57975e-07
6.30729e-05
6.40356e-07
6.29706e-05
6.21738e-07
6.28599e-05
6.02444e-07
6.27424e-05
5.82738e-07
6.26196e-05
5.62826e-07
6.2493e-05
5.42868e-07
6.23634e-05
5.22992e-07
6.2232e-05
5.03293e-07
6.20995e-05
4.83845e-07
6.19666e-05
4.64697e-07
6.18338e-05
4.45883e-07
6.17017e-05
4.27415e-07
6.15707e-05
4.09296e-07
6.14412e-05
3.91489e-07
6.13134e-05
3.73982e-07
6.11876e-05
3.56559e-07
6.10643e-05
3.3941e-07
6.09425e-05
3.21179e-07
6.08248e-05
3.03653e-07
2.82816e-07
6.0695e-05
6.38365e-05
2.82308e-07
6.38978e-05
5.25933e-07
6.39331e-05
5.86392e-07
6.39614e-05
6.3027e-07
6.39849e-05
6.67895e-07
6.40043e-05
6.88377e-07
6.40213e-05
6.96485e-07
6.40366e-05
6.98084e-07
6.40504e-05
6.95125e-07
6.40626e-05
6.88234e-07
6.40729e-05
6.78182e-07
6.40814e-05
6.65782e-07
6.40877e-05
6.51654e-07
6.40918e-05
6.36249e-07
6.40936e-05
6.19918e-07
6.40931e-05
6.02946e-07
6.40903e-05
5.85563e-07
6.40852e-05
5.67942e-07
6.40778e-05
5.50222e-07
6.40683e-05
5.32504e-07
6.40567e-05
5.14869e-07
6.40432e-05
4.97374e-07
6.40278e-05
4.80059e-07
6.40108e-05
4.62949e-07
6.39921e-05
4.46052e-07
6.39721e-05
4.29362e-07
6.39507e-05
4.12847e-07
6.39282e-05
3.96476e-07
6.39046e-05
3.80118e-07
6.38803e-05
3.63753e-07
6.38545e-05
3.46984e-07
6.38283e-05
3.29821e-07
3.12518e-07
6.37986e-05
6.5644e-05
2.21352e-07
6.57108e-05
4.59198e-07
6.57547e-05
5.42419e-07
6.57895e-05
5.95552e-07
6.5819e-05
6.38342e-07
6.58438e-05
6.63554e-07
6.58651e-05
6.75262e-07
6.58837e-05
6.79463e-07
6.59002e-05
6.78564e-07
6.59151e-05
6.73399e-07
6.59284e-05
6.64814e-07
6.59405e-05
6.53671e-07
6.59516e-05
6.40636e-07
6.59616e-05
6.26195e-07
6.59708e-05
6.10724e-07
6.59792e-05
5.94529e-07
6.59869e-05
5.77854e-07
6.5994e-05
5.60884e-07
6.60005e-05
5.43765e-07
6.60064e-05
5.26604e-07
6.60117e-05
5.09485e-07
6.60166e-05
4.92465e-07
6.60211e-05
4.75585e-07
6.60252e-05
4.58867e-07
6.60289e-05
4.42319e-07
6.60324e-05
4.25934e-07
6.60355e-05
4.09682e-07
6.60385e-05
3.93529e-07
6.60412e-05
3.77388e-07
6.60437e-05
3.61218e-07
6.60459e-05
3.44858e-07
6.60474e-05
3.28308e-07
3.12198e-07
6.60477e-05
6.75014e-05
1.76697e-07
6.75606e-05
4.0004e-07
6.7606e-05
4.97045e-07
6.76451e-05
5.56389e-07
6.76814e-05
6.02079e-07
6.77143e-05
6.30611e-07
6.77442e-05
6.4537e-07
6.77717e-05
6.51952e-07
6.77973e-05
6.52972e-07
6.78213e-05
6.49456e-07
6.78438e-05
6.42326e-07
6.7865e-05
6.32478e-07
6.7885e-05
6.20606e-07
6.7904e-05
6.07217e-07
6.7922e-05
5.92702e-07
6.79391e-05
5.7738e-07
6.79555e-05
5.61499e-07
6.79711e-05
5.45253e-07
6.79861e-05
5.2879e-07
6.80005e-05
5.12225e-07
6.80143e-05
4.95642e-07
6.80277e-05
4.79103e-07
6.80406e-05
4.6265e-07
6.80532e-05
4.46308e-07
6.80654e-05
4.30086e-07
6.80774e-05
4.1398e-07
6.80891e-05
3.97969e-07
6.81006e-05
3.82023e-07
6.81119e-05
3.66089e-07
6.8123e-05
3.50131e-07
6.81337e-05
3.34109e-07
6.8144e-05
3.18037e-07
3.02308e-07
6.81539e-05
6.94169e-05
1.43872e-07
6.94686e-05
3.48312e-07
6.95133e-05
4.52377e-07
6.95534e-05
5.16274e-07
6.95913e-05
5.64187e-07
6.96264e-05
5.95473e-07
6.96588e-05
6.12934e-07
6.96891e-05
6.21663e-07
6.97177e-05
6.24424e-07
6.97447e-05
6.22429e-07
6.97704e-05
6.16668e-07
6.97948e-05
6.08055e-07
6.98181e-05
5.97299e-07
6.98404e-05
5.84921e-07
6.98618e-05
5.71325e-07
6.98823e-05
5.56835e-07
6.99021e-05
5.41709e-07
6.99212e-05
5.26145e-07
6.99397e-05
5.10298e-07
6.99576e-05
4.94287e-07
6.99751e-05
4.78201e-07
6.99921e-05
4.62106e-07
7.00087e-05
4.46047e-07
7.00249e-05
4.30052e-07
7.00409e-05
4.14136e-07
7.00566e-05
3.98297e-07
7.0072e-05
3.82524e-07
7.00872e-05
3.66795e-07
7.01022e-05
3.51081e-07
7.0117e-05
3.35358e-07
7.01315e-05
3.19628e-07
7.01456e-05
3.03898e-07
2.884e-07
7.01595e-05
7.13907e-05
1.19459e-07
7.14348e-05
3.04252e-07
7.14764e-05
4.10777e-07
7.1515e-05
4.777e-07
7.15522e-05
5.26963e-07
7.15875e-05
5.60165e-07
7.16207e-05
5.79771e-07
7.1652e-05
5.90322e-07
7.16818e-05
5.94617e-07
7.17103e-05
5.93995e-07
7.17374e-05
5.89482e-07
7.17635e-05
5.82001e-07
7.17885e-05
5.72269e-07
7.18126e-05
5.6082e-07
7.18359e-05
5.48071e-07
7.18584e-05
5.34353e-07
7.18801e-05
5.19929e-07
7.19013e-05
5.05006e-07
7.19218e-05
4.89741e-07
7.19419e-05
4.74259e-07
7.19614e-05
4.58652e-07
7.19805e-05
4.4299e-07
7.19993e-05
4.27321e-07
7.20176e-05
4.11676e-07
7.20357e-05
3.96075e-07
7.20535e-05
3.80521e-07
7.2071e-05
3.65009e-07
7.20883e-05
3.49528e-07
7.21053e-05
3.34063e-07
7.2122e-05
3.18601e-07
7.21385e-05
3.03155e-07
7.21547e-05
2.87731e-07
2.72446e-07
7.21706e-05
7.34237e-05
1.00998e-07
7.34611e-05
2.66865e-07
7.34997e-05
3.7219e-07
7.3537e-05
4.40455e-07
7.35737e-05
4.90243e-07
7.36092e-05
5.24687e-07
7.36429e-05
5.4602e-07
7.36751e-05
5.58169e-07
7.37058e-05
5.6386e-07
7.37353e-05
5.64515e-07
7.37636e-05
5.61186e-07
7.37908e-05
5.54793e-07
7.3817e-05
5.46061e-07
7.38423e-05
5.35531e-07
7.38667e-05
5.23628e-07
7.38904e-05
5.10687e-07
7.39134e-05
4.96976e-07
7.39357e-05
4.82704e-07
7.39574e-05
4.68034e-07
7.39785e-05
4.53094e-07
7.39992e-05
4.37979e-07
7.40194e-05
4.22763e-07
7.40392e-05
4.07498e-07
7.40587e-05
3.92221e-07
7.40778e-05
3.76952e-07
7.40966e-05
3.61704e-07
7.41152e-05
3.46477e-07
7.41334e-05
3.31269e-07
7.41514e-05
3.16075e-07
7.41691e-05
3.00892e-07
7.41866e-05
2.85732e-07
7.42037e-05
2.70614e-07
2.55596e-07
7.42205e-05
7.55168e-05
8.66953e-08
7.55485e-05
2.35103e-07
7.55839e-05
3.36783e-07
7.56193e-05
4.05063e-07
7.56548e-05
4.54793e-07
7.56896e-05
4.89911e-07
7.57231e-05
5.12516e-07
7.57553e-05
5.25958e-07
7.57863e-05
5.32828e-07
7.58162e-05
5.34599e-07
7.58451e-05
5.32332e-07
7.58729e-05
5.26935e-07
7.58999e-05
5.19129e-07
7.59259e-05
5.0946e-07
7.59512e-05
4.98354e-07
7.59757e-05
4.8615e-07
7.59996e-05
4.7312e-07
7.60228e-05
4.59474e-07
7.60455e-05
4.4538e-07
7.60676e-05
4.30969e-07
7.60892e-05
4.1634e-07
7.61104e-05
4.01569e-07
7.61312e-05
3.86713e-07
7.61516e-05
3.71812e-07
7.61717e-05
3.56893e-07
7.61914e-05
3.41971e-07
7.62108e-05
3.27054e-07
7.623e-05
3.12148e-07
7.62488e-05
2.97252e-07
7.62673e-05
2.82371e-07
7.62855e-05
2.67516e-07
7.63035e-05
2.52688e-07
2.37905e-07
7.63211e-05
7.76709e-05
7.53262e-08
7.76981e-05
2.07997e-07
7.77304e-05
3.04458e-07
7.77639e-05
3.7156e-07
7.7798e-05
4.20627e-07
7.78321e-05
4.55839e-07
7.78654e-05
4.79233e-07
7.78977e-05
4.9365e-07
7.7929e-05
5.0149e-07
7.79594e-05
5.04228e-07
7.79888e-05
5.02915e-07
7.80173e-05
4.98437e-07
7.8045e-05
4.91504e-07
7.80718e-05
4.82658e-07
7.80978e-05
4.72327e-07
7.81231e-05
4.60849e-07
7.81477e-05
4.48496e-07
7.81717e-05
4.35481e-07
7.81951e-05
4.21974e-07
7.8218e-05
4.08107e-07
7.82403e-05
3.93983e-07
7.82622e-05
3.79681e-07
7.82837e-05
3.6526e-07
7.83047e-05
3.50764e-07
7.83254e-05
3.36224e-07
7.83457e-05
3.21662e-07
7.83657e-05
3.07091e-07
7.83853e-05
2.9252e-07
7.84046e-05
2.77957e-07
7.84235e-05
2.6341e-07
7.84422e-05
2.48891e-07
7.84604e-05
2.34415e-07
2.2e-07
7.84783e-05
7.98876e-05
6.6053e-08
7.99109e-05
1.84676e-07
7.99404e-05
2.75001e-07
7.9972e-05
3.39966e-07
8.00047e-05
3.87868e-07
8.00378e-05
4.22722e-07
8.00706e-05
4.465e-07
8.01026e-05
4.6161e-07
8.01339e-05
4.70218e-07
8.01643e-05
4.73767e-07
8.0194e-05
4.73288e-07
8.02228e-05
4.69636e-07
8.02508e-05
4.63503e-07
8.0278e-05
4.55426e-07
8.03045e-05
4.45827e-07
8.03303e-05
4.35042e-07
8.03555e-05
4.23342e-07
8.038e-05
4.10942e-07
8.0404e-05
3.9801e-07
8.04274e-05
3.84681e-07
8.04503e-05
3.7106e-07
8.04728e-05
3.57229e-07
8.04948e-05
3.43251e-07
8.05164e-05
3.29172e-07
8.05376e-05
3.15029e-07
8.05584e-05
3.00846e-07
8.05788e-05
2.86642e-07
8.05989e-05
2.72432e-07
8.06186e-05
2.58227e-07
8.0638e-05
2.44038e-07
8.0657e-05
2.29876e-07
8.06757e-05
2.15746e-07
2.01643e-07
8.06941e-05
8.21682e-05
5.83029e-08
8.21885e-05
1.64414e-07
8.22153e-05
2.48155e-07
8.2245e-05
3.10235e-07
8.22764e-05
3.56521e-07
8.23085e-05
3.90605e-07
8.23406e-05
4.14373e-07
8.23724e-05
4.29869e-07
8.24036e-05
4.39022e-07
8.24341e-05
4.4321e-07
8.2464e-05
4.43432e-07
8.24931e-05
4.40505e-07
8.25215e-05
4.35096e-07
8.25492e-05
4.2773e-07
8.25762e-05
4.18821e-07
8.26026e-05
4.08702e-07
8.26283e-05
3.97638e-07
8.26534e-05
3.85842e-07
8.26779e-05
3.73485e-07
8.27019e-05
3.607e-07
8.27253e-05
3.47594e-07
8.27483e-05
3.34252e-07
8.27708e-05
3.20738e-07
8.27929e-05
3.07102e-07
8.28145e-05
2.93384e-07
8.28358e-05
2.79612e-07
8.28566e-05
2.65809e-07
8.2877e-05
2.51994e-07
8.28971e-05
2.38181e-07
8.29167e-05
2.24386e-07
8.2936e-05
2.10623e-07
8.29548e-05
1.96909e-07
1.83255e-07
8.29732e-05
8.45144e-05
5.16815e-08
8.45322e-05
1.46614e-07
8.45567e-05
2.23637e-07
8.45847e-05
2.82278e-07
8.46146e-05
3.26556e-07
8.46457e-05
3.59524e-07
8.46771e-05
3.82939e-07
8.47085e-05
3.98549e-07
8.47394e-05
4.08047e-07
8.47699e-05
4.12719e-07
8.47998e-05
4.1352e-07
8.48291e-05
4.11223e-07
8.48578e-05
4.06467e-07
8.48857e-05
3.99757e-07
8.49131e-05
3.91497e-07
8.49397e-05
3.82012e-07
8.49658e-05
3.71563e-07
8.49913e-05
3.60359e-07
8.50162e-05
3.48568e-07
8.50406e-05
3.36326e-07
8.50644e-05
3.2374e-07
8.50878e-05
3.10894e-07
8.51107e-05
2.97856e-07
8.51331e-05
2.84678e-07
8.51551e-05
2.71403e-07
8.51766e-05
2.58063e-07
8.51978e-05
2.44684e-07
8.52185e-05
2.31288e-07
8.52388e-05
2.17893e-07
8.52586e-05
2.04517e-07
8.52781e-05
1.91174e-07
8.52971e-05
1.77874e-07
1.64617e-07
8.53157e-05
8.69279e-05
4.59136e-08
8.69437e-05
1.30802e-07
8.69662e-05
2.01164e-07
8.69925e-05
2.5598e-07
8.70212e-05
2.97918e-07
8.70512e-05
3.29471e-07
8.70819e-05
3.52228e-07
8.71128e-05
3.67691e-07
8.71435e-05
3.7733e-07
8.71739e-05
3.82324e-07
8.72038e-05
3.83571e-07
8.72333e-05
3.818e-07
8.72621e-05
3.77613e-07
8.72904e-05
3.71496e-07
8.7318e-05
3.63837e-07
8.73451e-05
3.54951e-07
8.73716e-05
3.45091e-07
8.73975e-05
3.34463e-07
8.74228e-05
3.23232e-07
8.74476e-05
3.11532e-07
8.74719e-05
2.9947e-07
8.74956e-05
2.87131e-07
8.75189e-05
2.74584e-07
8.75417e-05
2.61884e-07
8.7564e-05
2.49076e-07
8.75859e-05
2.36193e-07
8.76073e-05
2.23266e-07
8.76283e-05
2.1032e-07
8.76488e-05
1.97375e-07
8.76689e-05
1.84451e-07
8.76885e-05
1.71566e-07
8.77076e-05
1.58742e-07
1.45988e-07
8.77262e-05
8.94106e-05
4.08035e-08
8.94249e-05
1.16597e-07
8.94455e-05
1.80469e-07
8.94703e-05
2.31208e-07
8.94977e-05
2.70535e-07
8.95268e-05
3.00416e-07
8.95567e-05
3.2225e-07
8.95871e-05
3.37328e-07
8.96175e-05
3.46917e-07
8.96478e-05
3.52081e-07
8.96777e-05
3.53653e-07
8.97072e-05
3.52312e-07
8.97362e-05
3.4862e-07
8.97646e-05
3.43039e-07
8.97925e-05
3.35938e-07
8.98198e-05
3.27619e-07
8.98466e-05
3.18328e-07
8.98728e-05
3.08264e-07
8.98984e-05
2.97588e-07
8.99235e-05
2.8643e-07
8.99481e-05
2.74898e-07
8.99722e-05
2.63077e-07
8.99957e-05
2.51036e-07
9.00188e-05
2.38832e-07
9.00413e-05
2.2651e-07
9.00634e-05
2.14108e-07
9.0085e-05
2.01657e-07
9.01062e-05
1.89185e-07
9.01268e-05
1.76716e-07
9.0147e-05
1.64269e-07
9.01667e-05
1.51865e-07
9.01859e-05
1.3952e-07
1.27238e-07
9.02047e-05
9.19645e-05
3.62089e-08
9.19774e-05
1.03696e-07
9.19965e-05
1.61304e-07
9.20199e-05
2.07822e-07
9.20461e-05
2.4432e-07
9.20742e-05
2.7231e-07
9.21035e-05
2.92991e-07
9.21333e-05
3.07468e-07
9.21634e-05
3.16828e-07
9.21935e-05
3.22014e-07
9.22234e-05
3.23789e-07
9.22529e-05
3.22778e-07
9.2282e-05
3.19503e-07
9.23107e-05
3.14395e-07
9.23388e-05
3.07805e-07
9.23664e-05
3.00018e-07
9.23935e-05
2.9127e-07
9.242e-05
2.81753e-07
9.24459e-05
2.71622e-07
9.24714e-05
2.61005e-07
9.24962e-05
2.50007e-07
9.25206e-05
2.38712e-07
9.25445e-05
2.27189e-07
9.25678e-05
2.15497e-07
9.25906e-05
2.03681e-07
9.26129e-05
1.91781e-07
9.26348e-05
1.79831e-07
9.26561e-05
1.6786e-07
9.26769e-05
1.55892e-07
9.26972e-05
1.43951e-07
9.2717e-05
1.32059e-07
9.27363e-05
1.2024e-07
1.08504e-07
9.27551e-05
9.45913e-05
3.20234e-08
9.46032e-05
9.18582e-08
9.4621e-05
1.43448e-07
9.46432e-05
1.85676e-07
9.46683e-05
2.19177e-07
9.46955e-05
2.45092e-07
9.47241e-05
2.64422e-07
9.47535e-05
2.78105e-07
9.47832e-05
2.87068e-07
9.48131e-05
2.92137e-07
9.48429e-05
2.94e-07
9.48725e-05
2.93226e-07
9.49017e-05
2.90293e-07
9.49305e-05
2.85602e-07
9.49588e-05
2.79479e-07
9.49866e-05
2.72194e-07
9.50139e-05
2.63968e-07
9.50407e-05
2.54985e-07
9.50669e-05
2.45395e-07
9.50926e-05
2.3532e-07
9.51177e-05
2.24862e-07
9.51423e-05
2.14104e-07
9.51664e-05
2.03115e-07
9.519e-05
1.91952e-07
9.5213e-05
1.80664e-07
9.52355e-05
1.6929e-07
9.52574e-05
1.57865e-07
9.52789e-05
1.46418e-07
9.52998e-05
1.34978e-07
9.53202e-05
1.23569e-07
9.534e-05
1.12211e-07
9.53593e-05
1.00927e-07
8.97244e-08
9.53781e-05
9.72934e-05
2.81656e-08
9.73043e-05
8.08872e-08
9.73211e-05
1.26701e-07
9.73421e-05
1.64621e-07
9.73663e-05
1.95004e-07
9.73927e-05
2.1869e-07
9.74206e-05
2.36499e-07
9.74495e-05
2.49217e-07
9.7479e-05
2.5763e-07
9.75087e-05
2.62453e-07
9.75384e-05
2.64294e-07
9.75679e-05
2.63667e-07
9.75972e-05
2.61005e-07
9.76261e-05
2.56672e-07
9.76546e-05
2.50972e-07
9.76827e-05
2.44155e-07
9.77102e-05
2.36429e-07
9.77372e-05
2.27966e-07
9.77637e-05
2.18908e-07
9.77897e-05
2.09374e-07
9.78151e-05
1.9946e-07
9.78399e-05
1.89247e-07
9.78642e-05
1.78805e-07
9.7888e-05
1.68188e-07
9.79112e-05
1.57444e-07
9.79339e-05
1.46616e-07
9.7956e-05
1.35737e-07
9.79776e-05
1.2484e-07
9.79986e-05
1.13951e-07
9.80191e-05
1.03096e-07
9.8039e-05
9.22991e-08
9.80584e-05
8.15841e-08
7.09627e-08
9.80771e-05
0.000100073
2.45712e-08
0.000100083
7.06224e-08
0.000100099
1.10884e-07
0.000100119
1.44514e-07
0.000100142
1.7169e-07
0.000100168
1.93022e-07
0.000100195
2.09164e-07
0.000100224
2.20769e-07
0.000100253
2.28495e-07
0.000100282
2.32951e-07
0.000100312
2.34669e-07
0.000100341
2.34104e-07
0.000100371
2.31644e-07
0.0001004
2.27617e-07
0.000100429
2.223e-07
0.000100457
2.15921e-07
0.000100485
2.08675e-07
0.000100512
2.0072e-07
0.000100538
1.9219e-07
0.000100565
1.83197e-07
0.00010059
1.73834e-07
0.000100615
1.64179e-07
0.00010064
1.54297e-07
0.000100664
1.44243e-07
0.000100687
1.34066e-07
0.00010071
1.23805e-07
0.000100732
1.13496e-07
0.000100754
1.0317e-07
0.000100775
9.28569e-08
0.000100796
8.25808e-08
0.000100815
7.23657e-08
0.000100835
6.22346e-08
5.21971e-08
0.000100854
0.000102931
2.11874e-08
0.000102941
6.09283e-08
0.000102956
9.58384e-08
0.000102975
1.25213e-07
0.000102998
1.49121e-07
0.000103023
1.67996e-07
0.00010305
1.82349e-07
0.000103078
1.92713e-07
0.000103107
1.99629e-07
0.000103136
2.0361e-07
0.000103166
2.05113e-07
0.000103195
2.04533e-07
0.000103225
2.02211e-07
0.000103254
1.9844e-07
0.000103283
1.93467e-07
0.000103311
1.87499e-07
0.000103339
1.80712e-07
0.000103367
1.73253e-07
0.000103394
1.65247e-07
0.00010342
1.56797e-07
0.000103446
1.4799e-07
0.000103471
1.38902e-07
0.000103496
1.29593e-07
0.00010352
1.20119e-07
0.000103543
1.10525e-07
0.000103566
1.00851e-07
0.000103589
9.11324e-08
0.000103611
8.14006e-08
0.000103632
7.16839e-08
0.000103652
6.2008e-08
0.000103672
5.23968e-08
0.000103692
4.28742e-08
3.3451e-08
0.00010371
0.000105872
1.79698e-08
0.000105881
5.16878e-08
0.000105896
8.14158e-08
0.000105914
1.06576e-07
0.000105936
1.27174e-07
0.000105961
1.4351e-07
0.000105987
1.55973e-07
0.000106015
1.64985e-07
0.000106043
1.70986e-07
0.000106073
1.74397e-07
0.000106102
1.75602e-07
0.000106132
1.74937e-07
0.000106161
1.72697e-07
0.000106191
1.69136e-07
0.00010622
1.64472e-07
0.000106248
1.5889e-07
0.000106276
1.52547e-07
0.000106304
1.45576e-07
0.000106331
1.3809e-07
0.000106358
1.30185e-07
0.000106384
1.21943e-07
0.000106409
1.13432e-07
0.000106434
1.04712e-07
0.000106458
9.58337e-08
0.000106482
8.68422e-08
0.000106505
7.77759e-08
0.000106528
6.86693e-08
0.00010655
5.95532e-08
0.000106571
5.04554e-08
0.000106591
4.14012e-08
0.000106611
3.24142e-08
0.000106631
2.35172e-08
1.47204e-08
0.000106649
0.000108896
1.48792e-08
0.000108905
4.27958e-08
0.000108919
6.74786e-08
0.000108937
8.84645e-08
0.000108959
1.05724e-07
0.000108983
1.19455e-07
0.000109009
1.29944e-07
0.000109036
1.37513e-07
0.000109065
1.42508e-07
0.000109094
1.45267e-07
0.000109124
1.46101e-07
0.000109153
1.4529e-07
0.000109183
1.43082e-07
0.000109212
1.39693e-07
0.000109241
1.35309e-07
0.00010927
1.30091e-07
0.000109299
1.24179e-07
0.000109326
1.17689e-07
0.000109354
1.10723e-07
0.000109381
1.03367e-07
0.000109407
9.56968e-08
0.000109433
8.77752e-08
0.000109458
7.96578e-08
0.000109482
7.13928e-08
0.000109506
6.30221e-08
0.000109529
5.45831e-08
0.000109552
4.61088e-08
0.000109574
3.7629e-08
0.000109595
2.91706e-08
0.000109615
2.07584e-08
0.000109635
1.24149e-08
0.000109655
4.16241e-09
-3.98927e-09
0.000109674
0.000112007
1.18789e-08
0.000112016
3.41542e-08
0.00011203
5.3894e-08
0.000112047
7.07369e-08
0.000112069
8.46349e-08
0.000112092
9.57099e-08
0.000112118
1.04155e-07
0.000112145
1.10207e-07
0.000112174
1.14122e-07
0.000112203
1.1616e-07
0.000112232
1.16565e-07
0.000112262
1.15558e-07
0.000112292
1.13341e-07
0.000112321
1.10091e-07
0.000112351
1.05963e-07
0.00011238
1.01094e-07
0.000112408
9.56019e-08
0.000112436
8.9589e-08
0.000112464
8.3144e-08
0.000112491
7.63437e-08
0.000112518
6.92547e-08
0.000112543
6.1935e-08
0.000112569
5.44354e-08
0.000112593
4.68003e-08
0.000112617
3.90691e-08
0.00011264
3.12768e-08
0.000112663
2.34549e-08
0.000112685
1.56317e-08
0.000112706
7.83295e-09
0.000112727
8.24681e-11
0.000112747
-7.59795e-09
0.000112766
-1.51865e-08
-2.26733e-08
0.000112785
0.000115207
8.93251e-09
0.000115216
2.56682e-08
0.000115229
4.05307e-08
0.000115247
5.32484e-08
0.000115268
6.37656e-08
0.000115291
7.21418e-08
0.000115317
7.84909e-08
0.000115344
8.29658e-08
0.000115372
8.57436e-08
0.000115402
8.70078e-08
0.000115431
8.69358e-08
0.000115461
8.56943e-08
0.000115491
8.34367e-08
0.000115521
8.03017e-08
0.00011555
7.64137e-08
0.00011558
7.18831e-08
0.000115608
6.68072e-08
0.000115637
6.12721e-08
0.000115664
5.53532e-08
0.000115692
4.91168e-08
0.000115718
4.26214e-08
0.000115744
3.59183e-08
0.00011577
2.90532e-08
0.000115794
2.20665e-08
0.000115819
1.49944e-08
0.000115842
7.86913e-09
0.000115865
7.20194e-10
0.000115887
-6.42591e-09
0.000115908
-1.35448e-08
0.000115929
-2.06144e-08
0.000115949
-2.76143e-08
0.000115968
-3.45254e-08
-4.13395e-08
0.000115987
0.000118499
6.0012e-09
0.000118507
1.72421e-08
0.00011852
2.72544e-08
0.000118538
3.58473e-08
0.000118559
4.2963e-08
0.000118582
4.86067e-08
0.000118608
5.2819e-08
0.000118635
5.56748e-08
0.000118664
5.72738e-08
0.000118693
5.77265e-08
0.000118723
5.71459e-08
0.000118753
5.56429e-08
0.000118783
5.33242e-08
0.000118813
5.02898e-08
0.000118843
4.66318e-08
0.000118872
4.24347e-08
0.000118901
3.77749e-08
0.00011893
3.27212e-08
0.000118958
2.73355e-08
0.000118985
2.16732e-08
0.000119012
1.5784e-08
0.000119038
9.7123e-09
0.000119064
3.49812e-09
0.000119089
-2.82247e-09
0.000119113
-9.21706e-09
0.000119136
-1.5656e-08
0.000119159
-2.21126e-08
0.000119181
-2.85621e-08
0.000119203
-3.49819e-08
0.000119224
-4.1351e-08
0.000119244
-4.76501e-08
0.000119263
-5.3859e-08
-5.9969e-08
0.000119282
0.000121884
3.05351e-09
0.000121893
8.78587e-09
0.000121906
1.39311e-08
0.000121923
1.83767e-08
0.000121944
2.20643e-08
0.000121968
2.49473e-08
0.000121994
2.69944e-08
0.000122021
2.82039e-08
0.00012205
2.85996e-08
0.00012208
2.82202e-08
0.00012211
2.71144e-08
0.00012214
2.53379e-08
0.00012217
2.29506e-08
0.000122201
2.00134e-08
0.000122231
1.65865e-08
0.00012226
1.27277e-08
0.00012229
8.49196e-09
0.000122318
3.93075e-09
0.000122347
-9.0807e-10
0.000122374
-5.98045e-09
0.000122401
-1.12458e-08
0.000122428
-1.6667e-08
0.000122453
-2.22099e-08
0.000122478
-2.78435e-08
0.000122503
-3.3539e-08
0.000122526
-3.92702e-08
0.000122549
-4.5013e-08
0.000122571
-5.0745e-08
0.000122593
-5.64458e-08
0.000122614
-6.20967e-08
0.000122634
-6.76808e-08
0.000122653
-7.31826e-08
-7.85964e-08
0.000122672
0.000125366
7.45773e-11
0.000125375
2.14248e-10
0.000125389
4.21825e-10
0.000125406
6.67906e-10
0.000125427
8.91364e-10
0.000125451
9.88915e-10
0.000125477
8.53754e-10
0.000125505
4.05665e-10
0.000125534
-4.08895e-10
0.000125564
-1.6239e-09
0.000125595
-3.25573e-09
0.000125625
-5.3044e-09
0.000125656
-7.75688e-09
0.000125686
-1.05913e-08
0.000125717
-1.37798e-08
0.000125747
-1.72909e-08
0.000125776
-2.10913e-08
0.000125806
-2.51469e-08
0.000125834
-2.94242e-08
0.000125862
-3.38904e-08
0.000125889
-3.85145e-08
0.000125916
-4.32667e-08
0.000125942
-4.81193e-08
0.000125967
-5.3046e-08
0.000125991
-5.80224e-08
0.000126015
-6.30257e-08
0.000126038
-6.80346e-08
0.00012606
-7.30293e-08
0.000126082
-7.7991e-08
0.000126103
-8.29022e-08
0.000126123
-8.77462e-08
0.000126142
-9.25044e-08
-9.71693e-08
0.000126161
0.000128948
-2.98165e-09
0.000128957
-8.59776e-09
0.000128971
-1.34568e-08
0.000128989
-1.74924e-08
0.000129011
-2.07758e-08
0.000129035
-2.34809e-08
0.000129062
-2.57998e-08
0.00012909
-2.78962e-08
0.00012912
-2.99045e-08
0.00012915
-3.19346e-08
0.000129181
-3.40698e-08
0.000129212
-3.63668e-08
0.000129243
-3.88602e-08
0.000129274
-4.15673e-08
0.000129305
-4.44929e-08
0.000129335
-4.7632e-08
0.000129365
-5.09726e-08
0.000129394
-5.44982e-08
0.000129423
-5.81894e-08
0.000129451
-6.20251e-08
0.000129479
-6.59835e-08
0.000129505
-7.00425e-08
0.000129531
-7.41805e-08
0.000129557
-7.83766e-08
0.000129581
-8.26106e-08
0.000129605
-8.68632e-08
0.000129628
-9.11164e-08
0.000129651
-9.5353e-08
0.000129672
-9.95571e-08
0.000129693
-1.03714e-07
0.000129713
-1.07812e-07
0.000129732
-1.1184e-07
-1.15794e-07
0.000129751
0.000132632
-6.18053e-09
0.000132641
-1.78199e-08
0.000132656
-2.79453e-08
0.000132675
-3.63757e-08
0.000132697
-4.321e-08
0.000132723
-4.87208e-08
0.00013275
-5.32035e-08
0.000132779
-5.69152e-08
0.000132809
-6.00778e-08
0.00013284
-6.28826e-08
0.000132871
-6.54826e-08
0.000132903
-6.79921e-08
0.000132935
-7.04927e-08
0.000132966
-7.30411e-08
0.000132997
-7.5674e-08
0.000133028
-7.84125e-08
0.000133058
-8.12658e-08
0.000133088
-8.42346e-08
0.000133117
-8.73134e-08
0.000133146
-9.04926e-08
0.000133174
-9.37596e-08
0.000133201
-9.71001e-08
0.000133227
-1.00499e-07
0.000133253
-1.0394e-07
0.000133277
-1.07407e-07
0.000133301
-1.10886e-07
0.000133325
-1.1436e-07
0.000133347
-1.17815e-07
0.000133369
-1.21238e-07
0.00013339
-1.24613e-07
0.00013341
-1.27927e-07
0.000133429
-1.31162e-07
-1.34314e-07
0.000133448
0.000136422
-9.60313e-09
0.000136432
-2.7675e-08
0.000136447
-4.33552e-08
0.000136467
-5.63259e-08
0.00013649
-6.67501e-08
0.000136517
-7.5046e-08
0.000136545
-8.16379e-08
0.000136575
-8.68877e-08
0.000136606
-9.11171e-08
0.000136638
-9.46087e-08
0.00013667
-9.7591e-08
0.000136702
-1.00237e-07
0.000136734
-1.02678e-07
0.000136766
-1.05007e-07
0.000136798
-1.07294e-07
0.000136829
-1.09585e-07
0.00013686
-1.11908e-07
0.00013689
-1.14281e-07
0.000136919
-1.16712e-07
0.000136948
-1.19202e-07
0.000136976
-1.21747e-07
0.000137003
-1.2434e-07
0.00013703
-1.26971e-07
0.000137055
-1.29631e-07
0.00013708
-1.32307e-07
0.000137104
-1.34988e-07
0.000137128
-1.37661e-07
0.00013715
-1.40316e-07
0.000137172
-1.42941e-07
0.000137193
-1.45526e-07
0.000137213
-1.48065e-07
0.000137232
-1.50552e-07
-1.52986e-07
0.000137251
0.00014032
-1.33612e-08
0.00014033
-3.84724e-08
0.000140347
-6.01061e-08
0.000140369
-7.77843e-08
0.000140394
-9.18164e-08
0.000140421
-1.0285e-07
0.000140451
-1.11472e-07
0.000140483
-1.18161e-07
0.000140515
-1.23352e-07
0.000140548
-1.27428e-07
0.000140581
-1.30697e-07
0.000140614
-1.33392e-07
0.000140647
-1.35691e-07
0.00014068
-1.37728e-07
0.000140712
-1.39602e-07
0.000140744
-1.41384e-07
0.000140775
-1.43123e-07
0.000140805
-1.44851e-07
0.000140835
-1.46588e-07
0.000140864
-1.48345e-07
0.000140893
-1.50128e-07
0.00014092
-1.51935e-07
0.000140947
-1.53764e-07
0.000140973
-1.55609e-07
0.000140998
-1.57461e-07
0.000141023
-1.59313e-07
0.000141046
-1.61156e-07
0.000141069
-1.6298e-07
0.000141091
-1.64774e-07
0.000141112
-1.66529e-07
0.000141132
-1.68233e-07
0.000141151
-1.69869e-07
-1.71434e-07
0.00014117
0.000144329
-1.76181e-08
0.000144341
-5.06632e-08
0.00014436
-7.8787e-08
0.000144383
-1.01334e-07
0.00014441
-1.18919e-07
0.00014444
-1.32544e-07
0.000144472
-1.43003e-07
0.000144504
-1.50917e-07
0.000144538
-1.56863e-07
0.000144572
-1.61342e-07
0.000144606
-1.64743e-07
0.00014464
-1.67355e-07
0.000144674
-1.69403e-07
0.000144707
-1.71055e-07
0.00014474
-1.72439e-07
0.000144772
-1.73645e-07
0.000144804
-1.74741e-07
0.000144834
-1.75772e-07
0.000144865
-1.76769e-07
0.000144894
-1.77753e-07
0.000144923
-1.78735e-07
0.00014495
-1.79723e-07
0.000144977
-1.80717e-07
0.000145004
-1.81717e-07
0.000145029
-1.82718e-07
0.000145053
-1.83716e-07
0.000145077
-1.84706e-07
0.000145099
-1.8568e-07
0.000145121
-1.86632e-07
0.000145142
-1.87559e-07
0.000145163
-1.88458e-07
0.000145182
-1.89328e-07
-1.90171e-07
0.000145201
0.000148453
-2.26301e-08
0.000148467
-6.49294e-08
0.000148489
-1.00224e-07
0.000148515
-1.27769e-07
0.000148545
-1.48826e-07
0.000148577
-1.64908e-07
0.000148611
-1.77006e-07
0.000148646
-1.85899e-07
0.000148682
-1.92344e-07
0.000148717
-1.96986e-07
0.000148753
-2.003e-07
0.000148788
-2.02636e-07
0.000148823
-2.0426e-07
0.000148858
-2.0538e-07
0.000148891
-2.06146e-07
0.000148924
-2.06667e-07
0.000148957
-2.07024e-07
0.000148988
-2.07274e-07
0.000149019
-2.07458e-07
0.000149049
-2.07602e-07
0.000149078
-2.07726e-07
0.000149106
-2.0784e-07
0.000149133
-2.0795e-07
0.000149159
-2.08058e-07
0.000149185
-2.08165e-07
0.000149209
-2.08268e-07
0.000149233
-2.08364e-07
0.000149256
-2.08446e-07
0.000149278
-2.08511e-07
0.000149299
-2.08549e-07
0.000149319
-2.08552e-07
0.000149338
-2.08505e-07
-2.08408e-07
0.000149356
0.000152695
-2.88488e-08
0.000152713
-8.24291e-08
0.000152738
-1.25606e-07
0.000152768
-1.57877e-07
0.000152801
-1.81916e-07
0.000152837
-2.00007e-07
0.000152873
-2.13321e-07
0.00015291
-2.22807e-07
0.000152947
-2.29432e-07
0.000152984
-2.3398e-07
0.000153021
-2.36994e-07
0.000153057
-2.38871e-07
0.000153092
-2.39921e-07
0.000153127
-2.40377e-07
0.000153162
-2.40411e-07
0.000153195
-2.40148e-07
0.000153228
-2.3968e-07
0.00015326
-2.39074e-07
0.000153291
-2.38376e-07
0.000153321
-2.37622e-07
0.00015335
-2.36833e-07
0.000153378
-2.36025e-07
0.000153405
-2.35209e-07
0.000153431
-2.34389e-07
0.000153457
-2.33569e-07
0.000153481
-2.32748e-07
0.000153505
-2.31925e-07
0.000153528
-2.311e-07
0.000153549
-2.3027e-07
0.00015357
-2.29435e-07
0.00015359
-2.28596e-07
0.000153609
-2.27759e-07
-2.26925e-07
0.000153628
0.00015706
-3.70245e-08
0.000157082
-1.05127e-07
0.000157114
-1.57146e-07
0.00015715
-1.93852e-07
0.000157188
-2.20374e-07
0.000157228
-2.3983e-07
0.000157268
-2.53564e-07
0.000157308
-2.62863e-07
0.000157348
-2.69011e-07
0.000157387
-2.72926e-07
0.000157425
-2.75198e-07
0.000157463
-2.76258e-07
0.000157499
-2.76444e-07
0.000157535
-2.76004e-07
0.000157569
-2.75118e-07
0.000157603
-2.73917e-07
0.000157636
-2.72494e-07
0.000157668
-2.70922e-07
0.000157699
-2.6925e-07
0.000157729
-2.67514e-07
0.000157758
-2.65741e-07
0.000157785
-2.63948e-07
0.000157812
-2.62147e-07
0.000157838
-2.60345e-07
0.000157863
-2.58549e-07
0.000157887
-2.56758e-07
0.00015791
-2.54974e-07
0.000157932
-2.53196e-07
0.000157954
-2.5142e-07
0.000157974
-2.49643e-07
0.000157993
-2.47858e-07
0.000158011
-2.46052e-07
-2.44232e-07
0.000158029
0.00016155
-4.90007e-08
0.000161581
-1.35657e-07
0.000161619
-1.95269e-07
0.00016166
-2.34556e-07
0.000161702
-2.62796e-07
0.000161745
-2.83085e-07
0.000161788
-2.96578e-07
0.000161831
-3.0505e-07
0.000161872
-3.1018e-07
0.000161912
-3.12997e-07
0.000161951
-3.14119e-07
0.000161989
-3.1401e-07
0.000162025
-3.13033e-07
0.000162061
-3.11448e-07
0.000162095
-3.09436e-07
0.000162128
-3.07127e-07
0.00016216
-3.04614e-07
0.000162191
-3.01967e-07
0.000162221
-2.99235e-07
0.00016225
-2.96452e-07
0.000162278
-2.93643e-07
0.000162305
-2.90826e-07
0.000162331
-2.88012e-07
0.000162356
-2.8521e-07
0.00016238
-2.82424e-07
0.000162402
-2.79656e-07
0.000162424
-2.7691e-07
0.000162445
-2.74184e-07
0.000162465
-2.71479e-07
0.000162485
-2.68797e-07
0.000162503
-2.66141e-07
0.00016252
-2.63522e-07
-2.60941e-07
0.000162537
0.000166174
-6.96495e-08
0.000166223
-1.84604e-07
0.000166276
-2.47817e-07
0.000166326
-2.84696e-07
0.000166374
-3.11203e-07
0.000166421
-3.29481e-07
0.000166465
-3.4047e-07
0.000166506
-3.46523e-07
0.000166545
-3.49536e-07
0.000166583
-3.5047e-07
0.000166619
-3.49876e-07
0.000166653
-3.4819e-07
0.000166686
-3.45757e-07
0.000166717
-3.42811e-07
0.000166747
-3.39512e-07
0.000166776
-3.35974e-07
0.000166803
-3.32281e-07
0.00016683
-3.28492e-07
0.000166855
-3.2465e-07
0.00016688
-3.20786e-07
0.000166903
-3.1692e-07
0.000166925