/*--------------------------------*- C++ -*----------------------------------*\
| =========                 |                                                 |
| \\      /  F ield         | OpenFOAM: The Open Source CFD Toolbox           |
|  \\    /   O peration     | Version:  4.1                                   |
|   \\  /    A nd           | Web:      www.OpenFOAM.org                      |
|    \\/     M anipulation  |                                                 |
\*---------------------------------------------------------------------------*/
FoamFile
{
    version     2.0;
    format      ascii;
    class       volSymmTensorField;
    location    "400";
    object      R;
}
// * * * * * * * * * * * * * * * * * * * * * * * * * * * * * * * * * * * * * //

dimensions      [0 2 -2 0 0 0 0];

internalField   nonuniform List<symmTensor> 
6820
(
(0.205732 -0.0655181 0 0.119059 0 0.158783)
(0.282327 -0.0957377 0 0.109535 0 0.187468)
(0.351932 -0.111301 0 0.106212 0 0.215544)
(0.414145 -0.120959 0 0.107184 0 0.242572)
(0.468926 -0.12821 0 0.110858 0 0.268123)
(0.516416 -0.134402 0 0.116011 0 0.291794)
(0.556896 -0.139947 0 0.121756 0 0.313247)
(0.590788 -0.144895 0 0.127486 0 0.33226)
(0.618633 -0.149197 0 0.132822 0 0.348737)
(0.64104 -0.15281 0 0.137553 0 0.362697)
(0.658643 -0.155728 0 0.141585 0 0.374251)
(0.67207 -0.157981 0 0.1449 0 0.38357)
(0.681918 -0.159625 0 0.147531 0 0.390866)
(0.688738 -0.160729 0 0.149536 0 0.396369)
(0.693029 -0.161368 0 0.150985 0 0.400313)
(0.695231 -0.161615 0 0.151953 0 0.40292)
(0.695727 -0.161537 0 0.152512 0 0.404399)
(0.694848 -0.161195 0 0.152729 0 0.40494)
(0.692875 -0.160643 0 0.152665 0 0.404709)
(0.690045 -0.159927 0 0.152373 0 0.403854)
(0.686557 -0.159085 0 0.151899 0 0.4025)
(0.682577 -0.158151 0 0.151283 0 0.400756)
(0.678241 -0.157152 0 0.150558 0 0.398714)
(0.673663 -0.15611 0 0.149752 0 0.396449)
(0.668934 -0.155045 0 0.148889 0 0.394026)
(0.66413 -0.153971 0 0.147989 0 0.391499)
(0.65931 -0.1529 0 0.147066 0 0.38891)
(0.654525 -0.151843 0 0.146135 0 0.386295)
(0.649812 -0.150809 0 0.145206 0 0.383685)
(0.645206 -0.149802 0 0.144288 0 0.381103)
(0.640725 -0.148837 0 0.143389 0 0.378567)
(0.636469 -0.14793 0 0.142549 0 0.376128)
(0.633522 -0.14792 0 0.142652 0 0.374186)
(0.141614 -0.0084661 0 0.126763 0 0.13657)
(0.150539 -0.0154134 0 0.119378 0 0.139441)
(0.159409 -0.0210921 0 0.112607 0 0.141974)
(0.168024 -0.025931 0 0.106663 0 0.144249)
(0.1762 -0.0301 0 0.101596 0 0.146285)
(0.183856 -0.0337135 0 0.0973941 0 0.148111)
(0.190972 -0.0368709 0 0.0939942 0 0.149757)
(0.19755 -0.0396505 0 0.0913087 0 0.151252)
(0.203608 -0.0421143 0 0.0892404 0 0.152614)
(0.209177 -0.0443145 0 0.0876943 0 0.153865)
(0.214299 -0.0462974 0 0.0865821 0 0.155021)
(0.219024 -0.0481034 0 0.0858249 0 0.1561)
(0.223402 -0.0497674 0 0.0853547 0 0.157117)
(0.227484 -0.0513188 0 0.0851139 0 0.158087)
(0.231319 -0.0527818 0 0.0850552 0 0.159022)
(0.234953 -0.0541761 0 0.0851403 0 0.159935)
(0.238426 -0.0555169 0 0.0853383 0 0.160836)
(0.241771 -0.0568162 0 0.0856251 0 0.161733)
(0.245019 -0.0580828 0 0.0859815 0 0.162634)
(0.248195 -0.0593232 0 0.0863925 0 0.163545)
(0.251318 -0.0605422 0 0.0868464 0 0.16447)
(0.254404 -0.0617433 0 0.0873342 0 0.165413)
(0.257467 -0.0629288 0 0.0878489 0 0.166376)
(0.260514 -0.0641 0 0.0883846 0 0.167361)
(0.263553 -0.0652574 0 0.088937 0 0.168369)
(0.266587 -0.0664009 0 0.0895021 0 0.169399)
(0.269616 -0.06753 0 0.0900767 0 0.17045)
(0.27264 -0.0686438 0 0.090658 0 0.171521)
(0.275656 -0.0697414 0 0.0912434 0 0.172609)
(0.278659 -0.0708195 0 0.0918294 0 0.173711)
(0.281644 -0.0718804 0 0.0924158 0 0.174821)
(0.284597 -0.0729074 0 0.0929931 0 0.175936)
(0.288039 -0.0741307 0 0.0938451 0 0.177236)
(0.135647 -0.00198164 0 0.129365 0 0.13447)
(0.138143 -0.00333271 0 0.124875 0 0.135413)
(0.140543 -0.00436742 0 0.120286 0 0.136113)
(0.142758 -0.00525003 0 0.115857 0 0.136577)
(0.144727 -0.00600341 0 0.111694 0 0.136818)
(0.146448 -0.00665874 0 0.107826 0 0.136871)
(0.147942 -0.00725527 0 0.104254 0 0.136769)
(0.149225 -0.00782169 0 0.100967 0 0.13654)
(0.150313 -0.00837562 0 0.0979492 0 0.136206)
(0.151226 -0.00892842 0 0.0951842 0 0.135787)
(0.151986 -0.00948764 0 0.0926528 0 0.1353)
(0.152611 -0.010058 0 0.0903363 0 0.13476)
(0.153121 -0.0106419 0 0.0882165 0 0.134181)
(0.153536 -0.0112404 0 0.086276 0 0.133573)
(0.153871 -0.0118534 0 0.0844988 0 0.132948)
(0.154144 -0.0124803 0 0.0828699 0 0.132314)
(0.154369 -0.0131198 0 0.0813761 0 0.131678)
(0.15456 -0.0137704 0 0.0800052 0 0.131048)
(0.15473 -0.0144307 0 0.0787462 0 0.130429)
(0.154887 -0.0150987 0 0.0775894 0 0.129826)
(0.155042 -0.0157728 0 0.0765262 0 0.129243)
(0.1552 -0.0164507 0 0.0755481 0 0.128681)
(0.155366 -0.0171302 0 0.0746478 0 0.128143)
(0.155544 -0.0178095 0 0.0738186 0 0.12763)
(0.155736 -0.0184867 0 0.0730548 0 0.127142)
(0.155946 -0.0191604 0 0.072351 0 0.126681)
(0.156174 -0.019829 0 0.0717027 0 0.126246)
(0.156424 -0.0204911 0 0.0711054 0 0.125837)
(0.156693 -0.0211452 0 0.070555 0 0.125455)
(0.156983 -0.0217899 0 0.0700483 0 0.125099)
(0.157292 -0.0224227 0 0.0695799 0 0.124767)
(0.157623 -0.0230453 0 0.069152 0 0.12446)
(0.158012 -0.0236667 0 0.0687764 0 0.124187)
(0.134186 -0.000783002 0 0.130263 0 0.133857)
(0.135191 -0.00139794 0 0.126844 0 0.134317)
(0.136192 -0.0018809 0 0.123377 0 0.134657)
(0.13712 -0.00231646 0 0.120006 0 0.134859)
(0.137922 -0.00270624 0 0.116774 0 0.134922)
(0.138591 -0.00305302 0 0.11369 0 0.134859)
(0.139141 -0.00336928 0 0.11076 0 0.134692)
(0.139578 -0.00366501 0 0.107988 0 0.134436)
(0.139911 -0.00394642 0 0.105373 0 0.134104)
(0.140148 -0.00421836 0 0.102911 0 0.133708)
(0.1403 -0.00448513 0 0.100596 0 0.133259)
(0.140377 -0.00475022 0 0.0984194 0 0.132767)
(0.140387 -0.00501627 0 0.0963739 0 0.132239)
(0.140339 -0.00528518 0 0.094451 0 0.131684)
(0.140242 -0.00555832 0 0.0926425 0 0.131107)
(0.140103 -0.00583661 0 0.0909407 0 0.130515)
(0.139929 -0.00612059 0 0.0893382 0 0.129911)
(0.139728 -0.00641051 0 0.087828 0 0.129302)
(0.139504 -0.00670641 0 0.0864038 0 0.128689)
(0.139264 -0.00700815 0 0.0850597 0 0.128078)
(0.139012 -0.00731542 0 0.0837903 0 0.12747)
(0.138753 -0.00762765 0 0.0825907 0 0.126868)
(0.138489 -0.0079442 0 0.0814561 0 0.126273)
(0.138223 -0.00826435 0 0.0803824 0 0.125688)
(0.137958 -0.00858738 0 0.0793656 0 0.125113)
(0.137695 -0.00891256 0 0.078402 0 0.124549)
(0.137437 -0.00923913 0 0.0774883 0 0.123998)
(0.137184 -0.00956631 0 0.0766215 0 0.123459)
(0.136938 -0.00989329 0 0.0757986 0 0.122934)
(0.1367 -0.0102192 0 0.0750168 0 0.122422)
(0.136471 -0.0105431 0 0.0742735 0 0.121924)
(0.136251 -0.010865 0 0.0735659 0 0.12144)
(0.13604 -0.011188 0 0.0728966 0 0.120966)
(0.133619 -0.000369883 0 0.1308 0 0.133544)
(0.133991 -0.000663404 0 0.128074 0 0.133735)
(0.134406 -0.000892664 0 0.12533 0 0.133878)
(0.134816 -0.00111596 0 0.122628 0 0.133954)
(0.135171 -0.00133067 0 0.119999 0 0.133949)
(0.135457 -0.00152923 0 0.117456 0 0.133864)
(0.135676 -0.0017148 0 0.11501 0 0.133709)
(0.13583 -0.00189168 0 0.112666 0 0.133492)
(0.135923 -0.00206209 0 0.110425 0 0.133221)
(0.135957 -0.00222762 0 0.108287 0 0.132903)
(0.135939 -0.00238988 0 0.106249 0 0.132545)
(0.135873 -0.00255032 0 0.104307 0 0.132153)
(0.135765 -0.00271004 0 0.102457 0 0.131732)
(0.135619 -0.00286988 0 0.100697 0 0.131288)
(0.135441 -0.00303049 0 0.0990205 0 0.130824)
(0.135233 -0.00319235 0 0.0974247 0 0.130346)
(0.135001 -0.00335581 0 0.0959053 0 0.129855)
(0.134748 -0.00352109 0 0.0944582 0 0.129356)
(0.134478 -0.00368831 0 0.0930797 0 0.128851)
(0.134193 -0.00385753 0 0.0917661 0 0.128343)
(0.133898 -0.00402872 0 0.090514 0 0.127833)
(0.133593 -0.00420177 0 0.0893201 0 0.127324)
(0.133282 -0.0043765 0 0.0881812 0 0.126816)
(0.132967 -0.00455266 0 0.0870946 0 0.126312)
(0.132648 -0.00472999 0 0.0860572 0 0.125812)
(0.132329 -0.00490818 0 0.0850667 0 0.125318)
(0.132009 -0.00508687 0 0.0841204 0 0.12483)
(0.13169 -0.0052657 0 0.0832161 0 0.124349)
(0.131374 -0.00544425 0 0.0823514 0 0.123876)
(0.13106 -0.0056221 0 0.0815242 0 0.12341)
(0.130751 -0.00579893 0 0.0807324 0 0.122953)
(0.130445 -0.00597494 0 0.0799735 0 0.122505)
(0.130139 -0.00615246 0 0.079244 0 0.122059)
(0.133352 -0.000209933 0 0.131145 0 0.133354)
(0.133395 -0.000362773 0 0.128832 0 0.133363)
(0.133482 -0.000470547 0 0.126515 0 0.13336)
(0.133597 -0.000577615 0 0.124222 0 0.133333)
(0.1337 -0.00068513 0 0.121982 0 0.133264)
(0.133774 -0.000786441 0 0.119804 0 0.133148)
(0.133813 -0.000882716 0 0.117696 0 0.132988)
(0.133818 -0.000976454 0 0.115662 0 0.132787)
(0.133787 -0.0010684 0 0.113704 0 0.132549)
(0.13372 -0.00115879 0 0.111822 0 0.132276)
(0.13362 -0.00124811 0 0.110016 0 0.131974)
(0.133491 -0.00133695 0 0.108285 0 0.131647)
(0.133333 -0.00142577 0 0.106625 0 0.131297)
(0.133151 -0.00151494 0 0.105036 0 0.130929)
(0.132947 -0.00160477 0 0.103514 0 0.130546)
(0.132723 -0.00169549 0 0.102056 0 0.13015)
(0.132482 -0.00178729 0 0.100661 0 0.129744)
(0.132226 -0.00188027 0 0.0993246 0 0.129329)
(0.131958 -0.00197449 0 0.0980449 0 0.128909)
(0.131679 -0.00206997 0 0.0968191 0 0.128485)
(0.131391 -0.00216667 0 0.0956446 0 0.128057)
(0.131096 -0.00226454 0 0.094519 0 0.127629)
(0.130796 -0.00236347 0 0.0934401 0 0.127201)
(0.130491 -0.00246332 0 0.0924056 0 0.126773)
(0.130183 -0.00256391 0 0.0914133 0 0.126348)
(0.129874 -0.00266505 0 0.0904614 0 0.125925)
(0.129563 -0.00276651 0 0.0895478 0 0.125506)
(0.129253 -0.00286806 0 0.0886709 0 0.125092)
(0.128943 -0.00296943 0 0.0878287 0 0.124682)
(0.128635 -0.0030704 0 0.0870197 0 0.124277)
(0.128328 -0.0031708 0 0.086242 0 0.123878)
(0.128024 -0.00327086 0 0.0854935 0 0.123484)
(0.127718 -0.00337202 0 0.0847679 0 0.12309)
(0.133205 -0.000140241 0 0.131382 0 0.133226)
(0.133061 -0.000232493 0 0.129345 0 0.133103)
(0.132946 -0.000282216 0 0.127332 0 0.132982)
(0.132865 -0.000325171 0 0.12535 0 0.13286)
(0.132794 -0.000368935 0 0.12341 0 0.132722)
(0.132718 -0.000410771 0 0.121516 0 0.132562)
(0.132632 -0.00045146 0 0.119673 0 0.132379)
(0.132532 -0.000492601 0 0.117885 0 0.132171)
(0.132414 -0.000534423 0 0.116154 0 0.131939)
(0.132277 -0.000576738 0 0.114482 0 0.131686)
(0.132122 -0.000619596 0 0.112869 0 0.131412)
(0.131949 -0.000663169 0 0.111314 0 0.131121)
(0.131759 -0.000707598 0 0.109816 0 0.130813)
(0.131554 -0.000752981 0 0.108374 0 0.130493)
(0.131334 -0.000799395 0 0.106986 0 0.13016)
(0.131102 -0.000846895 0 0.105652 0 0.129818)
(0.130859 -0.00089551 0 0.104368 0 0.129468)
(0.130606 -0.000945241 0 0.103133 0 0.129112)
(0.130344 -0.000996065 0 0.101945 0 0.12875)
(0.130075 -0.00104794 0 0.100803 0 0.128385)
(0.129801 -0.00110081 0 0.0997045 0 0.128017)
(0.129521 -0.00115458 0 0.0986477 0 0.127648)
(0.129237 -0.00120917 0 0.0976311 0 0.127279)
(0.12895 -0.00126444 0 0.0966529 0 0.126909)
(0.128661 -0.00132028 0 0.0957117 0 0.126541)
(0.128371 -0.00137653 0 0.0948058 0 0.126175)
(0.12808 -0.00143302 0 0.0939338 0 0.125811)
(0.127789 -0.00148958 0 0.0930943 0 0.12545)
(0.127498 -0.00154603 0 0.0922857 0 0.125092)
(0.127209 -0.00160223 0 0.0915068 0 0.124738)
(0.126921 -0.00165809 0 0.0907561 0 0.124388)
(0.126635 -0.00171373 0 0.0900315 0 0.124042)
(0.126345 -0.00176998 0 0.0893255 0 0.123694)
(0.133111 -0.000104753 0 0.131554 0 0.133134)
(0.132855 -0.000171912 0 0.12971 0 0.132914)
(0.132611 -0.000199515 0 0.12791 0 0.1327)
(0.132395 -0.000214013 0 0.126145 0 0.132493)
(0.132197 -0.000225478 0 0.124419 0 0.132287)
(0.132008 -0.000234288 0 0.122733 0 0.132075)
(0.131822 -0.000241876 0 0.121089 0 0.131854)
(0.131636 -0.000250105 0 0.119489 0 0.131622)
(0.131446 -0.00025961 0 0.117935 0 0.131379)
(0.131249 -0.000270402 0 0.116429 0 0.131124)
(0.131045 -0.000282512 0 0.114971 0 0.130857)
(0.130833 -0.000295999 0 0.113561 0 0.13058)
(0.130612 -0.000310879 0 0.112198 0 0.130293)
(0.130384 -0.00032713 0 0.110881 0 0.129997)
(0.130149 -0.000344723 0 0.109611 0 0.129693)
(0.129906 -0.000363622 0 0.108385 0 0.129383)
(0.129657 -0.000383784 0 0.107202 0 0.129068)
(0.129403 -0.000405153 0 0.106061 0 0.128749)
(0.129144 -0.000427665 0 0.104961 0 0.128426)
(0.128881 -0.000451247 0 0.1039 0 0.1281)
(0.128614 -0.000475813 0 0.102876 0 0.127773)
(0.128345 -0.000501272 0 0.10189 0 0.127446)
(0.128074 -0.00052752 0 0.100938 0 0.127118)
(0.127801 -0.000554444 0 0.100021 0 0.12679)
(0.127527 -0.000581922 0 0.0991355 0 0.126464)
(0.127253 -0.000609822 0 0.0982817 0 0.126139)
(0.126979 -0.000638008 0 0.0974579 0 0.125816)
(0.126705 -0.000666337 0 0.0966631 0 0.125495)
(0.126433 -0.000694676 0 0.0958959 0 0.125177)
(0.126162 -0.000722912 0 0.0951553 0 0.124863)
(0.125892 -0.000750968 0 0.09444 0 0.124551)
(0.125624 -0.000778895 0 0.0937479 0 0.124243)
(0.125352 -0.000807182 0 0.0930709 0 0.123932)
(0.133044 -8.35214e-05 0 0.131686 0 0.133064)
(0.132713 -0.000139496 0 0.129983 0 0.132771)
(0.132385 -0.000160842 0 0.128336 0 0.132484)
(0.132077 -0.000165233 0 0.126731 0 0.132208)
(0.131788 -0.000162379 0 0.125169 0 0.131939)
(0.131512 -0.000154578 0 0.123646 0 0.131674)
(0.131245 -0.000144032 0 0.122161 0 0.13141)
(0.130987 -0.000133051 0 0.120715 0 0.131145)
(0.130734 -0.000122799 0 0.119309 0 0.130877)
(0.130483 -0.000113672 0 0.117944 0 0.130607)
(0.130232 -0.000105889 0 0.116618 0 0.130332)
(0.129982 -9.96049e-05 0 0.115332 0 0.130052)
(0.12973 -9.48797e-05 0 0.114086 0 0.129769)
(0.129476 -9.17101e-05 0 0.11288 0 0.129481)
(0.12922 -9.00618e-05 0 0.111712 0 0.12919)
(0.128963 -8.98831e-05 0 0.110582 0 0.128896)
(0.128703 -9.11071e-05 0 0.109489 0 0.1286)
(0.128442 -9.36551e-05 0 0.108432 0 0.128302)
(0.128179 -9.74395e-05 0 0.10741 0 0.128002)
(0.127916 -0.000102365 0 0.106422 0 0.127701)
(0.127651 -0.000108332 0 0.105467 0 0.1274)
(0.127386 -0.000115233 0 0.104544 0 0.1271)
(0.127121 -0.000122956 0 0.103652 0 0.1268)
(0.126856 -0.000131386 0 0.10279 0 0.126501)
(0.126592 -0.000140401 0 0.101956 0 0.126203)
(0.126328 -0.000149879 0 0.101151 0 0.125907)
(0.126065 -0.000159692 0 0.100372 0 0.125613)
(0.125804 -0.000169718 0 0.0996188 0 0.125322)
(0.125544 -0.000179842 0 0.0988908 0 0.125033)
(0.125287 -0.000189966 0 0.0981867 0 0.124747)
(0.125031 -0.000200011 0 0.0975054 0 0.124465)
(0.124777 -0.000209964 0 0.096845 0 0.124184)
(0.12452 -0.000220016 0 0.0961971 0 0.123902)
(0.132993 -6.90116e-05 0 0.131791 0 0.133009)
(0.132608 -0.00011864 0 0.130196 0 0.132659)
(0.132222 -0.000139577 0 0.128663 0 0.132315)
(0.13185 -0.000142814 0 0.127177 0 0.131982)
(0.131495 -0.000136411 0 0.125736 0 0.13166)
(0.131153 -0.00012326 0 0.124335 0 0.131346)
(0.130823 -0.000105694 0 0.122971 0 0.131039)
(0.130506 -8.60884e-05 0 0.121644 0 0.130738)
(0.130198 -6.59312e-05 0 0.120354 0 0.13044)
(0.129898 -4.59813e-05 0 0.119099 0 0.130145)
(0.129604 -2.67248e-05 0 0.11788 0 0.129851)
(0.129315 -8.5062e-06 0 0.116696 0 0.129559)
(0.12903 8.47023e-06 0 0.115548 0 0.129267)
(0.128748 2.41059e-05 0 0.114433 0 0.128976)
(0.128469 3.83656e-05 0 0.113353 0 0.128685)
(0.128193 5.12544e-05 0 0.112305 0 0.128395)
(0.127918 6.28074e-05 0 0.111291 0 0.128104)
(0.127645 7.30814e-05 0 0.110308 0 0.127815)
(0.127373 8.21485e-05 0 0.109355 0 0.127526)
(0.127103 9.0092e-05 0 0.108433 0 0.127239)
(0.126835 9.70031e-05 0 0.107541 0 0.126952)
(0.126568 0.00010298 0 0.106676 0 0.126667)
(0.126304 0.000108125 0 0.10584 0 0.126384)
(0.126041 0.000112545 0 0.10503 0 0.126103)
(0.12578 0.000116351 0 0.104245 0 0.125824)
(0.125521 0.000119654 0 0.103486 0 0.125547)
(0.125264 0.000122564 0 0.102751 0 0.125273)
(0.12501 0.00012519 0 0.10204 0 0.125002)
(0.124758 0.000127633 0 0.101351 0 0.124734)
(0.124509 0.00012998 0 0.100683 0 0.124468)
(0.124262 0.000132308 0 0.100037 0 0.124206)
(0.124018 0.000134672 0 0.0994091 0 0.123946)
(0.123771 0.000137071 0 0.0987917 0 0.123685)
(0.132951 -5.81863e-05 0 0.131876 0 0.132965)
(0.132525 -0.000103022 0 0.130367 0 0.132569)
(0.132097 -0.000124877 0 0.128922 0 0.13218)
(0.131679 -0.000130131 0 0.127527 0 0.131802)
(0.131275 -0.000124899 0 0.126178 0 0.131436)
(0.130884 -0.000111935 0 0.124871 0 0.13108)
(0.130506 -9.3369e-05 0 0.123602 0 0.130734)
(0.130141 -7.13991e-05 0 0.122369 0 0.130397)
(0.129788 -4.76209e-05 0 0.121172 0 0.130068)
(0.129446 -2.30118e-05 0 0.120008 0 0.129745)
(0.129114 1.75282e-06 0 0.118878 0 0.129429)
(0.12879 2.61721e-05 0 0.11778 0 0.129117)
(0.128473 4.99048e-05 0 0.116714 0 0.12881)
(0.128163 7.27368e-05 0 0.115679 0 0.128507)
(0.12786 9.45391e-05 0 0.114675 0 0.128208)
(0.127561 0.000115242 0 0.1137 0 0.127912)
(0.127268 0.000134822 0 0.112754 0 0.127619)
(0.126979 0.000153287 0 0.111837 0 0.127329)
(0.126695 0.000170672 0 0.110947 0 0.127042)
(0.126414 0.00018703 0 0.110084 0 0.126758)
(0.126137 0.000202429 0 0.109248 0 0.126477)
(0.125864 0.000216944 0 0.108437 0 0.126199)
(0.125595 0.000230663 0 0.10765 0 0.125924)
(0.125329 0.000243675 0 0.106888 0 0.125652)
(0.125066 0.000256076 0 0.106149 0 0.125384)
(0.124807 0.000267962 0 0.105432 0 0.125118)
(0.124551 0.000279429 0 0.104738 0 0.124856)
(0.124299 0.000290571 0 0.104064 0 0.124597)
(0.12405 0.000301475 0 0.103411 0 0.124341)
(0.123804 0.000312221 0 0.102778 0 0.124089)
(0.123562 0.000322884 0 0.102164 0 0.12384)
(0.123323 0.00033354 0 0.101567 0 0.123594)
(0.123083 0.000344314 0 0.100978 0 0.123347)
(0.132917 -4.96693e-05 0 0.131946 0 0.132928)
(0.132457 -9.02158e-05 0 0.130509 0 0.132494)
(0.131996 -0.000112654 0 0.129134 0 0.132068)
(0.131544 -0.000120419 0 0.12781 0 0.131654)
(0.131103 -0.000117932 0 0.126533 0 0.131252)
(0.130676 -0.000107578 0 0.125299 0 0.130861)
(0.130261 -9.11645e-05 0 0.124103 0 0.130482)
(0.129859 -7.05676e-05 0 0.122944 0 0.130113)
(0.12947 -4.72791e-05 0 0.121819 0 0.129755)
(0.129093 -2.23101e-05 0 0.120727 0 0.129405)
(0.128727 3.60273e-06 0 0.119667 0 0.129064)
(0.128371 2.98883e-05 0 0.118638 0 0.128731)
(0.128026 5.6124e-05 0 0.117639 0 0.128405)
(0.127689 8.20124e-05 0 0.116668 0 0.128086)
(0.127361 0.000107348 0 0.115726 0 0.127773)
(0.127041 0.000131992 0 0.114812 0 0.127466)
(0.126728 0.000155861 0 0.113924 0 0.127164)
(0.126421 0.000178911 0 0.113062 0 0.126867)
(0.126121 0.000201132 0 0.112226 0 0.126576)
(0.125827 0.000222537 0 0.111414 0 0.126288)
(0.125539 0.000243157 0 0.110627 0 0.126006)
(0.125256 0.000263041 0 0.109862 0 0.125728)
(0.124978 0.000282246 0 0.109121 0 0.125454)
(0.124705 0.000300837 0 0.108401 0 0.125185)
(0.124437 0.000318887 0 0.107703 0 0.12492)
(0.124174 0.00033647 0 0.107025 0 0.124658)
(0.123915 0.000353661 0 0.106367 0 0.124401)
(0.123661 0.000370536 0 0.105729 0 0.124148)
(0.123411 0.000387164 0 0.10511 0 0.1239)
(0.123165 0.000403612 0 0.104509 0 0.123655)
(0.122924 0.000419946 0 0.103925 0 0.123414)
(0.122686 0.000436252 0 0.103357 0 0.123176)
(0.122448 0.000452744 0 0.102796 0 0.122938)
(0.132888 -4.27421e-05 0 0.132006 0 0.132898)
(0.1324 -7.92494e-05 0 0.130628 0 0.132432)
(0.131913 -0.000101563 0 0.12931 0 0.131975)
(0.131433 -0.000111323 0 0.128045 0 0.131531)
(0.130964 -0.000111623 0 0.126826 0 0.131099)
(0.130508 -0.000104415 0 0.125649 0 0.13068)
(0.130064 -9.1181e-05 0 0.124511 0 0.130272)
(0.129633 -7.34483e-05 0 0.12341 0 0.129876)
(0.129216 -5.25202e-05 0 0.122343 0 0.129492)
(0.12881 -2.93487e-05 0 0.121309 0 0.129118)
(0.128417 -4.65619e-06 0 0.120306 0 0.128754)
(0.128036 2.09789e-05 0 0.119332 0 0.1284)
(0.127665 4.71059e-05 0 0.118388 0 0.128054)
(0.127305 7.33871e-05 0 0.117472 0 0.127718)
(0.126955 9.9572e-05 0 0.116582 0 0.127389)
(0.126614 0.000125478 0 0.115718 0 0.127068)
(0.126281 0.000150975 0 0.11488 0 0.126754)
(0.125957 0.000175978 0 0.114066 0 0.126447)
(0.125641 0.000200437 0 0.113276 0 0.126146)
(0.125333 0.000224328 0 0.112509 0 0.125851)
(0.125031 0.000247651 0 0.111764 0 0.125563)
(0.124736 0.00027042 0 0.111041 0 0.12528)
(0.124448 0.000292667 0 0.110339 0 0.125003)
(0.124166 0.00031443 0 0.109657 0 0.124731)
(0.12389 0.000335757 0 0.108995 0 0.124464)
(0.12362 0.0003567 0 0.108352 0 0.124203)
(0.123355 0.000377313 0 0.107728 0 0.123946)
(0.123096 0.000397651 0 0.107121 0 0.123694)
(0.122842 0.000417769 0 0.106532 0 0.123447)
(0.122593 0.000437717 0 0.10596 0 0.123205)
(0.122349 0.000457549 0 0.105404 0 0.122967)
(0.12211 0.000477349 0 0.104862 0 0.122732)
(0.12187 0.000497367 0 0.104327 0 0.122498)
(0.132863 -3.69765e-05 0 0.132057 0 0.132872)
(0.132351 -6.96736e-05 0 0.13073 0 0.132378)
(0.131841 -9.12259e-05 0 0.129461 0 0.131896)
(0.131339 -0.000102226 0 0.128243 0 0.131427)
(0.130848 -0.000104774 0 0.127071 0 0.13097)
(0.130369 -0.000100426 0 0.125942 0 0.130526)
(0.129903 -9.03862e-05 0 0.124851 0 0.130095)
(0.129449 -7.58852e-05 0 0.123797 0 0.129676)
(0.129009 -5.8025e-05 0 0.122776 0 0.12927)
(0.128581 -3.7656e-05 0 0.121788 0 0.128874)
(0.128165 -1.54406e-05 0 0.12083 0 0.12849)
(0.127762 8.0814e-06 0 0.119902 0 0.128116)
(0.12737 3.24763e-05 0 0.119002 0 0.127753)
(0.12699 5.74059e-05 0 0.118128 0 0.127399)
(0.12662 8.26091e-05 0 0.117281 0 0.127054)
(0.12626 0.000107886 0 0.116459 0 0.126719)
(0.125911 0.000133086 0 0.115661 0 0.126391)
(0.12557 0.000158099 0 0.114886 0 0.126072)
(0.125239 0.000182851 0 0.114134 0 0.12576)
(0.124916 0.000207293 0 0.113404 0 0.125456)
(0.124601 0.000231399 0 0.112695 0 0.125159)
(0.124294 0.00025516 0 0.112007 0 0.124868)
(0.123994 0.000278582 0 0.111338 0 0.124584)
(0.123702 0.000301682 0 0.110688 0 0.124307)
(0.123417 0.000324485 0 0.110057 0 0.124035)
(0.123138 0.000347022 0 0.109445 0 0.12377)
(0.122866 0.000369328 0 0.108849 0 0.12351)
(0.1226 0.000391437 0 0.108271 0 0.123256)
(0.12234 0.000413387 0 0.107708 0 0.123007)
(0.122086 0.000435213 0 0.107162 0 0.122763)
(0.121837 0.000456956 0 0.106631 0 0.122524)
(0.121594 0.000478693 0 0.106113 0 0.12229)
(0.121351 0.000500709 0 0.105601 0 0.122056)
(0.132842 -3.20898e-05 0 0.132101 0 0.132849)
(0.132309 -6.12249e-05 0 0.130818 0 0.132333)
(0.13178 -8.15628e-05 0 0.129591 0 0.131828)
(0.131259 -9.311e-05 0 0.128413 0 0.131337)
(0.130749 -9.72523e-05 0 0.127282 0 0.13086)
(0.130252 -9.51989e-05 0 0.126191 0 0.130396)
(0.129767 -8.79259e-05 0 0.125139 0 0.129944)
(0.129295 -7.6421e-05 0 0.124123 0 0.129506)
(0.128836 -6.15993e-05 0 0.123141 0 0.12908)
(0.128389 -4.41987e-05 0 0.12219 0 0.128667)
(0.127956 -2.4807e-05 0 0.12127 0 0.128265)
(0.127535 -3.90947e-06 0 0.120378 0 0.127874)
(0.127126 1.80958e-05 0 0.119514 0 0.127494)
(0.126728 4.08897e-05 0 0.118677 0 0.127125)
(0.126342 6.42194e-05 0 0.117864 0 0.126765)
(0.125966 8.78852e-05 0 0.117077 0 0.126415)
(0.125601 0.000111731 0 0.116312 0 0.126075)
(0.125246 0.000135639 0 0.11557 0 0.125743)
(0.124901 0.00015952 0 0.11485 0 0.12542)
(0.124565 0.000183311 0 0.114151 0 0.125106)
(0.124238 0.000206971 0 0.113472 0 0.124799)
(0.123919 0.000230473 0 0.112813 0 0.124499)
(0.123609 0.000253806 0 0.112173 0 0.124207)
(0.123306 0.00027697 0 0.111552 0 0.123922)
(0.123011 0.000299971 0 0.110947 0 0.123644)
(0.122724 0.000322824 0 0.110361 0 0.123373)
(0.122443 0.000345546 0 0.10979 0 0.123108)
(0.12217 0.000368158 0 0.109236 0 0.122849)
(0.121903 0.000390679 0 0.108697 0 0.122596)
(0.121643 0.000413133 0 0.108173 0 0.122348)
(0.121389 0.000435546 0 0.107664 0 0.122107)
(0.12114 0.000457983 0 0.107167 0 0.12187)
(0.120893 0.000480727 0 0.106675 0 0.121634)
(0.132823 -2.78829e-05 0 0.13214 0 0.132829)
(0.132272 -5.37138e-05 0 0.130895 0 0.132293)
(0.131726 -7.25537e-05 0 0.129704 0 0.131769)
(0.131189 -8.41039e-05 0 0.128562 0 0.13126)
(0.130664 -8.92455e-05 0 0.127464 0 0.130764)
(0.13015 -8.88975e-05 0 0.126407 0 0.130282)
(0.12965 -8.3847e-05 0 0.125388 0 0.129814)
(0.129163 -7.48889e-05 0 0.124404 0 0.129359)
(0.128688 -6.27794e-05 0 0.123453 0 0.128917)
(0.128227 -4.8152e-05 0 0.122534 0 0.128488)
(0.127779 -3.15218e-05 0 0.121644 0 0.12807)
(0.127343 -1.33177e-05 0 0.120783 0 0.127665)
(0.126919 6.10368e-06 0 0.119949 0 0.127271)
(0.126508 2.64522e-05 0 0.11914 0 0.126887)
(0.126107 4.74939e-05 0 0.118357 0 0.126515)
(0.125719 6.9041e-05 0 0.117597 0 0.126152)
(0.125341 9.09439e-05 0 0.11686 0 0.1258)
(0.124973 0.000113085 0 0.116145 0 0.125457)
(0.124616 0.000135375 0 0.115452 0 0.125123)
(0.124268 0.000157746 0 0.114778 0 0.124798)
(0.123929 0.000180147 0 0.114124 0 0.124481)
(0.1236 0.000202545 0 0.11349 0 0.124173)
(0.12328 0.000224919 0 0.112873 0 0.123872)
(0.122968 0.000247255 0 0.112274 0 0.123579)
(0.122664 0.000269552 0 0.111693 0 0.123294)
(0.122368 0.000291809 0 0.111128 0 0.123015)
(0.122079 0.000314032 0 0.110578 0 0.122744)
(0.121798 0.00033623 0 0.110044 0 0.122479)
(0.121524 0.000358412 0 0.109525 0 0.122221)
(0.121257 0.000380587 0 0.109021 0 0.121968)
(0.120997 0.000402774 0 0.10853 0 0.121722)
(0.120743 0.00042503 0 0.108051 0 0.121481)
(0.12049 0.000447637 0 0.107577 0 0.121242)
(0.132807 -2.42097e-05 0 0.132174 0 0.132812)
(0.132239 -4.69875e-05 0 0.130962 0 0.132258)
(0.131678 -6.41727e-05 0 0.129803 0 0.131717)
(0.131127 -7.53281e-05 0 0.128692 0 0.131191)
(0.130588 -8.09859e-05 0 0.127623 0 0.13068)
(0.130062 -8.18277e-05 0 0.126595 0 0.130183)
(0.129548 -7.84822e-05 0 0.125604 0 0.1297)
(0.129048 -7.15897e-05 0 0.124648 0 0.129231)
(0.128561 -6.17722e-05 0 0.123724 0 0.128775)
(0.128087 -4.95684e-05 0 0.122831 0 0.128332)
(0.127626 -3.54251e-05 0 0.121968 0 0.127901)
(0.127178 -1.97175e-05 0 0.121132 0 0.127483)
(0.126742 -2.76032e-06 0 0.120323 0 0.127076)
(0.126319 1.5187e-05 0 0.119539 0 0.126681)
(0.125907 3.39129e-05 0 0.11878 0 0.126297)
(0.125507 5.32455e-05 0 0.118043 0 0.125923)
(0.125118 7.30459e-05 0 0.11733 0 0.12556)
(0.12474 9.32034e-05 0 0.116637 0 0.125207)
(0.124372 0.000113631 0 0.115966 0 0.124863)
(0.124014 0.00013426 0 0.115314 0 0.124528)
(0.123666 0.00015504 0 0.114681 0 0.124202)
(0.123328 0.000175932 0 0.114067 0 0.123885)
(0.122998 0.000196909 0 0.11347 0 0.123577)
(0.122678 0.000217953 0 0.112891 0 0.123276)
(0.122366 0.000239051 0 0.112328 0 0.122983)
(0.122062 0.000260198 0 0.111781 0 0.122698)
(0.121766 0.00028139 0 0.11125 0 0.12242)
(0.121478 0.000302626 0 0.110733 0 0.122149)
(0.121198 0.000323908 0 0.110231 0 0.121885)
(0.120924 0.000345236 0 0.109743 0 0.121627)
(0.120658 0.000366619 0 0.109268 0 0.121376)
(0.120398 0.000388104 0 0.108804 0 0.12113)
(0.12014 0.000409955 0 0.108346 0 0.120886)
(0.132792 -2.09601e-05 0 0.132204 0 0.132797)
(0.13221 -4.09178e-05 0 0.131023 0 0.132227)
(0.131636 -5.63773e-05 0 0.129892 0 0.131671)
(0.131073 -6.68592e-05 0 0.128807 0 0.131131)
(0.130522 -7.26599e-05 0 0.127765 0 0.130606)
(0.129984 -7.42718e-05 0 0.126761 0 0.130096)
(0.129459 -7.21892e-05 0 0.125795 0 0.1296)
(0.128947 -6.69263e-05 0 0.124862 0 0.129118)
(0.128449 -5.89921e-05 0 0.123962 0 0.12865)
(0.127964 -4.88409e-05 0 0.123092 0 0.128195)
(0.127493 -3.68575e-05 0 0.122251 0 0.127753)
(0.127034 -2.33685e-05 0 0.121437 0 0.127324)
(0.126588 -8.64989e-06 0 0.120649 0 0.126906)
(0.126155 7.06829e-06 0 0.119886 0 0.126501)
(0.125734 2.35966e-05 0 0.119147 0 0.126106)
(0.125324 4.078e-05 0 0.118431 0 0.125723)
(0.124926 5.84921e-05 0 0.117736 0 0.12535)
(0.124538 7.66306e-05 0 0.117063 0 0.124987)
(0.124162 9.51141e-05 0 0.11641 0 0.124635)
(0.123795 0.000113878 0 0.115776 0 0.124291)
(0.123439 0.000132872 0 0.115161 0 0.123957)
(0.123093 0.000152057 0 0.114563 0 0.123633)
(0.122755 0.000171404 0 0.113984 0 0.123316)
(0.122427 0.000190891 0 0.11342 0 0.123008)
(0.122108 0.000210502 0 0.112873 0 0.122709)
(0.121797 0.000230227 0 0.112342 0 0.122417)
(0.121495 0.000250056 0 0.111825 0 0.122132)
(0.121201 0.000269983 0 0.111323 0 0.121855)
(0.120914 0.000290004 0 0.110835 0 0.121585)
(0.120635 0.000310114 0 0.11036 0 0.121322)
(0.120363 0.000330316 0 0.109899 0 0.121066)
(0.120098 0.00035065 0 0.109448 0 0.120815)
(0.119835 0.000371367 0 0.109002 0 0.120567)
(0.132779 -1.80492e-05 0 0.13223 0 0.132783)
(0.132184 -3.53958e-05 0 0.131076 0 0.132199)
(0.131598 -4.91129e-05 0 0.129971 0 0.13163)
(0.131024 -5.87321e-05 0 0.12891 0 0.131077)
(0.130462 -6.4395e-05 0 0.12789 0 0.13054)
(0.129914 -6.6446e-05 0 0.126909 0 0.130018)
(0.129379 -6.52667e-05 0 0.125964 0 0.129511)
(0.128858 -6.12661e-05 0 0.125053 0 0.129018)
(0.12835 -5.48575e-05 0 0.124173 0 0.128539)
(0.127856 -4.64196e-05 0 0.123323 0 0.128074)
(0.127375 -3.62804e-05 0 0.122501 0 0.127622)
(0.126908 -2.47214e-05 0 0.121706 0 0.127183)
(0.126453 -1.19824e-05 0 0.120936 0 0.126756)
(0.126011 1.73465e-06 0 0.120191 0 0.126341)
(0.125581 1.6262e-05 0 0.11947 0 0.125938)
(0.125164 3.14612e-05 0 0.11877 0 0.125546)
(0.124757 4.72185e-05 0 0.118093 0 0.125164)
(0.124362 6.34413e-05 0 0.117435 0 0.124794)
(0.123978 8.00544e-05 0 0.116798 0 0.124433)
(0.123605 9.69977e-05 0 0.116179 0 0.124083)
(0.123241 0.000114223 0 0.115579 0 0.123742)
(0.122888 0.000131693 0 0.114997 0 0.12341)
(0.122544 0.000149377 0 0.114431 0 0.123087)
(0.12221 0.000167252 0 0.113881 0 0.122772)
(0.121884 0.000185301 0 0.113348 0 0.122466)
(0.121568 0.000203508 0 0.112829 0 0.122168)
(0.12126 0.000221862 0 0.112325 0 0.121878)
(0.12096 0.000240353 0 0.111836 0 0.121596)
(0.120668 0.000258972 0 0.111359 0 0.12132)
(0.120384 0.00027771 0 0.110896 0 0.121052)
(0.120107 0.000296566 0 0.110446 0 0.120791)
(0.119837 0.000315572 0 0.110006 0 0.120536)
(0.11957 0.000334957 0 0.109571 0 0.120283)
(0.132767 -1.54104e-05 0 0.132254 0 0.132771)
(0.13216 -3.03288e-05 0 0.131125 0 0.132174)
(0.131564 -4.23186e-05 0 0.130042 0 0.131594)
(0.13098 -5.09505e-05 0 0.129002 0 0.131029)
(0.130409 -5.62679e-05 0 0.128004 0 0.130481)
(0.129851 -5.85019e-05 0 0.127042 0 0.129948)
(0.129307 -5.794e-05 0 0.126116 0 0.129431)
(0.128777 -5.49025e-05 0 0.125223 0 0.128928)
(0.128261 -4.9721e-05 0 0.124361 0 0.12844)
(0.127759 -4.27065e-05 0 0.123528 0 0.127966)
(0.127271 -3.41344e-05 0 0.122724 0 0.127505)
(0.126795 -2.42443e-05 0 0.121945 0 0.127057)
(0.126333 -1.32425e-05 0 0.121192 0 0.126622)
(0.125884 -1.3043e-06 0 0.120462 0 0.126199)
(0.125447 1.14232e-05 0 0.119756 0 0.125788)
(0.125022 2.48174e-05 0 0.119071 0 0.125388)
(0.124609 3.87769e-05 0 0.118408 0 0.125)
(0.124207 5.32182e-05 0 0.117764 0 0.124622)
(0.123817 6.80728e-05 0 0.11714 0 0.124255)
(0.123437 8.32852e-05 0 0.116535 0 0.123898)
(0.123068 9.88104e-05 0 0.115947 0 0.12355)
(0.122708 0.000114612 0 0.115377 0 0.123212)