/*--------------------------------*- C++ -*----------------------------------*\
| =========                 |                                                 |
| \\      /  F ield         | OpenFOAM: The Open Source CFD Toolbox           |
|  \\    /   O peration     | Version:  4.1                                   |
|   \\  /    A nd           | Web:      www.OpenFOAM.org                      |
|    \\/     M anipulation  |                                                 |
\*---------------------------------------------------------------------------*/
FoamFile
{
    version     2.0;
    format      ascii;
    class       volVectorField;
    location    "400";
    object      U;
}
// * * * * * * * * * * * * * * * * * * * * * * * * * * * * * * * * * * * * * //

dimensions      [0 1 -1 0 0 0 0];

internalField   nonuniform List<vector> 
6820
(
(7.2813 0.0192602 0)
(7.18936 0.032922 0)
(7.08951 0.0360681 0)
(6.98492 0.0374716 0)
(6.88227 0.0387325 0)
(6.78312 0.0397529 0)
(6.68721 0.0405123 0)
(6.59477 0.0410253 0)
(6.50624 0.041266 0)
(6.42184 0.0412124 0)
(6.34153 0.0408708 0)
(6.26525 0.0402684 0)
(6.19289 0.0394409 0)
(6.12431 0.0384256 0)
(6.05935 0.0372592 0)
(5.99786 0.0359756 0)
(5.93967 0.0346049 0)
(5.88461 0.0331734 0)
(5.83254 0.031703 0)
(5.78331 0.030212 0)
(5.73676 0.0287153 0)
(5.69279 0.0272246 0)
(5.65125 0.025749 0)
(5.61203 0.0242954 0)
(5.57503 0.0228683 0)
(5.54015 0.021471 0)
(5.50729 0.0201036 0)
(5.4764 0.0187678 0)
(5.44735 0.0174496 0)
(5.4203 0.0161697 0)
(5.39456 0.0148466 0)
(5.37302 0.013382 0)
(5.3477 0.013174 0)
(7.35129 0.0206775 0)
(7.39587 0.032261 0)
(7.42787 0.0326346 0)
(7.44987 0.0332001 0)
(7.46739 0.0343575 0)
(7.48118 0.0351411 0)
(7.49063 0.0355144 0)
(7.49592 0.0356483 0)
(7.49762 0.0356029 0)
(7.4962 0.035399 0)
(7.49206 0.0350701 0)
(7.48555 0.0346539 0)
(7.47705 0.0341801 0)
(7.46689 0.0336689 0)
(7.45536 0.0331342 0)
(7.44271 0.0325856 0)
(7.42917 0.0320296 0)
(7.41492 0.0314701 0)
(7.40014 0.0309092 0)
(7.38496 0.0303478 0)
(7.3695 0.029786 0)
(7.35387 0.0292234 0)
(7.33815 0.0286591 0)
(7.32242 0.0280918 0)
(7.30675 0.0275195 0)
(7.29117 0.02694 0)
(7.27575 0.0263484 0)
(7.26053 0.0257435 0)
(7.24552 0.0250997 0)
(7.23078 0.0244625 0)
(7.21634 0.0235918 0)
(7.20196 0.0230567 0)
(7.18885 0.0207257 0)
(7.33498 0.0124973 0)
(7.34478 0.0201471 0)
(7.35181 0.0214415 0)
(7.35496 0.0233109 0)
(7.35732 0.0252241 0)
(7.3598 0.0263793 0)
(7.362 0.0270156 0)
(7.36385 0.0274509 0)
(7.36548 0.0277862 0)
(7.36697 0.0280394 0)
(7.36828 0.0282287 0)
(7.36937 0.0283719 0)
(7.37022 0.0284779 0)
(7.37083 0.0285486 0)
(7.37117 0.0285839 0)
(7.37125 0.0285837 0)
(7.37106 0.0285478 0)
(7.3706 0.0284764 0)
(7.36989 0.0283698 0)
(7.36892 0.0282285 0)
(7.3677 0.0280534 0)
(7.36626 0.0278452 0)
(7.36459 0.0276047 0)
(7.36273 0.0273325 0)
(7.36067 0.0270286 0)
(7.35845 0.0266925 0)
(7.35606 0.0263221 0)
(7.35354 0.0259147 0)
(7.35089 0.0254612 0)
(7.34814 0.024953 0)
(7.34527 0.0243679 0)
(7.34224 0.0236231 0)
(7.33919 0.0228589 0)
(7.3347 0.00985765 0)
(7.34304 0.0202387 0)
(7.35045 0.0247369 0)
(7.35468 0.0280657 0)
(7.35778 0.0307856 0)
(7.36078 0.0326883 0)
(7.36343 0.0340255 0)
(7.36565 0.0350446 0)
(7.36758 0.0358141 0)
(7.36932 0.0363438 0)
(7.3709 0.0366576 0)
(7.37232 0.036789 0)
(7.37361 0.0367681 0)
(7.37479 0.0366205 0)
(7.37586 0.0363684 0)
(7.37685 0.0360319 0)
(7.37775 0.0356282 0)
(7.37857 0.0351716 0)
(7.37933 0.0346735 0)
(7.38002 0.0341433 0)
(7.38065 0.0335879 0)
(7.38122 0.033013 0)
(7.38175 0.0324221 0)
(7.38223 0.0318178 0)
(7.38266 0.0312009 0)
(7.38306 0.0305711 0)
(7.38343 0.029926 0)
(7.38377 0.0292628 0)
(7.38409 0.0285718 0)
(7.38439 0.0278505 0)
(7.38466 0.0270706 0)
(7.38486 0.0262422 0)
(7.385 0.0253809 0)
(7.33417 0.00784831 0)
(7.3405 0.0172861 0)
(7.34711 0.0212447 0)
(7.35171 0.0237396 0)
(7.35548 0.0258461 0)
(7.3592 0.0273754 0)
(7.36269 0.0284074 0)
(7.36581 0.0291384 0)
(7.36867 0.0296592 0)
(7.37135 0.0300036 0)
(7.37387 0.0302063 0)
(7.37624 0.0303033 0)
(7.37848 0.0303215 0)
(7.3806 0.0302792 0)
(7.38261 0.0301892 0)
(7.38452 0.0300609 0)
(7.38634 0.0299011 0)
(7.38808 0.0297144 0)
(7.38974 0.0295035 0)
(7.39133 0.0292702 0)
(7.39287 0.0290155 0)
(7.39435 0.0287397 0)
(7.39577 0.0284422 0)
(7.39716 0.0281224 0)
(7.39851 0.0277786 0)
(7.39982 0.0274086 0)
(7.40111 0.0270091 0)
(7.40237 0.0265762 0)
(7.40361 0.0261034 0)
(7.40483 0.0255853 0)
(7.40602 0.0250142 0)
(7.40716 0.0243894 0)
(7.40828 0.0237421 0)
(7.33381 0.00630815 0)
(7.33861 0.015053 0)
(7.34442 0.0196739 0)
(7.34904 0.0229088 0)
(7.35295 0.0256549 0)
(7.35676 0.0277447 0)
(7.36038 0.0292499 0)
(7.3637 0.0303831 0)
(7.36678 0.031257 0)
(7.36971 0.0319117 0)
(7.3725 0.0323792 0)
(7.37514 0.0326914 0)
(7.37766 0.0328736 0)
(7.38007 0.0329443 0)
(7.38237 0.0329192 0)
(7.38459 0.0328116 0)
(7.38672 0.0326331 0)
(7.38877 0.0323937 0)
(7.39076 0.0321014 0)
(7.39268 0.0317632 0)
(7.39455 0.0313847 0)
(7.39637 0.0309703 0)
(7.39815 0.0305233 0)
(7.39988 0.030046 0)
(7.40158 0.0295395 0)
(7.40326 0.0290039 0)
(7.4049 0.0284382 0)
(7.40652 0.0278403 0)
(7.40812 0.0272069 0)
(7.4097 0.0265349 0)
(7.41124 0.0258225 0)
(7.41275 0.02507 0)
(7.41424 0.0243013 0)
(7.33356 0.0051929 0)
(7.33722 0.0131522 0)
(7.34215 0.0178497 0)
(7.34647 0.0210089 0)
(7.35023 0.0235007 0)
(7.35391 0.0253409 0)
(7.35746 0.0266287 0)
(7.36078 0.0275578 0)
(7.36391 0.0282365 0)
(7.3669 0.0287079 0)
(7.36975 0.0290072 0)
(7.37249 0.0291695 0)
(7.37511 0.0292232 0)
(7.37763 0.0291895 0)
(7.38006 0.0290853 0)
(7.38241 0.0289239 0)
(7.38469 0.0287161 0)
(7.38689 0.0284698 0)
(7.38903 0.0281911 0)
(7.39112 0.0278843 0)
(7.39315 0.0275523 0)
(7.39513 0.027197 0)
(7.39708 0.0268191 0)
(7.39898 0.0264186 0)
(7.40086 0.0259946 0)
(7.4027 0.0255454 0)
(7.40451 0.0250688 0)
(7.4063 0.0245618 0)
(7.40806 0.0240211 0)
(7.4098 0.0234437 0)
(7.4115 0.0228284 0)
(7.41318 0.0221744 0)
(7.41483 0.0214934 0)
(7.33341 0.00435407 0)
(7.33622 0.0115122 0)
(7.34039 0.0161791 0)
(7.34439 0.0194302 0)
(7.34802 0.0220355 0)
(7.35159 0.0240694 0)
(7.35507 0.025591 0)
(7.35837 0.0267479 0)
(7.36151 0.0276395 0)
(7.36451 0.0283124 0)
(7.3674 0.028802 0)
(7.37017 0.0291417 0)
(7.37283 0.0293581 0)
(7.3754 0.0294704 0)
(7.37789 0.029494 0)
(7.38029 0.0294414 0)
(7.38262 0.0293226 0)
(7.38488 0.0291458 0)
(7.38707 0.0289175 0)
(7.38922 0.028643 0)
(7.3913 0.0283264 0)
(7.39335 0.027971 0)
(7.39535 0.0275789 0)
(7.39731 0.0271517 0)
(7.39924 0.0266901 0)
(7.40113 0.026194 0)
(7.403 0.0256628 0)
(7.40483 0.0250954 0)
(7.40665 0.0244902 0)
(7.40843 0.0238462 0)
(7.41018 0.0231633 0)
(7.41191 0.0224419 0)
(7.41361 0.0216872 0)
(7.3333 0.00371119 0)
(7.3355 0.0101264 0)
(7.33902 0.0146535 0)
(7.34267 0.0178901 0)
(7.34609 0.0204422 0)
(7.34947 0.0224212 0)
(7.3528 0.0238861 0)
(7.35601 0.0249701 0)
(7.35908 0.0257765 0)
(7.36203 0.0263594 0)
(7.36488 0.0267573 0)
(7.36764 0.0270048 0)
(7.3703 0.0271299 0)
(7.37287 0.0271537 0)
(7.37536 0.0270933 0)
(7.37778 0.0269625 0)
(7.38013 0.0267726 0)
(7.38242 0.0265325 0)
(7.38464 0.0262492 0)
(7.38682 0.0259282 0)
(7.38894 0.0255735 0)
(7.39102 0.025188 0)
(7.39306 0.0247735 0)
(7.39506 0.024331 0)
(7.39703 0.0238607 0)
(7.39896 0.0233619 0)
(7.40086 0.0228338 0)
(7.40273 0.0222747 0)
(7.40458 0.0216832 0)
(7.40639 0.0210579 0)
(7.40817 0.0203981 0)
(7.40993 0.0197032 0)
(7.41166 0.0189743 0)
(7.33324 0.00320664 0)
(7.33498 0.00894498 0)
(7.33796 0.0132525 0)
(7.34126 0.0164263 0)
(7.34446 0.0189338 0)
(7.34767 0.0209136 0)
(7.35086 0.0224262 0)
(7.35397 0.0235807 0)
(7.35698 0.024468 0)
(7.35989 0.0251392 0)
(7.36271 0.02563 0)
(7.36544 0.0259721 0)
(7.36809 0.0261913 0)
(7.37066 0.0263074 0)
(7.37316 0.026336 0)
(7.37558 0.0262897 0)
(7.37794 0.0261786 0)
(7.38023 0.0260107 0)
(7.38247 0.0257923 0)
(7.38465 0.0255282 0)
(7.38679 0.0252222 0)
(7.38887 0.0248771 0)
(7.39092 0.0244949 0)
(7.39293 0.0240766 0)
(7.3949 0.023623 0)
(7.39683 0.023134 0)
(7.39873 0.0226094 0)
(7.4006 0.0220484 0)
(7.40244 0.0214505 0)
(7.40425 0.0208148 0)
(7.40602 0.0201414 0)
(7.40776 0.0194299 0)
(7.40947 0.0186804 0)
(7.33319 0.00280001 0)
(7.3346 0.00793172 0)
(7.33714 0.0119767 0)
(7.3401 0.0150484 0)
(7.34309 0.0174854 0)
(7.3461 0.0194235 0)
(7.34914 0.0209188 0)
(7.35212 0.0220587 0)
(7.35503 0.0229248 0)
(7.35786 0.0235692 0)
(7.36062 0.0240285 0)
(7.36331 0.0243346 0)
(7.36591 0.0245138 0)
(7.36845 0.0245867 0)
(7.37091 0.0245697 0)
(7.37331 0.024476 0)
(7.37565 0.0243165 0)
(7.37793 0.0241001 0)
(7.38016 0.0238336 0)
(7.38234 0.0235226 0)
(7.38446 0.0231715 0)
(7.38655 0.0227834 0)
(7.38859 0.0223606 0)
(7.39059 0.0219047 0)
(7.39255 0.0214166 0)
(7.39448 0.0208965 0)
(7.39637 0.0203443 0)
(7.39823 0.0197597 0)
(7.40006 0.0191421 0)
(7.40186 0.0184909 0)
(7.40362 0.0178059 0)
(7.40535 0.0170865 0)
(7.40705 0.0163317 0)
(7.33316 0.00246405 0)
(7.33432 0.00705505 0)
(7.3365 0.0108143 0)
(7.33916 0.0137499 0)
(7.34192 0.0160964 0)
(7.34475 0.0179785 0)
(7.34763 0.019452 0)
(7.35049 0.0205904 0)
(7.35331 0.0214667 0)
(7.35606 0.0221307 0)
(7.35876 0.0226177 0)
(7.36139 0.0229574 0)
(7.36396 0.0231744 0)
(7.36647 0.023288 0)
(7.36891 0.0233136 0)
(7.37129 0.0232636 0)
(7.37361 0.023148 0)
(7.37588 0.0229749 0)
(7.37809 0.0227506 0)
(7.38026 0.0224801 0)
(7.38237 0.0221671 0)
(7.38445 0.0218146 0)
(7.38648 0.0214246 0)
(7.38847 0.0209984 0)
(7.39042 0.0205368 0)
(7.39233 0.0200404 0)
(7.39421 0.019509 0)
(7.39605 0.0189425 0)
(7.39786 0.0183408 0)
(7.39963 0.0177034 0)
(7.40136 0.0170302 0)
(7.40306 0.016321 0)
(7.40473 0.0155748 0)
(7.33314 0.00217999 0)
(7.33411 0.00628853 0)
(7.33599 0.00975376 0)
(7.33838 0.0125292 0)
(7.34094 0.0147693 0)
(7.34359 0.0165802 0)
(7.34631 0.0180141 0)
(7.34905 0.0191308 0)
(7.35175 0.0199923 0)
(7.35442 0.0206446 0)
(7.35705 0.021121 0)
(7.35962 0.0214493 0)
(7.36213 0.0216532 0)
(7.36459 0.0217515 0)
(7.36699 0.0217593 0)
(7.36933 0.0216892 0)
(7.37162 0.0215512 0)
(7.37385 0.0213535 0)
(7.37604 0.0211029 0)
(7.37818 0.0208044 0)
(7.38027 0.0204624 0)
(7.38232 0.0200801 0)
(7.38433 0.0196599 0)
(7.38629 0.0192037 0)
(7.38822 0.0187125 0)
(7.39011 0.0181874 0)
(7.39196 0.0176286 0)
(7.39377 0.0170364 0)
(7.39555 0.016411 0)
(7.39729 0.0157523 0)
(7.399 0.0150604 0)
(7.40067 0.0143353 0)
(7.4023 0.0135762 0)
(7.33312 0.0019348 0)
(7.33395 0.00561089 0)
(7.33559 0.00878341 0)
(7.33773 0.0113815 0)
(7.3401 0.0135011 0)
(7.34258 0.0152275 0)
(7.34515 0.0166081 0)
(7.34776 0.0176929 0)
(7.35037 0.0185351 0)
(7.35295 0.0191768 0)
(7.3555 0.0196499 0)
(7.358 0.0199807 0)
(7.36046 0.0201914 0)
(7.36287 0.0203 0)
(7.36523 0.020321 0)
(7.36754 0.0202661 0)
(7.3698 0.0201452 0)
(7.37201 0.0199658 0)
(7.37417 0.0197343 0)
(7.37628 0.0194556 0)
(7.37835 0.0191337 0)
(7.38038 0.0187716 0)
(7.38236 0.0183714 0)
(7.38431 0.017935 0)
(7.38621 0.0174634 0)
(7.38807 0.0169574 0)
(7.3899 0.0164175 0)
(7.39169 0.015844 0)
(7.39344 0.0152371 0)
(7.39515 0.014597 0)
(7.39682 0.0139237 0)
(7.39846 0.0132173 0)
(7.40005 0.0124772 0)
(7.33311 0.00171933 0)
(7.33382 0.0050051 0)
(7.33526 0.00789176 0)
(7.3372 0.0103013 0)
(7.33938 0.012289 0)
(7.34171 0.0139199 0)
(7.34414 0.0152357 0)
(7.34663 0.0162778 0)
(7.34913 0.0170908 0)
(7.35162 0.0177121 0)
(7.35409 0.0181709 0)
(7.35653 0.0184912 0)
(7.35893 0.0186934 0)
(7.36128 0.0187944 0)
(7.3636 0.0188078 0)
(7.36586 0.018745 0)
(7.36808 0.018615 0)
(7.37025 0.0184255 0)
(7.37238 0.0181827 0)
(7.37446 0.0178914 0)
(7.3765 0.0175556 0)
(7.37849 0.0171785 0)
(7.38044 0.0167626 0)
(7.38235 0.0163096 0)
(7.38423 0.0158212 0)
(7.38606 0.0152983 0)
(7.38785 0.0147417 0)
(7.3896 0.0141521 0)
(7.39132 0.0135301 0)
(7.39299 0.012876 0)
(7.39463 0.0121902 0)
(7.39622 0.0114734 0)
(7.39778 0.010725 0)
(7.3331 0.00152696 0)
(7.33372 0.00445761 0)
(7.335 0.00706818 0)
(7.33676 0.00928288 0)
(7.33878 0.0111295 0)
(7.34096 0.0126556 0)
(7.34325 0.0138963 0)
(7.34562 0.0148859 0)
(7.34802 0.0156614 0)
(7.35042 0.016256 0)
(7.35281 0.0166961 0)
(7.35519 0.0170038 0)
(7.35753 0.0171981 0)
(7.35983 0.0172948 0)
(7.36209 0.0173067 0)
(7.36432 0.0172446 0)
(7.3665 0.0171173 0)
(7.36863 0.0169321 0)
(7.37073 0.0166948 0)
(7.37278 0.0164102 0)
(7.37478 0.0160821 0)
(7.37675 0.0157136 0)
(7.37867 0.0153071 0)
(7.38055 0.0148644 0)
(7.38239 0.014387 0)
(7.38419 0.0138761 0)
(7.38595 0.0133325 0)
(7.38767 0.0127568 0)
(7.38935 0.0121498 0)
(7.39099 0.0115118 0)
(7.39259 0.0108435 0)
(7.39415 0.0101454 0)
(7.39567 0.00941711 0)
(7.3331 0.00135283 0)
(7.33364 0.00395757 0)
(7.33479 0.00630302 0)
(7.33639 0.00831997 0)
(7.33826 0.0100186 0)
(7.3403 0.0114322 0)
(7.34247 0.012589 0)
(7.34473 0.0135173 0)
(7.34703 0.0142478 0)
(7.34935 0.014809 0)
(7.35166 0.0152244 0)
(7.35397 0.0155139 0)
(7.35625 0.0156947 0)
(7.3585 0.0157811 0)
(7.36071 0.0157851 0)
(7.36289 0.0157165 0)
(7.36503 0.0155836 0)
(7.36712 0.0153932 0)
(7.36918 0.0151508 0)
(7.37119 0.014861 0)
(7.37316 0.0145275 0)
(7.37509 0.0141533 0)
(7.37698 0.0137408 0)
(7.37882 0.0132919 0)
(7.38063 0.0128083 0)
(7.38239 0.0122912 0)
(7.38411 0.0117416 0)
(7.3858 0.0111605 0)
(7.38744 0.0105486 0)
(7.38904 0.00990666 0)
(7.3906 0.00923551 0)
(7.39212 0.00853603 0)
(7.39359 0.00780806 0)
(7.33309 0.00119325 0)
(7.33358 0.00349626 0)
(7.33461 0.00558759 0)
(7.33608 0.00740634 0)
(7.33782 0.00895198 0)
(7.33974 0.0102465 0)
(7.34179 0.011312 0)
(7.34394 0.0121714 0)
(7.34615 0.0128498 0)
(7.34838 0.0133713 0)
(7.35063 0.0137568 0)
(7.35286 0.0140238 0)
(7.35508 0.0141877 0)
(7.35728 0.0142617 0)
(7.35944 0.0142567 0)
(7.36158 0.0141819 0)
(7.36367 0.014045 0)
(7.36573 0.0138524 0)
(7.36775 0.0136094 0)
(7.36972 0.0133203 0)
(7.37166 0.0129887 0)
(7.37355 0.0126175 0)
(7.3754 0.0122092 0)
(7.37722 0.0117658 0)
(7.37899 0.0112887 0)
(7.38072 0.0107793 0)
(7.3824 0.0102389 0)
(7.38405 0.00966828 0)
(7.38566 0.00906845 0)
(7.38722 0.00844023 0)
(7.38874 0.00778447 0)
(7.39022 0.00710208 0)
(7.39166 0.00639299 0)
(7.33309 0.00104535 0)
(7.33353 0.00306657 0)
(7.33447 0.00491415 0)
(7.33582 0.00653582 0)
(7.33744 0.00792499 0)
(7.33925 0.00909523 0)
(7.3412 0.0100631 0)
(7.34325 0.0108468 0)
(7.34537 0.0114667 0)
(7.34752 0.0119429 0)
(7.34969 0.0122934 0)
(7.35187 0.0125335 0)
(7.35403 0.0126769 0)
(7.35617 0.0127351 0)
(7.35829 0.0127182 0)
(7.36037 0.0126343 0)
(7.36243 0.0124906 0)
(7.36444 0.0122929 0)
(7.36642 0.0120461 0)
(7.36836 0.0117542 0)
(7.37026 0.0114206 0)
(7.37211 0.0110482 0)
(7.37393 0.0106391 0)
(7.37571 0.0101954 0)
(7.37744 0.00971861 0)
(7.37913 0.00921018 0)
(7.38078 0.00867128 0)
(7.38239 0.00810301 0)
(7.38396 0.00750637 0)
(7.38548 0.00688232 0)
(7.38696 0.00623182 0)
(7.3884 0.00555601 0)
(7.3898 0.00485496 0)
(7.33308 0.000906831 0)
(7.33348 0.00266255 0)
(7.33435 0.00427574 0)
(7.3356 0.00570233 0)
(7.33712 0.00693274 0)
(7.33883 0.00797447 0)
(7.34068 0.00883934 0)
(7.34265 0.00954153 0)
(7.34468 0.0100973 0)
(7.34676 0.010523 0)
(7.34886 0.0108339 0)
(7.35097 0.0110431 0)
(7.35308 0.0111625 0)
(7.35517 0.0112023 0)
(7.35724 0.0111713 0)
(7.35928 0.011077 0)
(7.36129 0.0109257 0)
(7.36326 0.0107228 0)
(7.3652 0.0104727 0)
(7.3671 0.0101794 0)
(7.36896 0.00984585 0)
(7.37078 0.00947488 0)
(7.37257 0.00906868 0)
(7.3743 0.00862917 0)
(7.376 0.00815798 0)
(7.37766 0.00765653 0)
(7.37927 0.00712608 0)
(7.38085 0.00656779 0)
(7.38238 0.00598274 0)
(7.38386 0.00537196 0)
(7.38531 0.0047365 0)
(7.38671 0.00407748 0)
(7.38806 0.00339504 0)
(7.33308 0.000775774 0)
(7.33345 0.00227917 0)
(7.33425 0.00366605 0)
(7.33542 0.00489989 0)
(7.33685 0.0059701 0)
(7.33847 0.00687994 0)
(7.34024 0.00763737 0)
(7.34212 0.00825302 0)
(7.34408 0.00873956 0)
(7.34609 0.00911015 0)
(7.34813 0.00937718 0)
(7.35018 0.00955183 0)
(7.35223 0.00964412 0)
(7.35427 0.00966283 0)
(7.35629 0.0096156 0)
(7.35829 0.00950901 0)
(7.36025 0.00934865 0)
(7.36219 0.00913931 0)
(7.36409 0.00888505 0)
(7.36595 0.00858931 0)
(7.36778 0.008255 0)
(7.36956 0.00788459 0)
(7.3713 0.00748021 0)
(7.37301 0.00704366 0)
(7.37467 0.00657653 0)
(7.37629 0.00608021 0)
(7.37787 0.00555596 0)
(7.3794 0.00500497 0)
(7.38089 0.00442834 0)
(7.38234 0.00382716 0)
(7.38375 0.00320249 0)
(7.38511 0.00255556 0)
(7.38643 0.00188661 0)
(7.33308 0.000650522 0)
(7.33342 0.00191195 0)
(7.33417 0.0030792 0)
(7.33527 0.0041226 0)
(7.33663 0.00503173 0)
(7.33817 0.00580704 0)
(7.33986 0.00645337 0)
(7.34167 0.0069783 0)
(7.34356 0.00739136 0)
(7.34551 0.00770274 0)
(7.34749 0.0079223 0)
(7.34948 0.00805917 0)
(7.35148 0.00812158 0)
(7.35347 0.00811691 0)
(7.35545 0.00805164 0)
(7.3574 0.00793138 0)
(7.35933 0.00776102 0)
(7.36122 0.00754474 0)
(7.36308 0.00728615 0)
(7.36491 0.00698835 0)
(7.3667 0.006654 0)
(7.36844 0.0062854 0)
(7.37015 0.00588453 0)
(7.37182 0.00545313 0)
(7.37344 0.00499275 0)
(7.37503 0.00450478 0)
(7.37657 0.00399049 0)
(7.37806 0.00345109 0)
(7.37952 0.0028877 0)
(7.38093 0.00230146 0)
(7.3823 0.00169344 0)
(7.38362 0.00106486 0)
(7.38491 0.000415951 0)
(7.33308 0.000529573 0)
(7.3334 0.00155683 0)
(7.3341 0.00250964 0)
(7.33515 0.00336447 0)
(7.33645 0.00411183 0)
(7.33792 0.00475036 0)
(7.33955 0.00528244 0)
(7.3413 0.00571302 0)
(7.34313 0.00604885 0)
(7.34501 0.00629743 0)
(7.34694 0.00646627 0)
(7.34888 0.00656245 0)
(7.35083 0.00659251 0)
(7.35278 0.0065624 0)
(7.35471 0.00647739 0)
(7.35662 0.00634216 0)
(7.35851 0.00616079 0)
(7.36036 0.00593684 0)
(7.36218 0.00567341 0)
(7.36397 0.00537319 0)
(7.36572 0.00503852 0)
(7.36744 0.00467147 0)
(7.36911 0.00427382 0)
(7.37074 0.00384719 0)
(7.37233 0.00339302 0)
(7.37387 0.00291263 0)
(7.37538 0.00240724 0)
(7.37684 0.00187803 0)
(7.37826 0.00132612 0)
(7.37963 0.000752619 0)
(7.38097 0.000158612 0)
(7.38226 -0.000454665 0)
(7.3835 -0.0010869 0)
(7.33307 0.000411434 0)
(7.33338 0.00120987 0)
(7.33405 0.00195195 0)
(7.33506 0.00261966 0)
(7.3363 0.00320482 0)
(7.33772 0.00370495 0)
(7.3393 0.00412043 0)
(7.34099 0.00445391 0)
(7.34276 0.00470963 0)
(7.3446 0.00489265 0)
(7.34648 0.00500821 0)
(7.34837 0.00506145 0)
(7.35028 0.00505724 0)
(7.35218 0.00500012 0)
(7.35407 0.00489419 0)
(7.35594 0.00474318 0)
(7.35779 0.00455038 0)
(7.35961 0.00431874 0)
(7.36139 0.00405086 0)
(7.36315 0.00374905 0)
(7.36486 0.00341535 0)
(7.36654 0.00305158 0)
(7.36817 0.00265936 0)
(7.36977 0.00224018 0)
(7.37132 0.00179539 0)
(7.37283 0.00132623 0)
(7.3743 0.000833912 0)
(7.37573 0.000319549 0)
(7.37711 -0.000215751 0)
(7.37845 -0.000770914 0)
(7.37974 -0.00134487 0)
(7.381 -0.0019365 0)
(7.38221 -0.00254552 0)
(7.33307 0.000294579 0)
(7.33337 0.000866859 0)
(7.33402 0.00139995 0)
(7.33499 0.00188082 0)
(7.33619 0.00230285 0)
(7.33757 0.00266286 0)
(7.3391 0.00295958 0)
(7.34074 0.00319357 0)
(7.34248 0.00336677 0)
(7.34427 0.00348192 0)
(7.3461 0.00354212 0)
(7.34796 0.00355058 0)
(7.34982 0.00351052 0)
(7.35168 0.00342503 0)
(7.35354 0.00329702 0)
(7.35537 0.0031292 0)
(7.35718 0.00292402 0)
(7.35896 0.00268376 0)
(7.36071 0.00241045 0)
(7.36243 0.00210595 0)
(7.36411 0.00177195 0)
(7.36575 0.00140999 0)
(7.36735 0.00102147 0)
(7.36892 0.000607697 0)
(7.37044 0.000169901 0)
(7.37191 -0.000290761 0)
(7.37335 -0.000773182 0)
(7.37474 -0.00127628 0)
(7.37609 -0.00179901 0)
(7.37739 -0.0023403 0)
(7.37865 -0.00289912 0)
(7.37987 -0.00347428 0)
(7.38105 -0.00406546 0)
(7.33307 0.000178046 0)
(7.33336 0.000525349 0)
(7.33399 0.000850285 0)
(7.33494 0.0011444 0)
(7.33611 0.00140271 0)
(7.33746 0.00162152 0)
(7.33896 0.00179809 0)
(7.34057 0.00193102 0)
(7.34226 0.00202009 0)
(7.34402 0.00206585 0)
(7.34581 0.00206932 0)
(7.34763 0.00203188 0)
(7.34946 0.00195516 0)
(7.35129 0.0018409 0)
(7.3531 0.00169089 0)
(7.3549 0.00150688 0)
(7.35668 0.00129057 0)
(7.35843 0.00104357 0)
(7.36014 0.00076742 0)
(7.36182 0.000463544 0)
(7.36347 0.000133283 0)
(7.36508 -0.000222106 0)
(7.36664 -0.000601439 0)
(7.36817 -0.0010036 0)
(7.36966 -0.0014275 0)
(7.3711 -0.00187213 0)
(7.3725 -0.00233647 0)
(7.37385 -0.00281955 0)
(7.37517 -0.00332038 0)
(7.37644 -0.00383801 0)
(7.37766 -0.00437149 0)
(7.37885 -0.00491983 0)
(7.37999 -0.00548283 0)
(7.33307 6.05114e-05 0)
(7.33336 0.000180818 0)
(7.33398 0.000295699 0)
(7.33491 0.000401342 0)
(7.33607 0.000494376 0)
(7.3374 0.000570605 0)
(7.33887 0.000625762 0)
(7.34045 0.000656506 0)
(7.34212 0.00066046 0)
(7.34384 0.000635927 0)
(7.34561 0.000581794 0)
(7.3474 0.000497514 0)
(7.34919 0.000383013 0)
(7.35099 0.000238571 0)
(7.35278 6.47254e-05 0)
(7.35454 -0.000137805 0)
(7.35629 -0.000368173 0)
(7.358 -0.000625453 0)
(7.35969 -0.000908675 0)
(7.36134 -0.00121686 0)
(7.36295 -0.001549 0)
(7.36453 -0.00190414 0)
(7.36607 -0.00228129 0)
(7.36756 -0.0026795 0)
(7.36902 -0.00309782 0)
(7.37043 -0.00353533 0)
(7.37179 -0.00399109 0)
(7.37312 -0.00446418 0)
(7.3744 -0.00495366 0)
(7.37564 -0.0054586 0)
(7.37684 -0.00597803 0)
(7.37799 -0.00651084 0)
(7.3791 -0.00705668 0)
(7.33307 -5.95029e-05 0)
(7.33336 -0.000171525 0)
(7.33398 -0.000271377 0)
(7.33491 -0.000357675 0)
(7.33606 -0.000432251 0)
(7.33738 -0.000500164 0)
(7.33884 -0.00056746 0)
(7.34041 -0.000639544 0)
(7.34206 -0.000720989 0)
(7.34376 -0.00081567 0)
(7.34551 -0.000926705 0)
(7.34727 -0.00105639 0)
(7.34904 -0.00120632 0)
(7.35081 -0.00137753 0)
(7.35256 -0.00157059 0)
(7.3543 -0.00178574 0)
(7.35601 -0.00202296 0)
(7.3577 -0.00228201 0)
(7.35935 -0.00256251 0)
(7.36097 -0.00286396 0)
(7.36255 -0.0031858 0)
(7.3641 -0.0035274 0)
(7.3656 -0.00388808 0)
(7.36706 -0.00426716 0)
(7.36848 -0.0046639 0)
(7.36986 -0.00507756 0)
(7.37119 -0.00550739 0)
(7.37248 -0.0059526 0)
(7.37373 -0.00641241 0)
(7.37493 -0.00688604 0)
(7.3761 -0.00737271 0)
(7.37722 -0.00787164 0)
(7.3783 -0.00838271 0)
(7.33307 -0.000183735 0)
(7.33336 -0.000536223 0)
(7.33399 -0.000857312 0)
(7.33494 -0.00113972 0)
(7.3361 -0.00138407 0)
(7.33743 -0.00159695 0)
(7.33889 -0.00178672 0)
(7.34045 -0.00196125 0)
(7.3421 -0.00212778 0)
(7.34379 -0.00229291 0)
(7.34552 -0.00246223 0)
(7.34726 -0.00264017 0)
(7.34902 -0.00283005 0)
(7.35076 -0.00303435 0)
(7.3525 -0.00325482 0)
(7.35421 -0.00349262 0)
(7.3559 -0.00374843 0)
(7.35756 -0.00402259 0)
(7.35919 -0.00431515 0)
(7.36078 -0.00462598 0)
(7.36234 -0.00495477 0)
(7.36385 -0.00530109 0)
(7.36533 -0.00566444 0)
(7.36676 -0.00604425 0)
(7.36816 -0.00643989 0)
(7.36951 -0.00685069 0)
(7.37081 -0.00727597 0)
(7.37208 -0.00771498 0)
(7.3733 -0.00816698 0)
(7.37447 -0.00863117 0)
(7.37561 -0.00910674 0)
(7.3767 -0.00959266 0)
(7.37774 -0.0100887 0)
(7.33307 -0.000315219 0)
(7.33338 -0.000921686 0)
(7.33403 -0.0014744 0)
(7.335 -0.00195919 0)
(7.3362 -0.0023763 0)
(7.33754 -0.00273512 0)
(7.33902 -0.00304684 0)
(7.3406 -0.00332165 0)
(7.34225 -0.00356915 0)
(7.34394 -0.0037983 0)
(7.34566 -0.00401689 0)
(7.34739 -0.00423127 0)
(7.34912 -0.0044465 0)
(7.35085 -0.0046666 0)
(7.35256 -0.00489465 0)
(7.35425 -0.00513297 0)
(7.35591 -0.00538324 0)
(7.35754 -0.00564662 0)
(7.35914 -0.00592387 0)
(7.3607 -0.00621545 0)
(7.36223 -0.00652154 0)
(7.36371 -0.00684214 0)
(7.36516 -0.0071771 0)
(7.36656 -0.00752613 0)
(7.36792 -0.00788887 0)
(7.36924 -0.00826489 0)
(7.37051 -0.00865367 0)
(7.37174 -0.00905468 0)
(7.37293 -0.00946734 0)
(7.37407 -0.00989107 0)
(7.37518 -0.0103253 0)
(7.37624 -0.0107694 0)
(7.37726 -0.0112235 0)
(7.33308 -0.000457816 0)
(7.3334 -0.00133841 0)
(7.3341 -0.00213719 0)
(7.33512 -0.00283178 0)
(7.33636 -0.00342382 0)
(7.33775 -0.00392828 0)
(7.33926 -0.00436145 0)
(7.34087 -0.00473782 0)
(7.34253 -0.00507104 0)
(7.34424 -0.00537355 0)
(7.34596 -0.00565571 0)
(7.3477 -0.00592565 0)
(7.34943 -0.00618974 0)
(7.35115 -0.00645295 0)
(7.35285 -0.00671913 0)
(7.35453 -0.00699112 0)
(7.35617 -0.00727101 0)
(7.35779 -0.00756032 0)
(7.35937 -0.00786007 0)
(7.36091 -0.00817092 0)
(7.36242 -0.00849327 0)
(7.36388 -0.00882726 0)
(7.3653 -0.00917287 0)
(7.36668 -0.00952994 0)
(7.36802 -0.00989821 0)
(7.36931 -0.0102773 0)
(7.37056 -0.0106668 0)
(7.37176 -0.0110663 0)
(7.37293 -0.0114751 0)
(7.37405 -0.0118927 0)
(7.37512 -0.0123185 0)
(7.37615 -0.0127515 0)
(7.37714 -0.0131917 0)
(7.33308 -0.000616981 0)
(7.33344 -0.00180121 0)
(7.3342 -0.00286603 0)
(7.33531 -0.00377978 0)
(7.33662 -0.00454857 0)
(7.33808 -0.00519432 0)
(7.33964 -0.00573697 0)
(7.34128 -0.00619394 0)
(7.34297 -0.00658308 0)
(7.34468 -0.00692141 0)
(7.34641 -0.00722314 0)
(7.34814 -0.00749951 0)
(7.34986 -0.00775947 0)
(7.35157 -0.00801016 0)
(7.35325 -0.00825711 0)
(7.35491 -0.00850449 0)
(7.35653 -0.00875542 0)
(7.35812 -0.00901222 0)
(7.35967 -0.00927653 0)
(7.36119 -0.00954953 0)
(7.36266 -0.00983199 0)
(7.36409 -0.0101244 0)
(7.36548 -0.0104269 0)
(7.36683 -0.0107397 0)
(7.36814 -0.0110626 0)
(7.3694 -0.0113956 0)
(7.37062 -0.0117382 0)
(7.37179 -0.0120902 0)
(7.37292 -0.0124512 0)
(7.37401 -0.0128208 0)
(7.37506 -0.0131986 0)
(7.37607 -0.0135842 0)
(7.37704 -0.0139777 0)
(7.33308 -0.000801119 0)
(7.3335 -0.00233207 0)
(7.33436 -0.00368764 0)
(7.33559 -0.00482813 0)
(7.33701 -0.00577731 0)
(7.33856 -0.00657565 0)
(7.3402 -0.00725175 0)
(7.34191 -0.00782684 0)
(7.34366 -0.00832184 0)
(7.34542 -0.00875598 0)
(7.34718 -0.00914456 0)
(7.34893 -0.0094994 0)
(7.35067 -0.00982999 0)
(7.35238 -0.010144 0)
(7.35406 -0.0104474 0)
(7.35571 -0.010745 0)
(7.35732 -0.0110401 0)
(7.3589 -0.0113356 0)
(7.36044 -0.0116335 0)
(7.36193 -0.0119353 0)
(7.36338 -0.012242 0)
(7.36479 -0.0125544 0)
(7.36616 -0.0128729 0)
(7.36749 -0.0131978 0)
(7.36876 -0.0135292 0)
(7.37 -0.013867 0)
(7.37119 -0.014211 0)
(7.37234 -0.0145612 0)
(7.37344 -0.0149171 0)
(7.3745 -0.0152784 0)
(7.37551 -0.0156447 0)
(7.37648 -0.0160154 0)
(7.37741 -0.0163906 0)
(7.33309 -0.00102385 0)
(7.3336 -0.00296745 0)
(7.33462 -0.00464791 0)
(7.33601 -0.00601285 0)
(7.33756 -0.00710665 0)
(7.33921 -0.00798867 0)
(7.34093 -0.0086996 0)
(7.34269 -0.00927387 0)
(7.34447 -0.00974543 0)
(7.34626 -0.0101426 0)
(7.34803 -0.0104859 0)
(7.34978 -0.0107906 0)
(7.35151 -0.0110684 0)
(7.35321 -0.0113285 0)
(7.35487 -0.0115777 0)
(7.3565 -0.011821 0)
(7.35809 -0.0120621 0)
(7.35963 -0.0123037 0)
(7.36114 -0.0125481 0)
(7.3626 -0.0127966 0)
(7.36402 -0.0130504 0)
(7.3654 -0.0133103 0)
(7.36673 -0.0135767 0)
(7.36802 -0.0138499 0)
(7.36926 -0.0141301 0)
(7.37046 -0.0144173 0)
(7.37161 -0.0147114 0)
(7.37272 -0.0150123 0)
(7.37379 -0.0153198 0)
(7.37481 -0.0156335 0)
(7.37579 -0.0159532 0)
(7.37674 -0.0162786 0)
(7.37764 -0.0166097 0)
(7.33311 -0.00130901 0)
(7.33375 -0.00375609 0)
(7.33503 -0.00580294 0)
(7.33668 -0.0074424 0)
(7.33847 -0.00878635 0)
(7.3403 -0.00990527 0)
(7.34217 -0.0108256 0)
(7.34405 -0.0115786 0)
(7.34592 -0.0122034 0)
(7.34775 -0.0127327 0)
(7.34955 -0.013189 0)
(7.35132 -0.0135896 0)
(7.35305 -0.0139489 0)
(7.35473 -0.0142781 0)
(7.35637 -0.0145858 0)
(7.35797 -0.0148784 0)
(7.35953 -0.0151608 0)
(7.36104 -0.0154365 0)
(7.3625 -0.0157085 0)
(7.36392 -0.0159786 0)
(7.36529 -0.0162484 0)
(7.36662 -0.0165188 0)
(7.3679 -0.0167907 0)
(7.36913 -0.0170646 0)
(7.37032 -0.0173407 0)
(7.37147 -0.0176192 0)
(7.37257 -0.0179004 0)
(7.37362 -0.0181841 0)
(7.37463 -0.0184704 0)
(7.3756 -0.0187593 0)
(7.37652 -0.0190506 0)
(7.37739 -0.0193442 0)
(7.37822 -0.0196409 0)
(7.33314 -0.00171347 0)
(7.33403 -0.00481166 0)
(7.33564 -0.00714068 0)
(7.33755 -0.00877782 0)
(7.33947 -0.0100076 0)
(7.3414 -0.010982 0)
(7.34336 -0.0117495 0)
(7.3453 -0.0123549 0)
(7.3472 -0.0128473 0)
(7.34905 -0.0132611 0)
(7.35084 -0.0136169 0)
(7.35258 -0.0139295 0)
(7.35427 -0.0142105 0)
(7.3559 -0.0144691 0)
(7.35748 -0.014712 0)
(7.35902 -0.0149443 0)
(7.3605 -0.0151699 0)
(7.36193 -0.0153918 0)
(7.36332 -0.0156124 0)
(7.36466 -0.0158335 0)
(7.36595 -0.0160564 0)
(7.36719 -0.016282 0)
(7.36839 -0.0165111 0)
(7.36954 -0.0167441 0)
(7.37064 -0.0169814 0)
(7.3717 -0.017223 0)
(7.37272 -0.017469 0)
(7.3737 -0.0177193 0)
(7.37463 -0.0179737 0)
(7.37552 -0.0182319 0)
(7.37637 -0.0184936 0)
(7.37718 -0.0187582 0)
(7.37795 -0.0190257 0)
(7.33321 -0.00230711 0)
(7.33467 -0.00642896 0)
(7.33707 -0.00951867 0)
(7.33954 -0.0117625 0)
(7.34173 -0.0134672 0)
(7.34377 -0.0147665 0)
(7.34576 -0.0157394 0)
(7.34765 -0.0164776 0)
(7.34944 -0.0170578 0)
(7.35113 -0.0175278 0)
(7.35274 -0.0179177 0)
(7.35428 -0.0182503 0)
(7.35576 -0.0185428 0)
(7.35717 -0.018807 0)
(7.35853 -0.0190509 0)
(7.35983 -0.0192801 0)
(7.36107 -0.0194988 0)
(7.36227 -0.0197097 0)
(7.36342 -0.0199151 0)
(7.36451 -0.0201163 0)
(7.36556 -0.0203144 0)
(7.36657 -0.0205104 0)
(7.36753 -0.0207049 0)
(7.36844 -0.0208983 0)
(7.36931 -0.0210911 0)
(7.37014 -0.0212836 0)
(7.37093 -0.021476 0)
(7.37168 -0.0216688 0)
(7.37238 -0.021862 0)
(7.37305 -0.0220563 0)
(7.37367 -0.0222522 0)
(7.37426 -0.0224514 0)
(7.37481 -0.0226558 0)
(7.33323 -0.00330751 0)
(7.33508 -0.00748693 0)
(7.33785 -0.00963633 0)
(7.34038 -0.0111647 0)
(7.34248 -0.0125008 0)
(7.34435 -0.0135536 0)
(7.34605 -0.014326 0)
(7.34755 -0.0149195 0)
(7.34886 -0.0154044 0)
(7.35003 -0.0158068 0)
(7.35109 -0.016142 0)
(7.35207 -0.0164269 0)
(7.35296 -0.0166764 0)
(7.35379 -0.0169009 0)
(7.35457 -0.0171081 0)
(7.3553 -0.0173035 0)
(7.35599 -0.0174916 0)
(7.35664 -0.0176757 0)
(7.35726 -0.0178581 0)
(7.35784 -0.0180405 0)
(7.35839 -0.0182241 0)
(7.35891 -0.0184095 0)
(7.35941 -0.0185971 0)
(7.35987 -0.0187872 0)
(7.36031 -0.0189797 0)
(7.36072 -0.0191746 0)
(7.36111 -0.0193714 0)
(7.36147 -0.0195697 0)
(7.3618 -0.0197686 0)
(7.36211 -0.019967 0)
(7.36239 -0.0201632 0)
(7.36264 -0.0203529 0)
(7.36286 -0.0205372 0)
(7.33597 -0.00734886 0)
(7.34631 -0.0150984 0)
(7.35617 -0.0177398 0)
(7.36436 -0.018902 0)
(7.37191 -0.019786 0)
(7.37927 -0.0203659 0)
(7.38625 -0.0206571 0)
(7.39273 -0.0208088 0)
(7.39876 -0.0209185 0)
(7.40444 -0.0210118 0)
(7.40981 -0.0210928 0)
(7.41488 -0.0211669 0)
(7.41967 -0.0212392 0)
(7.42421 -0.0213116 0)
(7.42852 -0.0213843 0)
(7.4326 -0.0214573 0)
(7.43648 -0.0215304 0)
(7.44015 -0.0216039 0)
(7.44363 -0.0216778 0)
(7.44693 -0.0217524 0)
(7.45006 -0.0218278 0)
(7.45301 -0.0219044 0)
(7.45581 -0.0219825 0)
(7.45845 -0.0220625 0)
(7.46095 -0.0221446 0)
(7.4633 -0.0222292 0)
(7.46552 -0.0223167 0)
(7.46761 -0.0224075 0)
(7.46959 -0.0225017 0)
(7.47145 -0.0226 0)
(7.47321 -0.0227022 0)
(7.47487 -0.0228094 0)
(7.47647 -0.0229197 0)
(7.32333 -0.00889185 0)
(7.30977 -0.0181865 0)
(7.29242 -0.0222779 0)
(7.2708 -0.0243714 0)
(7.24821 -0.0257077 0)