/*--------------------------------*- C++ -*----------------------------------*\
| =========                 |                                                 |
| \\      /  F ield         | OpenFOAM: The Open Source CFD Toolbox           |
|  \\    /   O peration     | Version:  4.1                                   |
|   \\  /    A nd           | Web:      www.OpenFOAM.org                      |
|    \\/     M anipulation  |                                                 |
\*---------------------------------------------------------------------------*/
FoamFile
{
    version     2.0;
    format      ascii;
    class       volScalarField;
    location    "500";
    object      k;
}
// * * * * * * * * * * * * * * * * * * * * * * * * * * * * * * * * * * * * * //

dimensions      [0 2 -2 0 0 0 0];

internalField   nonuniform List<scalar> 
6820
(
0.241787
0.289665
0.336844
0.381951
0.423954
0.462112
0.495951
0.52527
0.5501
0.570651
0.587247
0.60028
0.61017
0.617337
0.622182
0.625074
0.626344
0.626287
0.625156
0.623171
0.620517
0.61735
0.613801
0.609978
0.605972
0.601855
0.597688
0.593519
0.589385
0.58532
0.581342
0.577543
0.575093
0.202474
0.204679
0.206995
0.209467
0.212041
0.21468
0.217361
0.220054
0.22273
0.225366
0.227948
0.230471
0.232933
0.235338
0.237693
0.240008
0.242293
0.244557
0.24681
0.249058
0.251308
0.253567
0.255838
0.258124
0.260426
0.262743
0.265076
0.267423
0.26978
0.272144
0.274515
0.276884
0.279759
0.199741
0.199215
0.198471
0.197595
0.196619
0.195572
0.194482
0.193365
0.192234
0.191098
0.189968
0.188852
0.187757
0.18669
0.185657
0.184661
0.183709
0.182803
0.181948
0.181147
0.180401
0.17971
0.179074
0.178492
0.177963
0.177486
0.17706
0.176685
0.176358
0.176079
0.175843
0.175658
0.175552
0.199153
0.198176
0.197113
0.195992
0.194809
0.19357
0.192296
0.191001
0.189694
0.188383
0.187077
0.185781
0.184499
0.183236
0.181994
0.180778
0.179588
0.178427
0.177297
0.176199
0.175134
0.174103
0.173107
0.172144
0.171216
0.170321
0.16946
0.168632
0.167836
0.167072
0.166339
0.165636
0.164964
0.198981
0.1979
0.196807
0.195699
0.194559
0.193388
0.192197
0.190994
0.189784
0.188573
0.187366
0.186166
0.184977
0.183801
0.182642
0.181501
0.18038
0.179281
0.178204
0.17715
0.176121
0.175117
0.174139
0.173185
0.172258
0.171355
0.170479
0.169627
0.1688
0.167997
0.167218
0.166462
0.165721
0.198926
0.197795
0.196678
0.195576
0.194473
0.193363
0.192249
0.191133
0.190019
0.188909
0.187805
0.186711
0.185628
0.184558
0.183503
0.182464
0.181443
0.18044
0.179455
0.178491
0.177546
0.176621
0.175717
0.174834
0.173971
0.173129
0.172308
0.171507
0.170726
0.169965
0.169223
0.168499
0.167785
0.198906
0.197755
0.196631
0.195537
0.194463
0.193399
0.192342
0.191294
0.190253
0.189222
0.188201
0.187191
0.186194
0.18521
0.18424
0.183286
0.182347
0.181425
0.18052
0.179631
0.178761
0.177908
0.177073
0.176256
0.175457
0.174675
0.173912
0.173166
0.172437
0.171726
0.171031
0.170352
0.169679
0.1989
0.19774
0.196611
0.195517
0.194452
0.193408
0.192382
0.191373
0.19038
0.189401
0.188437
0.187487
0.186551
0.185631
0.184726
0.183837
0.182963
0.182106
0.181265
0.18044
0.179632
0.17884
0.178064
0.177305
0.176563
0.175836
0.175126
0.174431
0.173752
0.173088
0.17244
0.171805
0.171175
0.198897
0.197734
0.196603
0.195508
0.194448
0.193415
0.192408
0.191424
0.19046
0.189516
0.188591
0.187683
0.186792
0.185918
0.185061
0.18422
0.183396
0.182588
0.181795
0.181019
0.180259
0.179515
0.178786
0.178073
0.177375
0.176692
0.176025
0.175372
0.174733
0.174109
0.173499
0.172901
0.172307
0.198896
0.197732
0.1966
0.195505
0.194445
0.193417
0.192417
0.191444
0.190496
0.189571
0.188667
0.187785
0.186922
0.186079
0.185254
0.184446
0.183656
0.182883
0.182127
0.181387
0.180664
0.179956
0.179263
0.178586
0.177924
0.177277
0.176644
0.176025
0.17542
0.174829
0.174251
0.173685
0.173122
0.198896
0.197731
0.196599
0.195504
0.194444
0.193417
0.192421
0.191454
0.190514
0.1896
0.18871
0.187844
0.186999
0.186175
0.185371
0.184586
0.18382
0.183072
0.182342
0.181628
0.180931
0.18025
0.179584
0.178934
0.178299
0.177678
0.177072
0.176479
0.1759
0.175335
0.174782
0.174241
0.173702
0.198896
0.19773
0.196599
0.195504
0.194444
0.193418
0.192423
0.191458
0.190521
0.189612
0.188729
0.18787
0.187035
0.186222
0.18543
0.184659
0.183908
0.183175
0.182461
0.181765
0.181086
0.180423
0.179776
0.179145
0.178529
0.177928
0.177341
0.176769
0.176209
0.175664
0.17513
0.174608
0.174089
0.198896
0.19773
0.196599
0.195504
0.194444
0.193418
0.192424
0.19146
0.190525
0.189618
0.188738
0.187884
0.187054
0.186247
0.185463
0.1847
0.183958
0.183235
0.182532
0.181846
0.181179
0.180529
0.179895
0.179277
0.178674
0.178087
0.177514
0.176955
0.17641
0.175878
0.175359
0.174851
0.174347
0.198896
0.19773
0.196599
0.195504
0.194445
0.193419
0.192425
0.191461
0.190527
0.189621
0.188743
0.18789
0.187062
0.186259
0.185478
0.184719
0.183981
0.183264
0.182566
0.181888
0.181227
0.180584
0.179958
0.179348
0.178754
0.178176
0.177612
0.177063
0.176527
0.176005
0.175496
0.174998
0.174503
0.198896
0.19773
0.196599
0.195505
0.194445
0.193419
0.192425
0.191462
0.190528
0.189623
0.188745
0.187893
0.187067
0.186265
0.185486
0.184729
0.183994
0.18328
0.182586
0.181911
0.181254
0.180616
0.179994
0.17939
0.178801
0.178228
0.17767
0.177127
0.176598
0.176082
0.175579
0.175088
0.174601
0.198896
0.19773
0.196599
0.195505
0.194446
0.19342
0.192426
0.191463
0.190529
0.189624
0.188746
0.187895
0.187069
0.186268
0.18549
0.184734
0.184
0.183287
0.182595
0.181922
0.181267
0.180631
0.180012
0.17941
0.178825
0.178255
0.1777
0.17716
0.176635
0.176123
0.175624
0.175137
0.174654
0.198896
0.19773
0.1966
0.195505
0.194446
0.19342
0.192426
0.191463
0.19053
0.189625
0.188748
0.187896
0.187071
0.18627
0.185492
0.184737
0.184004
0.183292
0.1826
0.181928
0.181275
0.18064
0.180022
0.179422
0.178838
0.17827
0.177718
0.17718
0.176656
0.176147
0.175651
0.175166
0.174686
0.198896
0.19773
0.1966
0.195505
0.194446
0.19342
0.192427
0.191464
0.19053
0.189626
0.188748
0.187897
0.187072
0.186271
0.185493
0.184739
0.184006
0.183294
0.182603
0.181931
0.181279
0.180644
0.180028
0.179428
0.178845
0.178278
0.177726
0.17719
0.176667
0.176159
0.175664
0.175181
0.174702
0.198896
0.197729
0.1966
0.195506
0.194446
0.193421
0.192427
0.191464
0.190531
0.189626
0.188749
0.187898
0.187073
0.186272
0.185494
0.18474
0.184007
0.183296
0.182605
0.181933
0.181281
0.180647
0.180031
0.179432
0.178849
0.178283
0.177732
0.177195
0.176674
0.176166
0.175672
0.175189
0.174712
0.198896
0.197729
0.1966
0.195506
0.194446
0.193421
0.192427
0.191464
0.190531
0.189627
0.188749
0.187899
0.187073
0.186272
0.185495
0.184741
0.184008
0.183297
0.182606
0.181935
0.181283
0.180649
0.180033
0.179434
0.178852
0.178285
0.177734
0.177199
0.176677
0.17617
0.175676
0.175194
0.174717
0.198896
0.197729
0.1966
0.195506
0.194447
0.193421
0.192427
0.191465
0.190532
0.189627
0.18875
0.187899
0.187074
0.186273
0.185496
0.184742
0.184009
0.183298
0.182607
0.181936
0.181284
0.18065
0.180034
0.179435
0.178853
0.178287
0.177737
0.177201
0.17668
0.176173
0.175679
0.175197
0.17472
0.198896
0.197729
0.1966
0.195506
0.194447
0.193421
0.192428
0.191465
0.190532
0.189627
0.18875
0.1879
0.187074
0.186274
0.185497
0.184742
0.18401
0.183299
0.182608
0.181937
0.181285
0.180651
0.180035
0.179437
0.178855
0.178289
0.177738
0.177202
0.176681
0.176175
0.175681
0.175199
0.174722
0.198896
0.197729
0.1966
0.195506
0.194447
0.193421
0.192428
0.191465
0.190532
0.189628
0.188751
0.1879
0.187075
0.186274
0.185497
0.184743
0.18401
0.183299
0.182608
0.181937
0.181285
0.180652
0.180036
0.179437
0.178855
0.178289
0.177739
0.177204
0.176683
0.176176
0.175682
0.175201
0.174723
0.198896
0.19773
0.1966
0.195506
0.194447
0.193421
0.192428
0.191465
0.190532
0.189628
0.188751
0.1879
0.187075
0.186274
0.185497
0.184743
0.184011
0.1833
0.182609
0.181938
0.181286
0.180652
0.180037
0.179438
0.178856
0.17829
0.17774
0.177204
0.176683
0.176177
0.175683
0.175201
0.174724
0.198896
0.197729
0.1966
0.195506
0.194447
0.193421
0.192428
0.191465
0.190532
0.189628
0.188751
0.1879
0.187075
0.186274
0.185497
0.184743
0.184011
0.1833
0.182609
0.181938
0.181286
0.180653
0.180037
0.179438
0.178856
0.17829
0.17774
0.177204
0.176683
0.176176
0.175683
0.175201
0.174724
0.198896
0.197729
0.1966
0.195506
0.194447
0.193421
0.192428
0.191465
0.190532
0.189628
0.188751
0.1879
0.187075
0.186274
0.185497
0.184743
0.184011
0.1833
0.182609
0.181938
0.181286
0.180653
0.180037
0.179438
0.178856
0.17829
0.17774
0.177204
0.176683
0.176177
0.175683
0.175202
0.174724
0.198896
0.197729
0.1966
0.195506
0.194447
0.193421
0.192428
0.191465
0.190532
0.189628
0.188751
0.1879
0.187075
0.186274
0.185497
0.184743
0.18401
0.183299
0.182608
0.181937
0.181285
0.180652
0.180036
0.179437
0.178855
0.178289
0.177738
0.177203
0.176682
0.176175
0.175681
0.1752
0.174722
0.198896
0.197729
0.1966
0.195506
0.194447
0.193421
0.192428
0.191465
0.190532
0.189628
0.188751
0.1879
0.187075
0.186274
0.185497
0.184743
0.18401
0.183299
0.182608
0.181937
0.181285
0.180652
0.180036
0.179437
0.178855
0.178289
0.177738
0.177203
0.176682
0.176175
0.175681
0.175199
0.174722
0.198896
0.197729
0.1966
0.195506
0.194447
0.193421
0.192428
0.191465
0.190532
0.189627
0.18875
0.187899
0.187074
0.186273
0.185496
0.184741
0.184009
0.183297
0.182606
0.181935
0.181283
0.180649
0.180033
0.179434
0.178852
0.178285
0.177735
0.177199
0.176678
0.176171
0.175677
0.175195
0.174718
0.198896
0.197729
0.1966
0.195506
0.194447
0.193421
0.192427
0.191465
0.190532
0.189627
0.18875
0.187899
0.187074
0.186273
0.185496
0.184742
0.184009
0.183298
0.182607
0.181936
0.181283
0.18065
0.180034
0.179435
0.178852
0.178286
0.177735
0.1772
0.176678
0.176171
0.175677
0.175195
0.174718
0.198896
0.197729
0.1966
0.195506
0.194447
0.193421
0.192427
0.191464
0.190531
0.189626
0.188749
0.187898
0.187072
0.186271
0.185493
0.184738
0.184005
0.183294
0.182602
0.181931
0.181278
0.180644
0.180028
0.179428
0.178846
0.178279
0.177728
0.177192
0.17667
0.176162
0.175668
0.175186
0.174708
0.198896
0.197729
0.1966
0.195506
0.194446
0.193421
0.192427
0.191464
0.190531
0.189627
0.18875
0.187899
0.187074
0.186273
0.185496
0.184741
0.184008
0.183297
0.182605
0.181934
0.181281
0.180647
0.18003
0.17943
0.178847
0.17828
0.177728
0.177192
0.176669
0.176161
0.175666
0.175183
0.174704
0.198896
0.19773
0.1966
0.195505
0.194446
0.19342
0.192426
0.191462
0.190528
0.189623
0.188745
0.187893
0.187067
0.186266
0.185487
0.184732
0.183998
0.183286
0.182594
0.181921
0.181268
0.180632
0.180014
0.179414
0.178829
0.178261
0.177708
0.17717
0.176646
0.176136
0.17564
0.175155
0.174674
0.198896
0.19773
0.1966
0.195506
0.194447
0.193422
0.192429
0.191467
0.190534
0.18963
0.188753
0.187901
0.187076
0.186274
0.185495
0.184739
0.184005
0.183291
0.182597
0.181923
0.181267
0.180629
0.180009
0.179406
0.178818
0.178247
0.177691
0.177149
0.176622
0.176108
0.175608
0.175119
0.174634
0.198896
0.19773
0.1966
0.195504
0.194443
0.193416
0.192421
0.191457
0.190523
0.189617
0.188738
0.187885
0.187057
0.186253
0.185472
0.184713
0.183975
0.183258
0.18256
0.181882
0.181221
0.180578
0.179953
0.179344
0.17875
0.178173
0.17761
0.177062
0.176528
0.176008
0.175501
0.175005
0.174513
0.198897
0.197733
0.196606
0.195516
0.194462
0.193441
0.19245
0.191489
0.190556
0.18965
0.18877
0.187915
0.187083
0.186274
0.185486
0.18472
0.183975
0.183249
0.182542
0.181853
0.181182
0.180528
0.179892
0.179271
0.178666
0.178076
0.177502
0.176941
0.176395
0.175863
0.175343
0.174835
0.174331
0.1989
0.197735
0.196605
0.195515
0.194465
0.193449
0.192464
0.191508
0.190579
0.189676
0.188796
0.187939
0.187104
0.186291
0.185498
0.184725
0.183971
0.183236
0.182519
0.181821
0.181139
0.180475
0.179827
0.179195
0.17858
0.177979
0.177394
0.176823
0.176266
0.175723
0.175194
0.174677
0.174164
0.198944
0.197852
0.196795
0.195774
0.194787
0.193828
0.192894
0.191986
0.191101
0.190239
0.189398
0.188578
0.187779
0.186999
0.186238
0.185497
0.184773
0.184068
0.183381
0.182711
0.182058
0.181421
0.180801
0.180198
0.179609
0.179036
0.178478
0.177935
0.177406
0.176891
0.17639
0.175902
0.17542
0.199227
0.198572
0.198048
0.197613
0.197233
0.196892
0.196584
0.196306
0.196053
0.195822
0.195611
0.195419
0.195245
0.195087
0.194945
0.194818
0.194704
0.194604
0.194516
0.19444
0.194375
0.19432
0.194275
0.19424
0.194213
0.194195
0.194184
0.194181
0.194185
0.194195
0.194212
0.194234
0.194266
0.209515
0.220347
0.230808
0.24093
0.250733
0.260233
0.269437
0.278351
0.286977
0.295319
0.303381
0.311164
0.318672
0.32591
0.332881
0.33959
0.346043
0.352244
0.358201
0.363918
0.369403
0.374662
0.379702
0.384529
0.389152
0.393576
0.397808
0.401856
0.405727
0.409426
0.412962
0.416341
0.419593
0.642033
0.794616
0.964177
1.13926
1.29664
1.42555
1.52471
1.59758
1.6498
1.68704
1.71366
1.73253
1.7454
1.75364
1.75834
1.76042
1.76029
1.75874
1.75584
1.75199
1.7477
1.74346
1.7397
1.73674
1.73478
1.73385
1.73387
1.73469
1.7361
1.73791
1.73995
1.74212
1.74432
1.74652
1.7487
1.75082
1.75286
1.75475
1.75645
1.75788
1.75902
1.75983
1.76034
1.76056
1.76055
1.76029
1.75977
1.75884
1.75733
1.75492
1.75126
1.74597
1.73871
1.7293
1.71781
1.70465
1.69061
1.67682
1.66458
1.65512
1.64932
1.64742
1.64891
1.65259
1.65674
1.65943
1.65871
1.65289
1.64067
1.62123
1.59429
1.56016
1.51969
1.4742
1.42531
1.37467
1.32375
1.27361
1.2248
1.17736
1.13093
1.08492
1.03865
0.991457
0.942807
0.892341
0.839983
0.786041
0.731411
0.678413
0.63235
0.601613
0.593619
0.608707
0.638714
0.672452
0.702446
0.725716
0.742968
0.752799
0.287498
0.306346
0.338908
0.389185
0.456469
0.537508
0.627193
0.719529
0.809613
0.893905
0.97028
1.0378
1.09641
1.14672
1.18971
1.22646
1.25781
1.28449
1.30757
1.32768
1.34539
1.36125
1.37579
1.38946
1.40262
1.41551
1.42822
1.44077
1.45308
1.46505
1.47657
1.48752
1.49783
1.50743
1.51629
1.52437
1.53166
1.53812
1.54375
1.54854
1.55249
1.55565
1.55806
1.55983
1.56104
1.56175
1.56198
1.56168
1.56069
1.55877
1.55562
1.5509
1.54433
1.5358
1.5254
1.51358
1.50113
1.48913
1.47882
1.47134
1.46749
1.46743
1.47061
1.47582
1.48137
1.48535
1.48593
1.48151
1.47092
1.45347
1.42899
1.39787
1.36097
1.31957
1.27516
1.22923
1.18307
1.13758
1.09321
1.04997
1.00752
0.965332
0.922826
0.879472
0.834874
0.788828
0.741432
0.693194
0.645255
0.600235
0.56395
0.545464
0.551692
0.579971
0.618625
0.655775
0.685757
0.707639
0.723299
0.732071
0.175822
0.177258
0.180414
0.186388
0.196252
0.210862
0.231182
0.258149
0.291863
0.331724
0.376745
0.425653
0.477041
0.529538
0.581939
0.63324
0.682607
0.729215
0.773018
0.814039
0.852411
0.888354
0.922143
0.95407
0.9844
1.01335
1.04106
1.06761
1.09302
1.11726
1.1403
1.16206
1.18249
1.20153
1.21915
1.23534
1.25007
1.26336
1.27521
1.28566
1.29477
1.3026
1.30927
1.3149
1.31963
1.32358
1.32681
1.32931
1.33099
1.33167
1.3311
1.329
1.32515
1.31945
1.31204
1.30334
1.29408
1.28528
1.27809
1.27355
1.27239
1.27476
1.28016
1.28743
1.29498
1.30101
1.3038
1.30185
1.29409
1.2799
1.25919
1.23233
1.20018
1.16389
1.12483
1.08434
1.04356
1.0033
0.96394
0.925501
0.887691
0.850057
0.81211
0.773427
0.733722
0.692905
0.651181
0.609208
0.568309
0.531145
0.503358
0.494086
0.510338
0.548138
0.593523
0.633818
0.66441
0.685752
0.700596
0.708618
0.16415
0.16346
0.16299
0.16294
0.163544
0.16505
0.167754
0.171994
0.178095
0.186504
0.197549
0.211476
0.228459
0.248574
0.271788
0.29793
0.32667
0.357496
0.389808
0.423187
0.457237
0.491621
0.526067
0.560365
0.594355
0.627911
0.660921
0.693281
0.724884
0.755616
0.785359
0.813991
0.841393
0.867457
0.892088
0.91521
0.936764
0.956713
0.975039
0.991752
1.00689
1.02052
1.03274
1.04368
1.05346
1.06222
1.07003
1.07691
1.08282
1.08762
1.09112
1.09311
1.0934
1.09193
1.08884
1.08451
1.0796
1.07502
1.07179
1.07087
1.07291
1.07809
1.08595
1.09548
1.10524
1.1136
1.11897
1.12002
1.11574
1.10558
1.08944
1.06767
1.04102
1.01052
0.97738
0.942794
0.907788
0.8731
0.83911
0.805859
0.773121
0.740524
0.707659
0.674188
0.639908
0.604798
0.56911
0.533547
0.499561
0.469867
0.449636
0.447291
0.469742
0.513118
0.562966
0.606099
0.638082
0.65995
0.674941
0.682864
0.164786
0.163862
0.16298
0.162184
0.161525
0.161062
0.160875
0.161062
0.161724
0.162986
0.164999
0.16791
0.171865
0.177015
0.183505
0.191474
0.201036
0.212257
0.225121
0.239644
0.255814
0.273593
0.292921
0.313716
0.335865
0.359236
0.383668
0.408983
0.434988
0.461476
0.488231
0.515034
0.541664
0.567911
0.593572
0.618466
0.642431
0.66533
0.687052
0.70752
0.726691
0.744558
0.761151
0.77653
0.790772
0.803954
0.816135
0.827328
0.837492
0.846522
0.854266
0.860556
0.865254
0.868319
0.869871
0.870243
0.870001
0.869918
0.870877
0.873717
0.879031
0.88699
0.897232
0.908882
0.920687
0.93122
0.939083
0.943083
0.942335
0.936333
0.92497
0.908528
0.887633
0.863173
0.836178
0.807694
0.778636
0.749684
0.721219
0.693324
0.665845
0.638488
0.610921
0.58287
0.554183
0.52489
0.495252
0.465926
0.438343
0.415256
0.401517
0.404542
0.430532
0.476155
0.527982
0.573102
0.606803
0.629979
0.645916
0.654393
0.166882
0.165968
0.165056
0.164159
0.163292
0.162473
0.161728
0.16109
0.160598
0.160295
0.160234
0.160475
0.161078
0.16211
0.163638
0.165732
0.168461
0.171888
0.176061
0.181035
0.186867
0.193618
0.201351
0.210125
0.219992
0.230995
0.243157
0.256486
0.270963
0.286545
0.30316
0.320707
0.339057
0.358057
0.377537
0.397313
0.417198
0.437009
0.456572
0.475735
0.494371
0.512381
0.529702
0.546299
0.562159
0.577281
0.591657
0.605256
0.618011
0.629817
0.640534
0.650014
0.65814
0.664869
0.670289
0.674662
0.67844
0.682248
0.686813
0.692839
0.700842
0.710993
0.723018
0.736197
0.749472
0.761624
0.771452
0.777922
0.780263
0.778025
0.771094
0.759682
0.744294
0.725658
0.704636
0.682116
0.658896
0.635594
0.612582
0.58998
0.567699
0.545519
0.523174
0.500443
0.477207
0.453509
0.429613
0.406117
0.384308
0.366812
0.358239
0.365184
0.392899
0.438473
0.490187
0.536166
0.571411
0.596236
0.613582
0.62302
0.16883
0.167963
0.167092
0.166221
0.165356
0.164504
0.163671
0.16287
0.162114
0.16142
0.16081
0.160307
0.159941
0.159742
0.159744
0.159981
0.160488
0.1613
0.162448
0.16396
0.165868
0.168207
0.171014
0.174329
0.178195
0.182657
0.187759
0.193545
0.200054
0.207322
0.215377
0.224233
0.233891
0.244334
0.255528
0.267416
0.279923
0.292959
0.306421
0.320199
0.334185
0.348274
0.362376
0.376409
0.390307
0.404007
0.417446
0.430547
0.443212
0.45532
0.46673
0.477298
0.486906
0.495497
0.503111
0.509927
0.516272
0.522614
0.529513
0.537522
0.547069
0.558313
0.571061
0.584747
0.598516
0.61136
0.622272
0.630374
0.635007
0.63577
0.632542
0.625473
0.614948
0.601548
0.585971
0.568949
0.551159
0.533141
0.515246
0.497616
0.480214
0.462881
0.445412
0.427628
0.409432
0.390862
0.372157
0.353857
0.337097
0.324239
0.31954
0.328929
0.356877
0.400834
0.450907
0.496659
0.532994
0.559469
0.578404
0.588967
0.17038
0.169567
0.168747
0.167923
0.167098
0.166271
0.165447
0.16463
0.163826
0.163041
0.162284
0.161567
0.160902
0.160304
0.159789
0.159375
0.159083
0.15893
0.158937
0.159122
0.159503
0.160099
0.16093
0.162017
0.163382
0.16505
0.167044
0.16939
0.172116
0.17525
0.178818
0.182849
0.187367
0.192391
0.197939
0.204017
0.210625
0.217756
0.225389
0.233497
0.242046
0.250995
0.260301
0.269918
0.279797
0.289885
0.30012
0.310427
0.320712
0.330863
0.340753
0.350254
0.359251
0.367676
0.375529
0.382909
0.39003
0.397212
0.404853
0.413362
0.423065
0.434101
0.446342
0.459365
0.472505
0.484959
0.495907
0.504624
0.51055
0.513334
0.51285
0.509186
0.502626
0.493612
0.482688
0.470438
0.457414
0.444071
0.430721
0.41751
0.404438
0.391399
0.378235
0.364806
0.35103
0.336937
0.322724
0.308855
0.296319
0.287181
0.285233
0.295756
0.322658
0.363844
0.41116
0.455715
0.492541
0.520442
0.540949
0.552657
0.171559
0.170793
0.17002
0.169242
0.168458
0.167672
0.166882
0.166092
0.165304
0.164521
0.163744
0.162981
0.162235
0.161514
0.160825
0.160179
0.159585
0.159054
0.158598
0.15823
0.15796
0.1578
0.157764
0.157865
0.158114
0.158527
0.159117
0.159898
0.160886
0.162097
0.163547
0.165253
0.167233
0.169504
0.172081
0.174981
0.178217
0.1818
0.185739
0.190039
0.194704
0.199732
0.205121
0.210862
0.216945
0.223351
0.23005
0.237002
0.244151
0.251421
0.258726
0.265971
0.273071
0.279964
0.286632
0.293125
0.299567
0.306164
0.313183
0.320907
0.329573
0.339297
0.349998
0.361379
0.372945
0.384079
0.394134
0.402523
0.408782
0.412606
0.413865
0.412598
0.408999
0.403389
0.396176
0.387807
0.378712
0.369258
0.359706
0.350195
0.340746
0.331293
0.321721
0.31192
0.301823
0.291448
0.28095
0.270713
0.261563
0.255259
0.255085
0.265678
0.290533
0.328105
0.371835
0.414325
0.450929
0.479842
0.501744
0.514535
0.172414
0.171688
0.170955
0.170217
0.169474
0.168726
0.167973
0.167217
0.166458
0.165698
0.164937
0.164179
0.163424
0.162677
0.161942
0.161222
0.160523
0.159852
0.159213
0.158616
0.158066
0.157572
0.157141
0.156782
0.156504
0.156315
0.156224
0.156241
0.156375
0.156637
0.157037
0.157584
0.158291
0.159168
0.160225
0.161476
0.16293
0.164598
0.166492
0.168621
0.170996
0.173626
0.17652
0.179685
0.183126
0.186845
0.190836
0.195086
0.19957
0.204252
0.209085
0.214015
0.218987
0.223961
0.228921
0.233891
0.238945
0.24421
0.249859
0.256081
0.263048
0.270851
0.279454
0.288658
0.298116
0.307373
0.315933
0.323336
0.329203
0.333272
0.335414
0.335632
0.334047
0.33088
0.326423
0.321002
0.31494
0.308519
0.301946
0.295345
0.288747
0.282115
0.27537
0.268429
0.261237
0.253802
0.246242
0.238859
0.232319
0.228059
0.228838
0.23867
0.260762
0.294176
0.333752
0.373433
0.40904
0.438375
0.461322
0.475052
0.173026
0.172332
0.171633
0.170928
0.170217
0.169502
0.168782
0.168058
0.16733
0.166598
0.165864
0.165127
0.164389
0.163651
0.162916
0.162185
0.16146
0.160745
0.160043
0.159359
0.158695
0.158057
0.157451
0.15688
0.156351
0.155869
0.15544
0.155072
0.154769
0.15454
0.154391
0.154329
0.154361
0.154495
0.154738
0.155099
0.155585
0.156204
0.156964
0.157873
0.158942
0.160178
0.16159
0.163189
0.164982
0.166977
0.169178
0.171584
0.174188
0.176977
0.17993
0.18302
0.186219
0.189505
0.192868
0.196322
0.199911
0.203713
0.207838
0.212415
0.217563
0.22336
0.229799
0.236764
0.244025
0.251263
0.258113
0.264221
0.269285
0.273085
0.275498
0.276498
0.276153
0.274606
0.272056
0.268731
0.264864
0.260663
0.256288
0.25184
0.247356
0.24282
0.238181
0.233379
0.22837
0.223157
0.217821
0.212592
0.207983
0.205119
0.20622
0.214687
0.233533
0.262475
0.297572
0.333886
0.367753
0.396807
0.420286
0.434709
0.173438
0.17277
0.172097
0.171418
0.170735
0.170047
0.169355
0.168658
0.167957
0.167252
0.166542
0.165829
0.165113
0.164395
0.163674
0.162953
0.162233
0.161514
0.160799
0.160089
0.159388
0.158697
0.158019
0.157358
0.156717
0.1561
0.15551
0.154951
0.154428
0.153946
0.153509
0.153123
0.152791
0.15252
0.152315
0.152181
0.152124
0.15215
0.152263
0.152471
0.15278
0.153197
0.153729
0.154384
0.155169
0.156091
0.157156
0.158369
0.15973
0.161237
0.162883
0.164656
0.166545
0.16854
0.170635
0.172841
0.175183
0.177708
0.180485
0.1836
0.187136
0.191158
0.19568
0.200647
0.205918
0.211284
0.216489
0.221269
0.225387
0.22866
0.230975
0.232287
0.232625
0.232072
0.230758
0.228837
0.22647
0.223807
0.220967
0.218031
0.215035
0.21198
0.208834
0.205559
0.202122
0.198519
0.194805
0.191143
0.187913
0.185951
0.186958
0.193709
0.209026
0.233321
0.263775
0.296358
0.32787
0.355935
0.379331
0.394095
0.173714
0.173065
0.172412
0.171754
0.171092
0.170425
0.169754
0.169079
0.1684
0.167717
0.167029
0.166338
0.165643
0.164945
0.164243
0.163539
0.162833
0.162125
0.161416
0.160708
0.160001
0.159297
0.158597
0.157904
0.157219
0.156544
0.155882
0.155236
0.154607
0.154
0.153417
0.152862
0.152338
0.151848
0.151397
0.150988
0.150626
0.150313
0.150055
0.149856
0.149719
0.149651
0.149656
0.14974
0.149907
0.150165
0.150518
0.150971
0.151527
0.152189
0.152956
0.153825
0.154792
0.155855
0.157012
0.15827
0.159643
0.161161
0.162864
0.164807
0.167048
0.169637
0.172601
0.175921
0.179526
0.18329
0.187043
0.1906
0.193779
0.196432
0.198454
0.199792
0.200443
0.200449
0.199888
0.19886
0.197471
0.195827
0.194014
0.192097
0.190109
0.188059
0.185933
0.183707
0.181359
0.178884
0.176316
0.173762
0.171488
0.170083
0.170777
0.175716
0.187443
0.20701
0.232716
0.261339
0.290041
0.3165
0.339194
0.353886
0.173884
0.173249
0.17261
0.171968
0.171321
0.17067
0.170016
0.169357
0.168695
0.168029
0.16736
0.166686
0.166009
0.165328
0.164644
0.163956
0.163265
0.162571
0.161875
0.161177
0.160478
0.159778
0.159078
0.158379
0.157682
0.156989
0.1563
0.155618
0.154945
0.154281
0.153629
0.152992
0.152371
0.151769
0.151188
0.150632
0.150102
0.149602
0.149134
0.148701
0.148308
0.147955
0.147648
0.14739
0.147185
0.147037
0.146949
0.146927
0.146972
0.14709
0.14728
0.147545
0.147884
0.148299
0.148789
0.14936
0.150021
0.150787
0.151684
0.152744
0.154004
0.155503
0.157266
0.159298
0.161572
0.164022
0.166549
0.169029
0.171334
0.173347
0.174976
0.176164
0.176888
0.177159
0.177019
0.176525
0.175746
0.174752
0.173605
0.172354
0.171028
0.169642
0.168192
0.166667
0.165052
0.163344
0.161562
0.159773
0.158149
0.15708
0.157401
0.160659
0.16899
0.183881
0.204741
0.229207
0.254761
0.27913
0.300587
0.314805
0.17399
0.173365
0.172736
0.172104
0.171468
0.170829
0.170186
0.16954
0.168891
0.168237
0.167581
0.166921
0.166257
0.16559
0.16492
0.164247
0.16357
0.16289
0.162206
0.16152
0.160832
0.160141
0.159449
0.158755
0.15806
0.157366
0.156672
0.15598
0.155291
0.154605
0.153925
0.153251
0.152585
0.151929
0.151284
0.150652
0.150035
0.149435
0.148853
0.148291
0.147753
0.147239
0.146752
0.146295
0.14587
0.14548
0.145127
0.144815
0.144546
0.144323
0.144148
0.144023
0.14395
0.143931
0.143968
0.144063
0.144223
0.144457
0.144778
0.145205
0.14576
0.14647
0.147355
0.148428
0.149686
0.151102
0.152626
0.154187
0.155703
0.15709
0.158273
0.159198
0.159832
0.160167
0.160216
0.160007
0.159581
0.158981
0.158249
0.157419
0.156517
0.155558
0.154545
0.153475
0.15234
0.151139
0.149882
0.148608
0.147421
0.14656
0.146553
0.148427
0.153807
0.1643
0.180268
0.200344
0.222439
0.244331
0.264134
0.277548
0.174049
0.17343
0.172808
0.172183
0.171555
0.170923
0.170288
0.169651
0.16901
0.168366
0.167719
0.167068
0.166415
0.165759
0.165099
0.164436
0.16377
0.163101
0.162429
0.161754
0.161076
0.160395
0.159712
0.159026
0.158339
0.15765
0.156959
0.156269
0.155578
0.154888
0.154199
0.153512
0.152829
0.15215
0.151477
0.15081
0.15015
0.149499
0.148859
0.14823
0.147614
0.147012
0.146425
0.145857
0.145307
0.144777
0.14427
0.143788
0.143331
0.142903
0.142506
0.14214
0.141808
0.141512
0.141254
0.141036
0.140862
0.140737
0.140668
0.140664
0.14074
0.14091
0.141188
0.141587
0.142113
0.14276
0.143508
0.144324
0.145161
0.145968
0.146692
0.147288
0.147724
0.147981
0.148055
0.147955
0.147699
0.147312
0.146817
0.146239
0.145595
0.1449
0.144159
0.143374
0.142543
0.141665
0.140746
0.139808
0.138909
0.138185
0.137941
0.138804
0.141873
0.148551
0.15979
0.175251
0.193519
0.212555
0.230368
0.242733
0.174084
0.173469
0.172852
0.172231
0.171607
0.170981
0.170351
0.169719
0.169084
0.168446
0.167805
0.167162
0.166515
0.165866
0.165214
0.164559
0.163901
0.16324
0.162576
0.16191
0.16124
0.160568
0.159893
0.159215
0.158536
0.157854
0.15717
0.156484
0.155797
0.155109
0.154421
0.153733
0.153045
0.152359
0.151675
0.150994
0.150316
0.149642
0.148974
0.148311
0.147656
0.147008
0.14637
0.145741
0.145122
0.144516
0.143923
0.143344
0.14278
0.142233
0.141705
0.141196
0.140709
0.140244
0.139803
0.139389
0.139003
0.138648
0.138328
0.138047
0.137813
0.137633
0.137516
0.137471
0.137505
0.137619
0.13781
0.138065
0.138363
0.138676
0.138975
0.139229
0.139411
0.139503
0.139493
0.139378
0.139163
0.138857
0.138473
0.138024
0.137522
0.136976
0.136392
0.135774
0.135123
0.134439
0.133727
0.132998
0.132282
0.13165
0.131264
0.13147
0.132931
0.136656
0.143713
0.154545
0.168609
0.184339
0.199807
0.210918
0.174102
0.17349
0.172874
0.172256
0.171635
0.171012
0.170386
0.169757
0.169125
0.168491
0.167854
0.167215
0.166573
0.165929
0.165282
0.164632
0.163979
0.163324
0.162667
0.162006
0.161343
0.160677
0.160009
0.159338
0.158664
0.157989
0.157311
0.156631
0.155949
0.155266
0.154581
0.153896
0.15321
0.152524
0.151838
0.151153
0.150469
0.149787
0.149107
0.14843
0.147756
0.147087
0.146422
0.145763
0.145109
0.144462
0.143823
0.143191
0.142569
0.141956
0.141354
0.140764
0.140187
0.139623
0.139075
0.138543
0.138029
0.137533
0.137059
0.136608
0.136183
0.135788
0.135427
0.135107
0.134831
0.134602
0.134423
0.134291
0.134199
0.134135
0.134085
0.134033
0.13396
0.133854
0.133703
0.1335
0.133241
0.13293
0.132568
0.132162
0.131717
0.131239
0.130732
0.130199
0.129643
0.129065
0.128468
0.127858
0.127249
0.126675
0.126215
0.126042
0.126511
0.128237
0.132063
0.138728
0.148446
0.16041
0.173089
0.182696
0.174113
0.173502
0.172888
0.172272
0.171652
0.171031
0.170406
0.16978
0.16915
0.168518
0.167884
0.167247
0.166608
0.165967
0.165323
0.164676
0.164027
0.163376
0.162722
0.162066
0.161407
0.160746
0.160082
0.159416
0.158747
0.158076
0.157403
0.156728
0.156051
0.155373
0.154692
0.154011
0.153328
0.152644
0.15196
0.151275
0.15059
0.149906
0.149223
0.148541
0.14786
0.147181
0.146505
0.145831
0.145161
0.144494
0.143831
0.143172
0.142519
0.141871
0.141229
0.140594
0.139967
0.139348
0.138739
0.138139
0.13755
0.136973
0.136408
0.135856
0.135318
0.134797
0.134293
0.133809
0.133348
0.132913
0.132506
0.132128
0.131778
0.131454
0.131149
0.130858
0.130571
0.13028
0.129978
0.129658
0.129315
0.128947
0.128554
0.128135
0.127692
0.127228
0.126744
0.126242
0.125724
0.125192
0.124648
0.124095
0.12354
0.122997
0.1225
0.122127
0.122051
0.122596
0.124288
0.12776
0.133557
0.141585
0.151031
0.158786
0.174119
0.173508
0.172895
0.172279
0.171661
0.17104
0.170417
0.169791
0.169163
0.168533
0.1679
0.167265
0.166627
0.165987
0.165345
0.1647
0.164054
0.163405
0.162753
0.162099
0.161443
0.160785
0.160124
0.159461
0.158796
0.158129
0.157459
0.156788
0.156114
0.155439
0.154762
0.154084
0.153404
0.152724
0.152042
0.151359
0.150676
0.149993
0.149309
0.148626
0.147944
0.147262
0.146581
0.145902
0.145224
0.144547
0.143873
0.143202
0.142533
0.141867
0.141205
0.140547
0.139893
0.139245
0.138602
0.137965
0.137335
0.136711
0.136095
0.135486
0.134884
0.13429
0.133704
0.133128
0.132563
0.132009
0.13147
0.130946
0.130439
0.12995
0.129477
0.129019
0.128574
0.128137
0.127705
0.127274
0.126839
0.126399
0.125949
0.125489
0.125018
0.124535
0.12404
0.123536
0.123022
0.122499
0.12197
0.121436
0.120899
0.120365
0.119846
0.119374
0.119024