/*--------------------------------*- C++ -*----------------------------------*\
| =========                 |                                                 |
| \\      /  F ield         | OpenFOAM: The Open Source CFD Toolbox           |
|  \\    /   O peration     | Version:  4.1                                   |
|   \\  /    A nd           | Web:      www.OpenFOAM.org                      |
|    \\/     M anipulation  |                                                 |
\*---------------------------------------------------------------------------*/
FoamFile
{
    version     2.0;
    format      ascii;
    class       volScalarField;
    location    "500";
    object      nut;
}
// * * * * * * * * * * * * * * * * * * * * * * * * * * * * * * * * * * * * * //

dimensions      [0 2 -1 0 0 0 0];

internalField   nonuniform List<scalar> 
6820
(
4.53774e-05
4.96674e-05
5.35596e-05
5.70331e-05
6.00873e-05
6.27331e-05
6.49894e-05
6.68827e-05
6.84453e-05
6.97121e-05
7.07185e-05
7.1499e-05
7.20855e-05
7.25077e-05
7.27916e-05
7.29605e-05
7.30347e-05
7.30313e-05
7.29654e-05
7.28494e-05
7.26941e-05
7.25083e-05
7.22996e-05
7.20741e-05
7.1837e-05
7.15926e-05
7.13443e-05
7.1095e-05
7.08469e-05
7.06022e-05
7.03618e-05
7.01315e-05
6.99827e-05
0.000389004
0.000214805
0.000161972
0.000134579
0.000117084
0.000104843
9.5875e-05
8.91223e-05
8.39523e-05
7.99579e-05
7.6861e-05
7.44628e-05
7.26169e-05
7.12132e-05
7.01676e-05
6.94149e-05
6.89036e-05
6.85931e-05
6.84505e-05
6.84494e-05
6.85682e-05
6.87889e-05
6.90965e-05
6.94784e-05
6.99239e-05
7.04238e-05
7.09704e-05
7.15567e-05
7.21773e-05
7.28254e-05
7.35007e-05
7.41936e-05
7.51781e-05
0.000867009
0.000638272
0.000507689
0.00042808
0.000375011
0.000336913
0.000308045
0.000285291
0.000266808
0.000251434
0.000238407
0.000227203
0.000217451
0.000208882
0.000201294
0.000194536
0.000188487
0.000183053
0.000178157
0.000173741
0.000169734
0.000166033
0.000162599
0.000159407
0.000156438
0.000153675
0.000151104
0.000148709
0.000146478
0.0001444
0.000142461
0.000140662
0.000139059
0.000991214
0.000902163
0.000807376
0.00072662
0.00066186
0.000610171
0.000568426
0.000534159
0.000505558
0.00048132
0.0004605
0.000442398
0.00042649
0.000412378
0.000399756
0.000388386
0.000378081
0.000368691
0.000360097
0.000352203
0.000344928
0.000338175
0.00033187
0.00032596
0.000320402
0.000315163
0.000310212
0.000305525
0.00030108
0.00029686
0.000292845
0.000289024
0.000285377
0.00101005
0.00098739
0.000948625
0.000902916
0.000857082
0.000814438
0.000776074
0.000742007
0.000711854
0.000685127
0.000661353
0.000640107
0.000621029
0.000603811
0.000588198
0.000573977
0.000560969
0.000549024
0.000538017
0.000527841
0.000518407
0.000509635
0.000501452
0.000493797
0.000486616
0.000479861
0.000473493
0.000467478
0.000461784
0.000456384
0.000451255
0.000446373
0.000441677
0.00101185
0.00100724
0.000995356
0.000976942
0.00095412
0.000929117
0.000903657
0.0008788
0.000855097
0.000832803
0.000811998
0.000792665
0.000774734
0.000758109
0.000742688
0.000728369
0.000715055
0.000702656
0.000691089
0.00068028
0.000670162
0.000660675
0.000651764
0.000643379
0.000635476
0.000628015
0.000620961
0.00061428
0.000607945
0.000601929
0.000596207
0.000590751
0.000585482
0.00101178
0.00101089
0.00100777
0.00100182
0.000992905
0.00098147
0.000968241
0.000953919
0.000939071
0.000924117
0.000909347
0.000894953
0.000881053
0.000867715
0.00085497
0.000842827
0.00083128
0.000820312
0.0008099
0.000800019
0.000790638
0.000781725
0.000773254
0.000765199
0.000757537
0.000750244
0.000743298
0.000736677
0.000730362
0.000724335
0.000718576
0.00071306
0.000707698
0.00101168
0.00101136
0.00101047
0.00100868
0.00100565
0.0010012
0.000995411
0.000988493
0.00098069
0.000972244
0.000963373
0.000954262
0.000945057
0.00093587
0.000926787
0.000917869
0.000909161
0.000900694
0.000892486
0.000884548
0.000876885
0.000869497
0.00086238
0.000855529
0.000848936
0.000842596
0.000836498
0.000830635
0.000824997
0.000819574
0.000814357
0.000809324
0.000804386
0.00101165
0.00101137
0.00101095
0.0010103
0.00100928
0.00100768
0.00100543
0.00100251
0.00099894
0.000994801
0.000990177
0.000985158
0.000979837
0.000974295
0.000968605
0.000962829
0.000957018
0.000951214
0.000945449
0.000939749
0.000934134
0.000928622
0.000923224
0.000917948
0.000912802
0.000907788
0.000902909
0.000898167
0.000893561
0.000889089
0.000884748
0.000880523
0.000876327
0.00101164
0.00101135
0.00101102
0.00101063
0.00101016
0.00100951
0.0010086
0.00100738
0.00100583
0.00100394
0.00100172
0.000999198
0.000996406
0.000993379
0.000990154
0.00098677
0.000983259
0.000979654
0.000975982
0.000972268
0.000968533
0.000964794
0.000961068
0.000957367
0.000953701
0.000950081
0.000946512
0.000943001
0.000939553
0.00093617
0.000932853
0.000929591
0.0009263
0.00101163
0.00101134
0.00101103
0.0010107
0.00101036
0.00100998
0.00100952
0.00100894
0.00100823
0.00100736
0.00100632
0.00100511
0.00100373
0.00100218
0.00100049
0.000998652
0.000996694
0.00099463
0.000992475
0.000990244
0.000987951
0.00098561
0.000983232
0.000980829
0.00097841
0.000975984
0.000973559
0.000971142
0.000968738
0.000966352
0.000963987
0.000961631
0.000959204
0.00101163
0.00101134
0.00101103
0.00101072
0.00101041
0.0010101
0.00100977
0.00100939
0.00100897
0.00100849
0.00100793
0.0010073
0.00100658
0.00100577
0.00100487
0.00100388
0.00100281
0.00100166
0.00100044
0.000999159
0.000997816
0.000996421
0.000994982
0.000993506
0.000991998
0.000990465
0.000988912
0.000987345
0.000985769
0.000984186
0.0009826
0.000981
0.000979306
0.00101163
0.00101133
0.00101104
0.00101073
0.00101043
0.00101014
0.00100984
0.00100953
0.00100921
0.00100886
0.00100849
0.0010081
0.00100766
0.00100719
0.00100667
0.00100611
0.0010055
0.00100485
0.00100416
0.00100342
0.00100264
0.00100182
0.00100097
0.00100009
0.000999176
0.000998239
0.000997279
0.0009963
0.000995304
0.000994295
0.000993273
0.000992225
0.000991074
0.00101163
0.00101133
0.00101104
0.00101074
0.00101045
0.00101016
0.00100987
0.00100958
0.00100929
0.00100899
0.00100868
0.00100837
0.00100804
0.0010077
0.00100734
0.00100696
0.00100656
0.00100614
0.0010057
0.00100523
0.00100475
0.00100424
0.00100371
0.00100316
0.00100259
0.00100201
0.00100141
0.00100079
0.00100016
0.000999517
0.000998862
0.000998182
0.000997399
0.00101163
0.00101133
0.00101104
0.00101075
0.00101046
0.00101018
0.00100989
0.00100961
0.00100933
0.00100905
0.00100877
0.00100848
0.0010082
0.00100791
0.00100761
0.00100731
0.00100701
0.00100669
0.00100637
0.00100604
0.0010057
0.00100535
0.00100499
0.00100462
0.00100424
0.00100385
0.00100345
0.00100304
0.00100263
0.0010022
0.00100177
0.00100131
0.00100076
0.00101163
0.00101133
0.00101105
0.00101075
0.00101047
0.00101019
0.00100991
0.00100963
0.00100936
0.00100908
0.00100881
0.00100854
0.00100827
0.001008
0.00100773
0.00100746
0.00100719
0.00100692
0.00100664
0.00100637
0.00100609
0.00100581
0.00100553
0.00100524
0.00100495
0.00100466
0.00100436
0.00100406
0.00100375
0.00100345
0.00100314
0.0010028
0.00100238
0.00101163
0.00101133
0.00101105
0.00101076
0.00101048
0.0010102
0.00100992
0.00100965
0.00100938
0.00100911
0.00100884
0.00100858
0.00100831
0.00100805
0.0010078
0.00100754
0.00100729
0.00100703
0.00100678
0.00100654
0.00100629
0.00100604
0.0010058
0.00100555
0.00100531
0.00100506
0.00100482
0.00100457
0.00100433
0.00100408
0.00100384
0.00100357
0.00100322
0.00101163
0.00101133
0.00101105
0.00101076
0.00101048
0.00101021
0.00100994
0.00100966
0.00100939
0.00100913
0.00100887
0.0010086
0.00100835
0.00100809
0.00100784
0.00100759
0.00100735
0.0010071
0.00100686
0.00100663
0.00100639
0.00100616
0.00100593
0.0010057
0.00100548
0.00100525
0.00100503
0.00100481
0.0010046
0.00100438
0.00100416
0.00100393
0.00100361
0.00101163
0.00101133
0.00101105
0.00101077
0.00101049
0.00101022
0.00100994
0.00100968
0.00100941
0.00100915
0.00100889
0.00100863
0.00100837
0.00100812
0.00100788
0.00100763
0.00100739
0.00100715
0.00100692
0.00100669
0.00100646
0.00100624
0.00100602
0.0010058
0.00100559
0.00100538
0.00100517
0.00100496
0.00100476
0.00100456
0.00100436
0.00100415
0.00100385
0.00101163
0.00101133
0.00101105
0.00101077
0.00101049
0.00101022
0.00100995
0.00100969
0.00100942
0.00100916
0.0010089
0.00100865
0.0010084
0.00100815
0.00100791
0.00100767
0.00100743
0.0010072
0.00100697
0.00100674
0.00100652
0.0010063
0.00100608
0.00100587
0.00100566
0.00100546
0.00100525
0.00100506
0.00100486
0.00100467
0.00100448
0.00100428
0.00100398
0.00101163
0.00101133
0.00101105
0.00101077
0.0010105
0.00101023
0.00100996
0.00100969
0.00100943
0.00100917
0.00100892
0.00100867
0.00100842
0.00100817
0.00100793
0.00100769
0.00100746
0.00100723
0.001007
0.00100678
0.00100656
0.00100634
0.00100613
0.00100593
0.00100572
0.00100552
0.00100532
0.00100513
0.00100494
0.00100475
0.00100457
0.00100437
0.00100408
0.00101163
0.00101133
0.00101105
0.00101077
0.0010105
0.00101023
0.00100996
0.0010097
0.00100944
0.00100918
0.00100893
0.00100868
0.00100843
0.00100819
0.00100795
0.00100772
0.00100749
0.00100726
0.00100703
0.00100681
0.0010066
0.00100638
0.00100618
0.00100597
0.00100577
0.00100557
0.00100538
0.00100519
0.001005
0.00100482
0.00100464
0.00100444
0.00100416
0.00101163
0.00101133
0.00101105
0.00101077
0.0010105
0.00101023
0.00100997
0.00100971
0.00100945
0.00100919
0.00100894
0.00100869
0.00100845
0.00100821
0.00100797
0.00100774
0.00100751
0.00100728
0.00100706
0.00100684
0.00100663
0.00100642
0.00100621
0.00100601
0.00100581
0.00100561
0.00100542
0.00100523
0.00100505
0.00100487
0.00100469
0.0010045
0.00100422
0.00101163
0.00101133
0.00101105
0.00101077
0.0010105
0.00101023
0.00100997
0.00100971
0.00100945
0.0010092
0.00100895
0.0010087
0.00100846
0.00100822
0.00100798
0.00100775
0.00100753
0.0010073
0.00100708
0.00100686
0.00100665
0.00100644
0.00100624
0.00100604
0.00100584
0.00100565
0.00100546
0.00100527
0.00100509
0.00100491
0.00100474
0.00100455
0.00100427
0.00101163
0.00101133
0.00101105
0.00101077
0.0010105
0.00101024
0.00100997
0.00100971
0.00100946
0.0010092
0.00100895
0.00100871
0.00100847
0.00100823
0.00100799
0.00100776
0.00100754
0.00100731
0.00100709
0.00100688
0.00100667
0.00100646
0.00100626
0.00100606
0.00100586
0.00100567
0.00100548
0.00100529
0.00100511
0.00100493
0.00100476
0.00100457
0.00100429
0.00101163
0.00101133
0.00101105
0.00101077
0.0010105
0.00101024
0.00100997
0.00100971
0.00100946
0.0010092
0.00100895
0.00100871
0.00100847
0.00100823
0.001008
0.00100777
0.00100754
0.00100732
0.0010071
0.00100689
0.00100668
0.00100647
0.00100627
0.00100607
0.00100588
0.00100569
0.0010055
0.00100532
0.00100514
0.00100496
0.00100479
0.0010046
0.00100432
0.00101163
0.00101133
0.00101105
0.00101077
0.0010105
0.00101024
0.00100997
0.00100971
0.00100946
0.0010092
0.00100896
0.00100871
0.00100847
0.00100823
0.001008
0.00100777
0.00100754
0.00100732
0.0010071
0.00100688
0.00100667
0.00100646
0.00100626
0.00100606
0.00100586
0.00100567
0.00100548
0.0010053
0.00100512
0.00100494
0.00100476
0.00100458
0.0010043
0.00101163
0.00101133
0.00101105
0.00101077
0.0010105
0.00101024
0.00100997
0.00100971
0.00100946
0.0010092
0.00100895
0.00100871
0.00100847
0.00100823
0.001008
0.00100777
0.00100754
0.00100732
0.0010071
0.00100689
0.00100668
0.00100647
0.00100627
0.00100607
0.00100588
0.00100568
0.0010055
0.00100531
0.00100513
0.00100496
0.00100478
0.0010046
0.00100432
0.00101163
0.00101133
0.00101105
0.00101077
0.0010105
0.00101023
0.00100997
0.00100971
0.00100945
0.0010092
0.00100894
0.0010087
0.00100845
0.00100821
0.00100798
0.00100774
0.00100751
0.00100729
0.00100706
0.00100685
0.00100663
0.00100642
0.00100622
0.00100601
0.00100581
0.00100562
0.00100543
0.00100524
0.00100506
0.00100488
0.0010047
0.00100451
0.00100423
0.00101163
0.00101133
0.00101105
0.00101077
0.0010105
0.00101023
0.00100997
0.0010097
0.00100945
0.00100919
0.00100894
0.0010087
0.00100845
0.00100821
0.00100798
0.00100775
0.00100752
0.0010073
0.00100708
0.00100686
0.00100665
0.00100644
0.00100624
0.00100603
0.00100584
0.00100564
0.00100545
0.00100526
0.00100508
0.0010049
0.00100472
0.00100452
0.00100424
0.00101163
0.00101133
0.00101105
0.00101077
0.0010105
0.00101023
0.00100996
0.00100969
0.00100943
0.00100917
0.00100891
0.00100866
0.00100841
0.00100816
0.00100792
0.00100767
0.00100744
0.0010072
0.00100697
0.00100675
0.00100652
0.0010063
0.00100609
0.00100588
0.00100567
0.00100546
0.00100526
0.00100506
0.00100486
0.00100467
0.00100448
0.00100427
0.00100398
0.00101163
0.00101133
0.00101105
0.00101077
0.00101049
0.00101022
0.00100996
0.0010097
0.00100944
0.00100918
0.00100893
0.00100868
0.00100844
0.00100819
0.00100795
0.00100771
0.00100747
0.00100723
0.001007
0.00100676
0.00100653
0.0010063
0.00100607
0.00100584
0.00100562
0.00100539
0.00100517
0.00100494
0.00100472
0.0010045
0.00100428
0.00100404
0.00100371
0.00101163
0.00101133
0.00101105
0.00101077
0.00101048
0.0010102
0.00100992
0.00100964
0.00100935
0.00100907
0.00100879
0.00100851
0.00100823
0.00100794
0.00100766
0.00100738
0.0010071
0.00100681
0.00100653
0.00100624
0.00100595
0.00100566
0.00100537
0.00100507
0.00100477
0.00100447
0.00100417
0.00100387
0.00100357
0.00100326
0.00100295
0.00100262
0.0010022
0.00101163
0.00101134
0.00101105
0.00101077
0.00101049
0.00101021
0.00100993
0.00100964
0.00100934
0.00100903
0.00100871
0.00100837
0.00100803
0.00100766
0.00100729
0.00100689
0.00100648
0.00100606
0.00100562
0.00100516
0.00100469
0.00100421
0.00100372
0.00100321
0.00100269
0.00100216
0.00100162
0.00100108
0.00100052
0.000999959
0.00099939
0.000998798
0.000998109
0.00101163
0.00101134
0.00101103
0.00101069
0.00101033
0.00100994
0.00100951
0.00100904
0.00100853
0.00100796
0.00100734
0.00100667
0.00100594
0.00100515
0.00100431
0.00100342
0.00100248
0.0010015
0.00100048
0.00099942
0.000998332
0.000997216
0.000996076
0.000994918
0.000993743
0.000992556
0.00099136
0.000990158
0.000988951
0.000987744
0.000986535
0.000985313
0.000984002
0.00101164
0.00101133
0.00101094
0.00101042
0.00100973
0.00100883
0.0010077
0.00100635
0.00100478
0.00100301
0.00100104
0.000998912
0.000996635
0.000994233
0.000991725
0.000989132
0.000986471
0.000983759
0.00098101
0.000978238
0.000975454
0.000972668
0.000969889
0.000967125
0.00096438
0.000961661
0.000958972
0.000956318
0.000953702
0.000951126
0.000948591
0.000946086
0.000943535
0.00101162
0.0010106
0.00100853
0.00100543
0.0010014
0.000996515
0.000990912
0.000984751
0.00097818
0.000971321
0.000964281
0.000957147
0.000949992
0.00094287
0.000935828
0.000928899
0.000922108
0.000915474
0.00090901
0.000902725
0.000896624
0.000890709
0.000884981
0.000879439
0.000874079
0.0008689
0.000863896
0.000859063
0.000854396
0.000849889
0.000845536
0.000841322
0.000837172
0.00100895
0.00099538
0.000976044
0.000953698
0.000930326
0.0009071
0.000884666
0.000863339
0.000843242
0.000824404
0.000806801
0.000790375
0.000775051
0.00076075
0.000747392
0.0007349
0.000723202
0.000712233
0.000701932
0.000692245
0.000683121
0.000674517
0.000666391
0.000658707
0.000651433
0.000644538
0.000637995
0.00063178
0.000625869
0.000620243
0.000614882
0.000609765
0.00060483
0.000892787
0.000742251
0.000649194
0.00058553
0.000538553
0.000502121
0.000472864
0.000448729
0.000428388
0.000410948
0.000395786
0.00038245
0.000370608
0.000360004
0.000350442
0.000341768
0.000333858
0.000326611
0.000319945
0.000313791
0.000308093
0.000302802
0.000297875
0.000293278
0.00028898
0.000284952
0.000281173
0.00027762
0.000274275
0.000271121
0.000268144
0.000265331
0.000262671
0.000126722
0.000129956
0.000133005
0.000135891
0.000138628
0.000141229
0.000143705
0.000146063
0.000148309
0.000150449
0.000152489
0.000154432
0.000156285
0.000158049
0.000159731
0.000161332
0.000162858
0.000164311
0.000165694
0.000167011
0.000168265
0.000169459
0.000170595
0.000171676
0.000172704
0.000173683
0.000174615
0.000175501
0.000176344
0.000177146
0.000177909
0.000178636
0.000179332
8.498e-05
0.000113273
0.000142005
0.000170448
0.000195901
0.000218177
0.000238097
0.000256616
0.000274571
0.00029251
0.000310675
0.000329095
0.000347718
0.000366558
0.000385648
0.000404976
0.000424476
0.000444243
0.000464264
0.000484682
0.000505653
0.000527296
0.000549697
0.000572897
0.000596907
0.000621709
0.000647271
0.000673551
0.000700494
0.00072804
0.000756134
0.000784736
0.000813828
0.000843405
0.000873475
0.000904047
0.00093512
0.000966692
0.000998757
0.00103132
0.0010644
0.00109803
0.00113226
0.00116716
0.00120276
0.00123904
0.0012759
0.00131317
0.00135057
0.00138773
0.00142428
0.00145994
0.0014946
0.0015285
0.0015623
0.00159712
0.00163452
0.00167622
0.0017238
0.00177813
0.00183891
0.00190427
0.00197086
0.00203434
0.00209027
0.00213504
0.00216642
0.00218385
0.0021882
0.00218147
0.0021664
0.00214615
0.00212394
0.00210275
0.00208504
0.00207237
0.00206516
0.00206247
0.00206205
0.00206059
0.00205432
0.00203969
0.00201396
0.00197559
0.00192441
0.00186158
0.00178949
0.0017119
0.00163549
0.00157379
0.00155214
0.00161286
0.00182071
0.00225227
0.00292349
0.0036858
0.00430022
0.00465718
0.00479625
0.00477173
7.82556e-05
8.43217e-05
9.41092e-05
0.000108149
0.000125661
0.000145732
0.000167181
0.000188781
0.00020993
0.000230349
0.000249981
0.000268933
0.000287413
0.00030569
0.000324015
0.000342538
0.000361292
0.00038029
0.000399638
0.000419347
0.000439491
0.000460173
0.000481488
0.000503499
0.000526233
0.000549688
0.000573847
0.000598683
0.000624162
0.00065024
0.000676868
0.000703998
0.000731592
0.000759624
0.000788082
0.00081696
0.000846259
0.00087598
0.000906133
0.000936742
0.000967848
0.000999511
0.0010318
0.00106481
0.00109857
0.00113309
0.00116829
0.001204
0.00123993
0.00127573
0.00131102
0.00134553
0.00137916
0.00141217
0.00144522
0.00147947
0.00151647
0.00155798
0.00160556
0.0016601
0.00172127
0.00178717
0.00185433
0.00191828
0.00197447
0.00201921
0.00205032
0.0020673
0.00207116
0.00206401
0.00204872
0.00202847
0.00200651
0.00198578
0.00196867
0.00195667
0.00195017
0.00194826
0.00194875
0.00194847
0.00194376
0.00193117
0.00190805
0.00187297
0.00182585
0.00176802
0.00170213
0.00163239
0.00156657
0.00152061
0.00152432
0.00162546
0.00189087
0.00238648
0.00309457
0.00383558
0.00439059
0.00469331
0.00480053
0.00476339
0.000137722
0.000137318
0.0001377
0.000138798
0.0001404
0.000142342
0.000145649
0.000151767
0.000160868
0.000172454
0.000186075
0.000201294
0.000217712
0.000235009
0.000252948
0.000271337
0.000289975
0.000308711
0.000327658
0.000346842
0.000366331
0.000386222
0.000406616
0.000427587
0.000449174
0.000471389
0.000494226
0.000517675
0.000541722
0.000566348
0.000591525
0.000617218
0.000643391
0.000670015
0.000697067
0.000724531
0.000752401
0.000780678
0.000809376
0.000838525
0.000868175
0.000898396
0.000929273
0.00096089
0.000993307
0.00102654
0.00106051
0.00109505
0.00112989
0.00116468
0.00119905
0.00123274
0.00126564
0.00129802
0.00133053
0.00136432
0.00140092
0.00144209
0.00148942
0.00154383
0.00160505
0.00167122
0.00173884
0.00180336
0.00186011
0.00190529
0.00193667
0.00195378
0.0019577
0.00195065
0.00193554
0.0019156
0.00189403
0.00187374
0.00185706
0.00184547
0.00183941
0.00183807
0.00183944
0.00184052
0.00183784
0.00182805
0.00180858
0.00177801
0.00173629
0.00168478
0.00162631
0.00156548
0.00151072
0.00147964
0.00150616
0.00164385
0.00195961
0.00250195
0.00322063
0.00392499
0.00442763
0.00469305
0.00478248
0.00474009
0.000281116
0.000277005
0.000273259
0.000269878
0.00026668
0.000263067
0.000258427
0.000252597
0.000245709
0.000239612
0.000235106
0.000232629
0.000232521
0.000234969
0.00023999
0.00024744
0.00025703
0.000268394
0.000281248
0.000295396
0.000310655
0.000326901
0.000344057
0.00036207
0.000380896
0.000400494
0.000420831
0.000441883
0.000463632
0.000486064
0.000509159
0.000532888
0.000557218
0.000582111
0.000607535
0.000633461
0.000659869
0.000686749
0.000714105
0.000741963
0.000770369
0.000799388
0.000829104
0.000859599
0.000890935
0.000923125
0.000956103
0.00098971
0.00102369
0.0010577
0.0010914
0.0011245
0.00115693
0.00118891
0.00122109
0.00125456
0.00129083
0.0013316
0.00137847
0.00143244
0.00149334
0.00155939
0.00162721
0.00169221
0.00174962
0.00179554
0.00182762
0.00184535
0.00184982
0.0018433
0.00182873
0.00180934
0.00178831
0.0017685
0.0017522
0.00174093
0.00173519
0.00173434
0.0017366
0.00173921
0.00173891
0.00173249
0.00171739
0.0016922
0.00165681
0.00161252
0.00156223
0.00151084
0.00146724
0.00144991
0.00149583
0.0016644
0.00202246
0.00259772
0.00330993
0.00397117
0.00442888
0.00466832
0.00474823
0.0047032
0.000435976
0.000430254
0.000424675
0.000419365
0.000414361
0.000409579
0.000404783
0.0003996
0.000393558
0.000386365
0.00037832
0.000369675
0.000360703
0.000351807
0.000343487
0.000336246
0.00033051
0.000326552
0.000324614
0.000324841
0.000327251
0.000331801
0.000338409
0.000346956
0.000357305
0.000369306
0.000382818
0.000397718
0.000413902
0.000431284
0.000449789
0.000469348
0.000489891
0.000511355
0.000533675
0.000556795
0.000580665
0.000605249
0.000630527
0.000656497
0.000683184
0.000710633
0.000738906
0.00076807
0.000798169
0.000829208
0.000861119
0.000893745
0.000926838
0.000960078
0.000993127
0.00102572
0.00105777
0.00108948
0.00112144
0.0011547
0.00119067
0.001231
0.00127726
0.00133047
0.00139058
0.001456
0.00152346
0.00158849
0.0016463
0.00169289
0.00172581
0.00174443
0.00174981
0.00174418
0.00173046
0.00171187
0.00169155
0.00167231
0.00165644
0.00164547
0.00164002
0.00163963
0.00164278
0.00164699
0.00164923
0.00164645
0.00163614
0.00161682
0.00158829
0.00155175
0.00150998
0.00146803
0.00143522
0.00143054
0.00149262
0.00168522
0.00207529
0.00267108
0.00336721
0.00398547
0.00440582
0.00462724
0.00470267
0.00465515
0.000579003
0.000572564
0.000566186
0.000559932
0.000553871
0.000548028
0.000542422
0.000537022
0.000531704
0.000526267
0.000520576
0.000514547
0.000508052
0.000500947
0.000493185
0.000484803
0.000475917
0.000466697
0.000457439
0.000448519
0.000440316
0.000433183
0.000427424
0.000423274
0.000420894
0.000420384
0.000421794
0.000425139
0.000430414
0.000437594
0.000446638
0.000457486
0.000470062
0.000484278
0.000500038
0.000517242
0.000535797
0.000555617
0.000576635
0.000598804
0.0006221
0.000646524
0.000672093
0.000698828
0.000726739
0.000755796
0.000785908
0.000816906
0.000848543
0.000880504
0.000912467
0.000944172
0.000975527
0.00100671
0.00103827
0.00107114
0.00110664
0.00114631
0.00119166
0.00124369
0.00130245
0.00136649
0.00143279
0.00149705
0.00155457
0.00160133
0.0016348
0.00165425
0.00166061
0.00165603
0.00164337
0.00162578
0.00160634
0.00158782
0.00157248
0.00156187
0.00155673
0.00155678
0.00156076
0.00156649
0.0015712
0.00157201
0.0015665
0.00155313
0.00153157
0.00150284
0.00146953
0.00143664
0.0014137
0.00142012
0.00149522
0.00170477
0.00211494
0.00271904
0.00339395
0.00397328
0.00436375
0.00457316
0.00464747
0.00459694
0.000701034
0.000694433
0.000687925
0.000681485
0.000675194
0.000669079
0.000663163
0.000657472
0.000651993
0.000646683
0.000641508
0.000636434
0.000631405
0.00062634
0.00062114
0.000615695
0.000609898
0.000603642
0.000596849
0.000589535
0.000581764
0.00057366
0.000565403
0.000557206
0.000549299
0.000541914
0.000535283
0.000529633
0.000525179
0.000522124
0.000520647
0.000520895
0.00052298
0.000526975
0.000532917
0.000540808
0.000550624
0.000562323
0.000575854
0.000591167
0.000608216
0.000626968
0.000647395
0.000669468
0.000693145
0.000718349
0.000744951
0.000772757
0.000801504
0.000830878
0.000860563
0.000890303
0.00092
0.0009498
0.000980178
0.00101198
0.00104637
0.00108477
0.00112854
0.00117864
0.00123516
0.00129682
0.00136084
0.00142319
0.00147936
0.00152541
0.00155878
0.00157861
0.00158572
0.00158211
0.00157054
0.00155403
0.00153558
0.00151788
0.00150316
0.00149299
0.00148817
0.0014886
0.00149325
0.00150024
0.00150708
0.00151112
0.00151002
0.00150222
0.00148724
0.00146591
0.00144058
0.001416
0.00140164
0.00141699
0.00150133
0.00172037
0.00213829
0.00273889
0.00339
0.00393636
0.00430418
0.00450637
0.00458193
0.00452782
0.000798138
0.000791994
0.000785916
0.000779878
0.000773911
0.00076803
0.000762249
0.000756599
0.000751106
0.000745782
0.000740643
0.000735698
0.000730952
0.000726398
0.000722014
0.000717764
0.000713592
0.000709426
0.00070518
0.000700777
0.000696145
0.000691215
0.000685959
0.000680379
0.000674504
0.000668391
0.000662126
0.000655824
0.000649633
0.000643732
0.000638318
0.000633604
0.000629805
0.000627131
0.000625776
0.00062591
0.00062768
0.000631204
0.000636576
0.000643867
0.000653132
0.000664407
0.000677712
0.000693042
0.000710365
0.0007296
0.000750616
0.000773215
0.00079714
0.000822088
0.000847758
0.000873905
0.000900422
0.000927423
0.000955306
0.000984796
0.00101692
0.00105289
0.00109392
0.00114089
0.00119388
0.00125179
0.00131211
0.00137114
0.00142468
0.00146893
0.00150133
0.00152095
0.00152841
0.00152554
0.00151494
0.00149947
0.00148203
0.0014652
0.00145113
0.00144138
0.0014368
0.00143741
0.0014424
0.00145017
0.00145852
0.00146505
0.00146757
0.00146452
0.00145528
0.00144046
0.00142214
0.00140475
0.00139737
0.00141903
0.00150802
0.00172824
0.00214135
0.00272758
0.00335384
0.00387411
0.00422639
0.00442561
0.00450424
0.00444605
0.000870872
0.000865583
0.000860311
0.00085506
0.000849815
0.000844601
0.000839434
0.000834336
0.000829324
0.000824416
0.000819623
0.000814964
0.000810447
0.00080609
0.000801911
0.00079792
0.000794119
0.0007905
0.000787041
0.00078371
0.000780476
0.000777296
0.000774121
0.000770907
0.000767614
0.000764213
0.000760683
0.000757024
0.000753254
0.000749417
0.000745585
0.000741855
0.000738346
0.000735203
0.000732582
0.000730649
0.000729577
0.000729537
0.000730699
0.000733227
0.000737274
0.000742976
0.000750452
0.00075979
0.000771039
0.000784199
0.000799207
0.000815934
0.000834187
0.00085373
0.000874312
0.00089573
0.00091789
0.000940881
0.000965035
0.000990957
0.00101951
0.00105174
0.00108868
0.0011311
0.00117912
0.0012318
0.00128697
0.00134135
0.00139109
0.00143261
0.00146339
0.00148235
0.00148992
0.0014877
0.00147804
0.00146365
0.00144723
0.00143126
0.00141779
0.00140834
0.00140376
0.00140418
0.00140896
0.00141677
0.00142572
0.00143368
0.00143864
0.0014391
0.00143435
0.00142477
0.00141212
0.0014004
0.00139808
0.0014231
0.00151163
0.00172409
0.00211971
0.00268122
0.00328215
0.00378359
0.00412777
0.00432844
0.00441198
0.00434939
0.000921842
0.000917626
0.000913387
0.000909131
0.000904853
0.000900557
0.000896261
0.000891973
0.000887706
0.000883471
0.000879279
0.000875146
0.000871089
0.000867126
0.000863276
0.000859557
0.000855986
0.000852578
0.000849343
0.000846287
0.000843419
0.00084073
0.000838208
0.00083584
0.000833605
0.000831485
0.000829456
0.000827503
0.000825612
0.000823784
0.00082203
0.000820374
0.000818858
0.000817542
0.000816495
0.000815783
0.000815506
0.000815781
0.000816733
0.000818498
0.00082122
0.000825042
0.000830104
0.000836534
0.000844433
0.000853866
0.000864848
0.000877337
0.000891233
0.00090639
0.00092264
0.000939842
0.00095793
0.000976982
0.000997269
0.00101929
0.00104376
0.00107155
0.00110357
0.00114051
0.00118255
0.00122902
0.00127815
0.00132714
0.00137259
0.00141117
0.00144037
0.00145895
0.00146703
0.00146591
0.00145764
0.00144468
0.00142955
0.00141458
0.00140172
0.00139241
0.00138751
0.00138722
0.00139109
0.00139802
0.00140645
0.00141453
0.00142052
0.00142299
0.0014212
0.00141535
0.00140684
0.00139912
0.00139977
0.00142509
0.00150798
0.00170389
0.00206967
0.00259589
0.00317002
0.00365929
0.00400333
0.00421076
0.00430187
0.00423523
0.000955718
0.000952559
0.000949353
0.000946105
0.000942818
0.000939489
0.000936126
0.000932738
0.000929334
0.000925921
0.000922507
0.000919102
0.000915719
0.000912364
0.000909049
0.00090579
0.000902604
0.000899509
0.000896523
0.000893663
0.000890949
0.000888395
0.000886012
0.000883807
0.000881785
0.00087995
0.000878297
0.000876824
0.000875533
0.000874429
0.000873519
0.000872816
0.00087234
0.000872116
0.00087218
0.000872572
0.000873344
0.000874536
0.000876216
0.000878466
0.000881381
0.000885066
0.000889629
0.000895176
0.000901805
0.000909596
0.000918597
0.000928817
0.000940223
0.000952739
0.000966265
0.000980706
0.000996014
0.00101224
0.00102958
0.00104842
0.00106931
0.00109298
0.00112019
0.00115162
0.00118755
0.00122764
0.00127063
0.0013143
0.00135579
0.00139207
0.00142066
0.00144006
0.00145
0.00145132
0.0014457
0.00143526
0.00142227
0.00140889
0.00139696
0.00138785
0.00138244
0.00138103
0.00138332
0.00138849
0.00139531
0.00140227
0.00140788
0.00141091
0.00141061
0.001407
0.00140114
0.00139587
0.00139761
0.00142045
0.0014931
0.00166474
0.00198953
0.00246945
0.00301253
0.0034939
0.00384557
0.00406635
0.00416919
0.00410035
0.000976657
0.000974419
0.000972124
0.000969777
0.00096738
0.000964938
0.000962447
0.000959914
0.000957345
0.000954743
0.000952113
0.000949461
0.000946793
0.000944117
0.00094144
0.000938771
0.00093612
0.000933501
0.000930926
0.00092841
0.000925971
0.000923629
0.000921398
0.000919292
0.000917325
0.000915512
0.000913866
0.000912399
0.000911124
0.000910055
0.000909206
0.000908595
0.000908239
0.00090816
0.000908384
0.000908939
0.000909849
0.000911147
0.000912873
0.00091508
0.000917827
0.000921182
0.000925221
0.000930021
0.00093566
0.000942212
0.000949732
0.000958257
0.000967794
0.000978319
0.000989785
0.00100214
0.00101534
0.00102941
0.00104446
0.00106074
0.00107865
0.00109873
0.00112161
0.0011479
0.00117801
0.0012119
0.00124886
0.0012874
0.00132528
0.00135994
0.00138897
0.00141065
0.0014242
0.00142989
0.00142883
0.00142269
0.00141338
0.00140283
0.00139273
0.00138443
0.00137881
0.00137629
0.00137678
0.00137974
0.00138429
0.0013893
0.00139357
0.00139607
0.00139612
0.00139362
0.00138929
0.00138533
0.00138684
0.00140527
0.00146438
0.00160608
0.00188094
0.00230346
0.0028073
0.00328031
0.00364539
0.00388669
0.00400729
0.00394059
0.000989058
0.000987524
0.000985938
0.000984301
0.000982617
0.000980886
0.000979109
0.000977287
0.000975424
0.000973522
0.000971584
0.000969613
0.000967612
0.000965585
0.000963533
0.00096146
0.000959372
0.000957279
0.000955188
0.000953111
0.000951058
0.000949044
0.000947082
0.000945187
0.000943372
0.000941652
0.000940043
0.00093856
0.000937219
0.000936037
0.000935032
0.000934223
0.000933628
0.000933267
0.000933162
0.000933338
0.000933819
0.000934633
0.000935811
0.000937388
0.000939404
0.000941906
0.000944945
0.000948578
0.000952864
0.000957862
0.000963627
0.000970206
0.000977628
0.000985909
0.000995044