/*--------------------------------*- C++ -*----------------------------------*\
| =========                 |                                                 |
| \\      /  F ield         | OpenFOAM: The Open Source CFD Toolbox           |
|  \\    /   O peration     | Version:  4.1                                   |
|   \\  /    A nd           | Web:      www.OpenFOAM.org                      |
|    \\/     M anipulation  |                                                 |
\*---------------------------------------------------------------------------*/
FoamFile
{
    version     2.0;
    format      ascii;
    class       volScalarField;
    location    "500";
    object      p;
}
// * * * * * * * * * * * * * * * * * * * * * * * * * * * * * * * * * * * * * //

dimensions      [0 2 -2 0 0 0 0];

internalField   nonuniform List<scalar> 
6820
(
-8.22069
-8.47826
-8.57591
-8.59668
-8.62999
-8.67539
-8.71712
-8.75341
-8.78726
-8.81953
-8.84977
-8.87785
-8.90403
-8.92857
-8.95165
-8.97344
-8.9941
-9.01377
-9.03261
-9.05072
-9.06821
-9.08517
-9.10169
-9.11784
-9.13369
-9.1493
-9.16473
-9.18002
-9.19526
-9.21032
-9.22612
-9.2403
-9.27036
-8.33347
-8.49954
-8.57829
-8.59924
-8.62624
-8.66159
-8.69331
-8.72035
-8.74579
-8.77068
-8.79472
-8.81779
-8.84005
-8.86165
-8.88263
-8.90305
-8.92294
-8.94236
-8.96135
-8.97996
-8.99821
-9.01614
-9.0338
-9.05122
-9.06843
-9.08546
-9.10235
-9.11913
-9.13586
-9.15251
-9.1693
-9.18618
-9.20315
-8.38973
-8.49445
-8.57251
-8.60447
-8.63275
-8.66604
-8.69659
-8.72303
-8.74779
-8.77186
-8.79503
-8.81719
-8.83846
-8.85898
-8.87883
-8.89806
-8.91672
-8.93487
-8.95257
-8.96987
-8.98681
-9.00344
-9.0198
-9.03593
-9.05187
-9.06765
-9.08331
-9.09887
-9.11441
-9.12988
-9.14548
-9.16078
-9.17666
-8.4395
-8.51451
-8.5872
-8.62241
-8.64996
-8.68161
-8.71174
-8.73819
-8.76272
-8.78628
-8.80881
-8.83023
-8.8507
-8.87039
-8.88939
-8.90777
-8.9256
-8.94295
-8.95989
-8.97645
-8.99269
-9.00865
-9.02437
-9.03989
-9.05525
-9.07047
-9.08558
-9.10063
-9.11565
-9.13066
-9.1457
-9.16073
-9.1758
-8.48099
-8.53223
-8.59248
-8.62739
-8.6547
-8.68504
-8.71437
-8.74051
-8.76478
-8.78813
-8.81056
-8.832
-8.85259
-8.87246
-8.89168
-8.9103
-8.92839
-8.94599
-8.96317
-8.97996
-8.9964
-9.01254
-9.02841
-9.04405
-9.0595
-9.07478
-9.08993
-9.10499
-9.11998
-9.13495
-9.14992
-9.16494
-9.18004
-8.51577
-8.55163
-8.60251
-8.63784
-8.66557
-8.6947
-8.72314
-8.74897
-8.77305
-8.79618
-8.81841
-8.83966
-8.86006
-8.8797
-8.89868
-8.91704
-8.93485
-8.95217
-8.96906
-8.98555
-9.0017
-9.01754
-9.03312
-9.04847
-9.06363
-9.07863
-9.09349
-9.10827
-9.12298
-9.13766
-9.15236
-9.16714
-9.18206
-8.5456
-8.57117
-8.61309
-8.64632
-8.67286
-8.70003
-8.72702
-8.75206
-8.77555
-8.79815
-8.81992
-8.84084
-8.86097
-8.88043
-8.89927
-8.91756
-8.93534
-8.95266
-8.96957
-8.9861
-9.0023
-9.01821
-9.03385
-9.04925
-9.06445
-9.07949
-9.09437
-9.10915
-9.12385
-9.1385
-9.15314
-9.16783
-9.18263
-8.57152
-8.59011
-8.62456
-8.65545
-8.68124
-8.70719
-8.73319
-8.75769
-8.78082
-8.8031
-8.82461
-8.84533
-8.86531
-8.88462
-8.90334
-8.9215
-8.93915
-8.95634
-8.9731
-8.98949
-9.00553
-9.02126
-9.03672
-9.05193
-9.06693
-9.08174
-9.0964
-9.11094
-9.12537
-9.13974
-9.15408
-9.16842
-9.1828
-8.59435
-8.6082
-8.63652
-8.66467
-8.68919
-8.71356
-8.73811
-8.76163
-8.78402
-8.80564
-8.8266
-8.84685
-8.86644
-8.88543
-8.90386
-8.92178
-8.93923
-8.95624
-8.97286
-8.98912
-9.00505
-9.02068
-9.03605
-9.05118
-9.06609
-9.08081
-9.09537
-9.1098
-9.1241
-9.13832
-9.15248
-9.1666
-9.18071
-8.6147
-8.62525
-8.64864
-8.67399
-8.69713
-8.72013
-8.74347
-8.76617
-8.78799
-8.80915
-8.82972
-8.84967
-8.86902
-8.88781
-8.90607
-8.92385
-8.94117
-8.95807
-8.97457
-8.99071
-9.00652
-9.02203
-9.03726
-9.05223
-9.06698
-9.08152
-9.09588
-9.11008
-9.12414
-9.13808
-9.15191
-9.16565
-9.1793
-8.63301
-8.64123
-8.66067
-8.68335
-8.705
-8.72663
-8.74868
-8.77039
-8.79144
-8.81193
-8.83192
-8.85138
-8.8703
-8.88872
-8.90665
-8.92413
-8.94119
-8.95784
-8.97412
-8.99005
-9.00566
-9.02098
-9.03602
-9.05081
-9.06538
-9.07973
-9.09389
-9.10788
-9.12171
-9.13539
-9.14894
-9.16236
-9.17566
-8.6496
-8.65612
-8.67243
-8.69264
-8.71277
-8.73308
-8.7539
-8.77466
-8.79498
-8.81488
-8.83437
-8.85341
-8.87199
-8.89012
-8.90781
-8.92508
-8.94194
-8.95843
-8.97455
-8.99034
-9.00581
-9.02098
-9.03587
-9.0505
-9.06489
-9.07906
-9.09302
-9.10678
-9.12035
-9.13375
-9.14698
-9.16003
-9.17288
-8.6647
-8.66996
-8.68378
-8.70179
-8.72041
-8.73945
-8.75909
-8.77888
-8.79842
-8.81765
-8.83656
-8.8551
-8.87325
-8.89098
-8.90832
-8.92528
-8.94185
-8.95806
-8.97393
-8.98947
-9.0047
-9.01964
-9.03429
-9.04869
-9.06284
-9.07676
-9.09046
-9.10394
-9.11722
-9.1303
-9.14318
-9.15587
-9.16833
-8.67849
-8.6828
-8.69463
-8.71069
-8.72787
-8.74569
-8.76421
-8.78305
-8.80182
-8.82039
-8.83874
-8.8568
-8.87453
-8.89191
-8.90893
-8.92561
-8.94193
-8.95792
-8.97357
-8.98891
-9.00395
-9.01869
-9.03316
-9.04736
-9.0613
-9.075
-9.08847
-9.1017
-9.11471
-9.1275
-9.14005
-9.15237
-9.16443
-8.69111
-8.69468
-8.70491
-8.71928
-8.73511
-8.75178
-8.76924
-8.78715
-8.80514
-8.82306
-8.84082
-8.85837
-8.87565
-8.89263
-8.9093
-8.92564
-8.94166
-8.95736
-8.97274
-8.98781
-9.00259
-9.01707
-9.03128
-9.04522
-9.05889
-9.07231
-9.08549
-9.09841
-9.1111
-9.12354
-9.13573
-9.14767
-9.15934
-8.70265
-8.70564
-8.71456
-8.72748
-8.74207
-8.75765
-8.77412
-8.79114
-8.80838
-8.82564
-8.84283
-8.85988
-8.87672
-8.8933
-8.90961
-8.92563
-8.94135
-8.95677
-8.9719
-8.98672
-9.00126
-9.01551
-9.02948
-9.04318
-9.05661
-9.06978
-9.08269
-9.09534
-9.10774
-9.11987
-9.13173
-9.14331
-9.1546
-8.71319
-8.7157
-8.72357
-8.73524
-8.7487
-8.76328
-8.77882
-8.795
-8.81151
-8.82813
-8.84475
-8.8613
-8.87768
-8.89386
-8.9098
-8.92548
-8.94088
-8.956
-8.97083
-8.98538
-8.99964
-9.01362
-9.02732
-9.04074
-9.05388
-9.06676
-9.07936
-9.09169
-9.10376
-9.11554
-9.12704
-9.13826
-9.14916
-8.72277
-8.7249
-8.73189
-8.74251
-8.75496
-8.76862
-8.78329
-8.79869
-8.81449
-8.8305
-8.84657
-8.86261
-8.87855
-8.89432
-8.90989
-8.92523
-8.94031
-8.95513
-8.96968
-8.98395
-8.99794
-9.01165
-9.02508
-9.03823
-9.05111
-9.0637
-9.07602
-9.08806
-9.09981
-9.11128
-9.12245
-9.13332
-9.14386
-8.73143
-8.73325
-8.73952
-8.74923
-8.76079
-8.77361
-8.7875
-8.80216
-8.81731
-8.83271
-8.84825
-8.86381
-8.87931
-8.89468
-8.90988
-8.92487
-8.93963
-8.95414
-8.96839
-8.98237
-8.99607
-9.0095
-9.02265
-9.03551
-9.04809
-9.06038
-9.07239
-9.08411
-9.09554
-9.10667
-9.1175
-9.12801
-9.1382
-8.7392
-8.74076
-8.74644
-8.75537
-8.76615
-8.77822
-8.79139
-8.80538
-8.81991
-8.83476
-8.84979
-8.86488
-8.87995
-8.89493
-8.90976
-8.92441
-8.93884
-8.95304
-8.96699
-8.98068
-8.9941
-9.00724
-9.02011
-9.03268
-9.04498
-9.05698
-9.06869
-9.0801
-9.09122
-9.10203
-9.11253
-9.12271
-9.13256
-8.74608
-8.74742
-8.75261
-8.7609
-8.771
-8.78241
-8.79493
-8.80831
-8.82227
-8.8366
-8.85114
-8.86579
-8.88045
-8.89505
-8.90952
-8.92383
-8.93794
-8.95183
-8.96548
-8.97888
-8.99201
-9.00486
-9.01743
-9.02972
-9.04172
-9.05342
-9.06483
-9.07593
-9.08673
-9.09722
-9.10739
-9.11725
-9.12677
-8.75207
-8.75324
-8.75802
-8.76578
-8.7753
-8.78612
-8.79808
-8.81091
-8.82435
-8.8382
-8.85229
-8.86653
-8.88079
-8.89502
-8.90915
-8.92313
-8.93693
-8.95051
-8.96386
-8.97696
-8.9898
-9.00237
-9.01465
-9.02665
-9.03836
-9.04976
-9.06087
-9.07167
-9.08216
-9.09234
-9.1022
-9.11174
-9.12094
-8.75715
-8.75819
-8.76264
-8.76996
-8.779
-8.78933
-8.80079
-8.81314
-8.82612
-8.83953
-8.85322
-8.86706
-8.88096
-8.89484
-8.90863
-8.9223
-8.93578
-8.94907
-8.96213
-8.97494
-8.98749
-8.99977
-9.01177
-9.02349
-9.0349
-9.04602
-9.05683
-9.06733
-9.07752
-9.0874
-9.09695
-9.10618
-9.11508
-8.76131
-8.76224
-8.76644
-8.7734
-8.78205
-8.79198
-8.80302
-8.81496
-8.82754
-8.84056
-8.85387
-8.86736
-8.88092
-8.89447
-8.90795
-8.92131
-8.9345
-8.9475
-8.96027
-8.9728
-8.98506
-8.99706
-9.00878
-9.0202
-9.03133
-9.04216
-9.05268
-9.06288
-9.07277
-9.08235
-9.0916
-9.10053
-9.10913
-8.76451
-8.76536
-8.76937
-8.77607
-8.78442
-8.79401
-8.80472
-8.81631
-8.82855
-8.84124
-8.85423
-8.8674
-8.88065
-8.8939
-8.90709
-8.92016
-8.93306
-8.94578
-8.95828
-8.97053
-8.98253
-8.99425
-9.0057
-9.01685
-9.0277
-9.03825
-9.04849
-9.05842
-9.06803
-9.07732
-9.08629
-9.09494
-9.10326
-8.76669
-8.76749
-8.77137
-8.77788
-8.78602
-8.79538
-8.80582
-8.81714
-8.82911
-8.84151
-8.85422
-8.86711
-8.88009
-8.89307
-8.90598
-8.91878
-8.93142
-8.94386
-8.95609
-8.96807
-8.9798
-8.99125
-9.00242
-9.01329
-9.02387
-9.03413
-9.04409
-9.05373
-9.06306
-9.07206
-9.08075
-9.08912
-9.09716
-8.76777
-8.76855
-8.77236
-8.77878
-8.78678
-8.79599
-8.80626
-8.81739
-8.82914
-8.84133
-8.85381
-8.86646
-8.8792
-8.89194
-8.90461
-8.91717
-8.92956
-8.94176
-8.95374
-8.96548
-8.97696
-8.98816
-8.99908
-9.00971
-9.02003
-9.03004
-9.03975
-9.04913
-9.0582
-9.06696
-9.07539
-9.0835
-9.09128
-8.7677
-8.76849
-8.7723
-8.77871
-8.78669
-8.79584
-8.80602
-8.81703
-8.82865
-8.84068
-8.85299
-8.86545
-8.87799
-8.89051
-8.90296
-8.91528
-8.92743
-8.93939
-8.95112
-8.96261
-8.97383
-8.98477
-8.99542
-9.00578
-9.01583
-9.02558
-9.03501
-9.04412
-9.05292
-9.0614
-9.06956
-9.07741
-9.08495
-8.76636
-8.76721
-8.77111
-8.77762
-8.78569
-8.79489
-8.80508
-8.81608
-8.82764
-8.83959
-8.85178
-8.86412
-8.87651
-8.88887
-8.90115
-8.91329
-8.92526
-8.93702
-8.94855
-8.95983
-8.97085
-8.98158
-8.99202
-9.00216
-9.01199
-9.02152
-9.03072
-9.03962
-9.04819
-9.05645
-9.06439
-9.072
-9.07928
-8.76364
-8.76459
-8.76868
-8.77543
-8.78372
-8.7931
-8.80342
-8.81449
-8.82608
-8.83801
-8.85014
-8.86237
-8.87463
-8.88683
-8.89893
-8.91088
-8.92263
-8.93418
-8.94548
-8.95652
-8.96729
-8.97778
-8.98797
-8.99785
-9.00743
-9.01669
-9.02565
-9.03428
-9.0426
-9.0506
-9.05829
-9.06568
-9.07276
-8.75936
-8.76047
-8.76489
-8.77205
-8.78073
-8.79043
-8.801
-8.81227
-8.82401
-8.83603
-8.84821
-8.86046
-8.87269
-8.88484
-8.89686
-8.90871
-8.92035
-8.93176
-8.94293
-8.95382
-8.96443
-8.97474
-8.98476
-8.99447
-9.00386
-9.01294
-9.0217
-9.03015
-9.03827
-9.04608
-9.05356
-9.06073
-9.06755
-8.75328
-8.75464
-8.75959
-8.76738
-8.77665
-8.78682
-8.79776
-8.80931
-8.82122
-8.83334
-8.84554
-8.85775
-8.86991
-8.88195
-8.89383
-8.90551
-8.91698
-8.9282
-8.93915
-8.94983
-8.96022
-8.97031
-8.9801
-8.98957
-8.99873
-9.00758
-9.01611
-9.02432
-9.03221
-9.0398
-9.04707
-9.05405
-9.06074
-8.74508
-8.74682
-8.75257
-8.76132
-8.77143
-8.7823
-8.79387
-8.80595
-8.8183
-8.83075
-8.84319
-8.85558
-8.86784
-8.87993
-8.89182
-8.90348
-8.91489
-8.92603
-8.93689
-8.94746
-8.95772
-8.96767
-8.97731
-8.98664
-8.99564
-9.00432
-9.01268
-9.02071
-9.02843
-9.03583
-9.0429
-9.04965
-9.05606
-8.7343
-8.73664
-8.74365
-8.75377
-8.76491
-8.77649
-8.7886
-8.80111
-8.81375
-8.82637
-8.83891
-8.85134
-8.86359
-8.87563
-8.88744
-8.89899
-8.91026
-8.92125
-8.93195
-8.94234
-8.95242
-8.96219
-8.97164
-8.98077
-8.98957
-8.99806
-9.00622
-9.01407
-9.0216
-9.02883
-9.03575
-9.04238
-9.04873
-8.72022
-8.72353
-8.73258
-8.74488
-8.75776
-8.77076
-8.78408
-8.79754
-8.81088
-8.82398
-8.83687
-8.84952
-8.86191
-8.87401
-8.88583
-8.89735
-8.90856
-8.91947
-8.93005
-8.94032
-8.95027
-8.95989
-8.96918
-8.97814
-8.98678
-8.99509
-9.00307
-9.01073
-9.01806
-9.02508
-9.03177
-9.03814
-9.04417
-8.70177
-8.70684
-8.71891
-8.73337
-8.74727
-8.76107
-8.77528
-8.7895
-8.80336
-8.81684
-8.83001
-8.84285
-8.85535
-8.86751
-8.87932
-8.8908
-8.90194
-8.91275
-8.92322
-8.93336
-8.94318
-8.95266
-8.96181
-8.97063
-8.97913
-8.9873
-8.99515
-9.00269
-9.0099
-9.01681
-9.02342
-9.02974
-9.03577
-8.67679
-8.68592
-8.70529
-8.72499
-8.74137
-8.7567
-8.77214
-8.78716
-8.80143
-8.81511
-8.82836
-8.84121
-8.85366
-8.86572
-8.8774
-8.88873
-8.89971
-8.91034
-8.92062
-8.93056
-8.94016
-8.94942
-8.95834
-8.96693
-8.97519
-8.98312
-8.99073
-8.99802
-9.00499
-9.01164
-9.01798
-9.02402
-9.02973
-8.6418
-8.65545
-8.68104
-8.70426
-8.72315
-8.7411
-8.75865
-8.775
-8.7901
-8.80435
-8.81797
-8.83102
-8.84353
-8.85556
-8.86719
-8.87842
-8.88929
-8.8998
-8.90997
-8.9198
-8.92931
-8.93848
-8.94734
-8.95586
-8.96407
-8.97196
-8.97954
-8.9868
-8.99374
-9.00037
-9.00668
-9.01266
-9.01829
-8.59438
-8.64203
-8.68139
-8.70161
-8.71783
-8.7361
-8.75398
-8.76983
-8.78427
-8.79806
-8.81136
-8.82409
-8.83628
-8.84803
-8.85937
-8.87034
-8.88094
-8.89119
-8.90111
-8.9107
-8.91996
-8.92891
-8.93755
-8.94587
-8.95389
-8.96161
-8.96903
-8.97617
-8.98302
-8.98962
-8.99598
-9.00216
-9.00818
-8.46001
-8.58218
-8.6568
-8.68097
-8.69723
-8.71817
-8.73856
-8.75565
-8.77086
-8.78554
-8.79991
-8.81385
-8.82739
-8.8406
-8.85353
-8.86618
-8.87852
-8.89057
-8.9023
-8.91371
-8.92479
-8.93554
-8.94594
-8.95598
-8.96568
-8.97501
-8.98398
-8.99259
-9.00084
-9.00871
-9.01622
-9.02333
-9.03017
-9.3148
-9.46144
-9.67658
-9.78188
-9.89222
-10.0001
-10.0845
-10.1506
-10.2028
-10.2423
-10.2711
-10.2921
-10.3071
-10.3178
-10.3251
-10.3297
-10.33
-10.3219
-10.3101
-10.2981
-10.2873
-10.2786
-10.2724
-10.2697
-10.2712
-10.2781
-10.2915
-10.3118
-10.3391
-10.3721
-10.4092
-10.4478
-10.4851
-10.5191
-10.5478
-10.5706
-10.5869
-10.5966
-10.5992
-10.5942
-10.5804
-10.5568
-10.5225
-10.4766
-10.4186
-10.3486
-10.2669
-10.1741
-10.0709
-9.95821
-9.8368
-9.70741
-9.57054
-9.42622
-9.27374
-9.11148
-8.93698
-8.74726
-8.53944
-8.31172
-8.06421
-7.79944
-7.52235
-7.23944
-6.95774
-6.6838
-6.42292
-6.17884
-5.95363
-5.74766
-5.55956
-5.38625
-5.22292
-5.06344
-4.90093
-4.72883
-4.54203
-4.33785
-4.11636
-3.88007
-3.633
-3.37965
-3.12417
-2.86968
-2.61851
-2.37213
-2.1304
-1.89293
-1.65779
-1.41885
-1.17176
-0.910863
-0.621178
-0.336275
-0.15297
-0.131961
-0.143985
-0.222815
-0.0593042
-0.262198
-9.23354
-9.28368
-9.37627
-9.425
-9.48043
-9.55066
-9.61999
-9.68592
-9.74884
-9.8067
-9.85835
-9.90403
-9.94423
-9.97941
-10.0098
-10.0358
-10.0576
-10.0701
-10.0763
-10.0796
-10.082
-10.0849
-10.089
-10.0953
-10.1048
-10.1188
-10.1383
-10.1638
-10.1952
-10.2317
-10.2716
-10.3126
-10.3522
-10.3882
-10.4192
-10.444
-10.4622
-10.4736
-10.4777
-10.4737
-10.4609
-10.4381
-10.4045
-10.3593
-10.3021
-10.2328
-10.1519
-10.06
-9.95774
-9.84606
-9.72576
-9.59757
-9.46195
-9.31885
-9.16749
-9.0062
-8.83253
-8.64358
-8.43663
-8.21005
-7.96413
-7.70153
-7.42721
-7.14768
-6.86994
-6.60046
-6.34445
-6.10555
-5.88569
-5.68507
-5.50213
-5.33358
-5.17445
-5.0185
-4.85882
-4.68892
-4.50381
-4.30093
-4.08051
-3.84516
-3.599
-3.34666
-3.09238
-2.83936
-2.58997
-2.34563
-2.10607
-1.87082
-1.63801
-1.40138
-1.15639
-0.898226
-0.616487
-0.347601
-0.178631
-0.157516
-0.15625
-0.218756
-0.0471868
-0.232779
-9.19541
-9.21622
-9.26186
-9.2929
-9.32022
-9.35706
-9.39687
-9.43602
-9.47512
-9.51377
-9.55137
-9.58797
-9.62365
-9.65825
-9.69149
-9.72316
-9.75272
-9.77784
-9.79767
-9.81429
-9.82947
-9.84427
-9.85953
-9.87617
-9.8952
-9.91769
-9.94459
-9.97645
-10.0132
-10.0541
-10.0977
-10.1418
-10.1844
-10.2234
-10.2572
-10.2849
-10.3059
-10.3198
-10.3262
-10.3244
-10.3135
-10.2925
-10.2607
-10.2174
-10.1621
-10.0948
-10.016
-9.92621
-9.82618
-9.71674
-9.59872
-9.47277
-9.3393
-9.19818
-9.04858
-8.88886
-8.71664
-8.52919
-8.32403
-8.09977
-7.85685
-7.598
-7.32809
-7.05347
-6.78095
-6.5168
-6.26612
-6.03241
-5.8175
-5.62148
-5.44271
-5.27781
-5.12183
-4.96853
-4.81115
-4.64334
-4.46026
-4.25946
-4.04117
-3.80799
-3.56401
-3.31383
-3.0617
-2.81088
-2.56374
-2.32165
-2.08424
-1.85093
-1.61985
-1.38484
-1.14152
-0.885568
-0.611185
-0.35974
-0.207875
-0.188163
-0.175038
-0.222088
-0.043171
-0.213182
-9.19361
-9.21702
-9.25481
-9.28631
-9.3094
-9.33456
-9.36009
-9.38278
-9.40341
-9.42294
-9.44156
-9.45974
-9.47804
-9.49676
-9.51599
-9.53567
-9.55552
-9.57466
-9.59139
-9.60667
-9.62183
-9.63767
-9.6548
-9.67388
-9.69571
-9.72109
-9.75073
-9.78502
-9.82382
-9.86637
-9.91131
-9.9568
-10.0008
-10.0415
-10.0773
-10.1072
-10.1306
-10.1469
-10.1557
-10.1562
-10.1476
-10.129
-10.0996
-10.0588
-10.0062
-9.94176
-9.86588
-9.7791
-9.68215
-9.57582
-9.46088
-9.33795
-9.20734
-9.06887
-8.92167
-8.76411
-8.59392
-8.40858
-8.20584
-7.98456
-7.74537
-7.49103
-7.22633
-6.95742
-6.69086
-6.43273
-6.18793
-5.95983
-5.75011
-5.55876
-5.38404
-5.22252
-5.06925
-4.91811
-4.76254
-4.59644
-4.41519
-4.21649
-4.00062
-3.77011
-3.52895
-3.28167
-3.03244
-2.7845
-2.54019
-2.30082
-2.06595
-1.83491
-1.60574
-1.37246
-1.13139
-0.878742
-0.611539
-0.375062
-0.236572
-0.215338
-0.190016
-0.221906
-0.0367538
-0.194065
-9.1983
-9.22119
-9.25054
-9.2771
-9.29774
-9.31886
-9.3407
-9.36063
-9.37845
-9.39467
-9.40929
-9.42245
-9.43457
-9.44597
-9.45689
-9.46749
-9.47779
-9.48745
-9.49584
-9.50355
-9.51167
-9.52097
-9.53209
-9.54567
-9.56245
-9.58313
-9.60829
-9.63822
-9.67276
-9.71119
-9.75226
-9.79433
-9.83554
-9.87412
-9.9086
-9.93786
-9.96113
-9.97779
-9.98722
-9.98867
-9.9813
-9.96423
-9.93667
-9.89801
-9.84786
-9.78618
-9.71324
-9.62957
-9.53583
-9.43276
-9.32105
-9.20125
-9.07362
-8.9379
-8.79323
-8.63803
-8.47019
-8.28739
-8.08765
-7.87005
-7.63534
-7.38627
-7.12745
-6.86476
-6.60449
-6.35246
-6.11338
-5.89049
-5.68542
-5.49806
-5.32667
-5.16783
-5.01666
-4.86724
-4.71321
-4.54875
-4.36947
-4.17319
-3.96019
-3.73288
-3.49511
-3.25124
-3.00534
-2.76058
-2.51927
-2.28262
-2.05016
-1.8211
-1.59348
-1.36152
-1.1225
-0.873982
-0.61543
-0.394487
-0.268581
-0.245269
-0.208704
-0.226115
-0.0351279
-0.181215
-9.19995
-9.2216
-9.24691
-9.272
-9.29368
-9.31471
-9.33566
-9.35475
-9.37146
-9.38613
-9.39891
-9.40996
-9.4196
-9.42817
-9.43587
-9.44282
-9.44907
-9.45446
-9.45884
-9.46246
-9.46619
-9.4708
-9.47692
-9.48523
-9.49642
-9.51117
-9.53001
-9.55323
-9.5807
-9.61186
-9.64565
-9.68066
-9.7153
-9.74799
-9.77735
-9.80229
-9.82199
-9.83576
-9.8429
-9.84263
-9.83411
-9.81646
-9.78889
-9.75077
-9.7017
-9.64158
-9.57059
-9.48919
-9.39793
-9.29748
-9.18844
-9.07128
-8.94617
-8.81281
-8.67033
-8.51725
-8.35161
-8.1713
-7.97461
-7.76084
-7.53082
-7.28727
-7.03458
-6.77833
-6.52448
-6.27856
-6.04507
-5.82713
-5.62625
-5.44232
-5.27358
-5.11667
-4.96689
-4.81853
-4.66553
-4.50237
-4.32492
-4.1311
-3.92117
-3.69739
-3.46339
-3.22334
-2.98113
-2.73986
-2.50172
-2.26791
-2.0379
-1.81081
-1.58463
-1.3539
-1.1167
-0.871827
-0.620865
-0.413171
-0.297451
-0.271448
-0.225149
-0.229528
-0.034079
-0.171066
-9.20018
-9.22117
-9.24422
-9.26733
-9.28811
-9.30762
-9.32664
-9.34422
-9.35986
-9.37377
-9.38606
-9.39682
-9.40622
-9.41447
-9.4217
-9.428
-9.43338
-9.43779
-9.44121
-9.44382
-9.44631
-9.44936
-9.45356
-9.4595
-9.4678
-9.47904
-9.49368
-9.51195
-9.53377
-9.55864
-9.5857
-9.61375
-9.64142
-9.66737
-9.69035
-9.70937
-9.72364
-9.73245
-9.73514
-9.73095
-9.71908
-9.69869
-9.66903
-9.62948
-9.57964
-9.51936
-9.44875
-9.36815
-9.27805
-9.179
-9.0715
-8.95594
-8.8324
-8.70055
-8.55953
-8.40796
-8.24403
-8.06588
-7.87202
-7.66191
-7.43647
-7.1983
-6.95157
-6.70152
-6.45377
-6.21355
-5.98515
-5.77154
-5.57418
-5.39293
-5.22608
-5.07039
-4.92134
-4.77348
-4.62108
-4.45893
-4.28314
-4.09174
-3.88492
-3.66478
-3.4347
-3.19859
-2.96016
-2.72239
-2.48738
-2.25624
-2.02848
-1.80316
-1.57823
-1.34878
-1.11375
-0.873176
-0.630044
-0.433718
-0.325662
-0.296348
-0.241694
-0.234317
-0.0354338
-0.164698
-9.19968
-9.2197
-9.24094
-9.26222
-9.28215
-9.30101
-9.31927
-9.33638
-9.35184
-9.36564
-9.37785
-9.38851
-9.39774
-9.40572
-9.41257
-9.41839
-9.42323
-9.42711
-9.43007
-9.43236
-9.43447
-9.437
-9.44045
-9.44536
-9.45226
-9.46163
-9.47384
-9.48906
-9.50718
-9.52776
-9.55001
-9.57291
-9.59525
-9.61583
-9.63353
-9.64743
-9.65675
-9.66082
-9.65899
-9.65056
-9.63479
-9.61092
-9.57828
-9.53629
-9.48456
-9.42294
-9.3515
-9.27051
-9.18037
-9.08154
-8.97445
-8.85938
-8.73638
-8.60507
-8.46464
-8.3138
-8.15093
-7.97436
-7.78283
-7.57596
-7.35471
-7.12156
-6.88042
-6.63619
-6.39413
-6.15915
-5.93531
-5.72544
-5.53092
-5.35162
-5.18591
-5.03068
-4.88165
-4.73367
-4.58136
-4.41984
-4.24543
-4.05628
-3.85248
-3.63594
-3.40977
-3.17761
-2.94295
-2.70863
-2.47665
-2.24805
-2.02237
-1.79867
-1.57486
-1.34654
-1.1134
-0.876825
-0.641174
-0.454166
-0.351162
-0.317948
-0.256423
-0.238791
-0.0377961
-0.160762
-9.19722
-9.21645
-9.23643
-9.25641
-9.27552
-9.29366
-9.311
-9.32724
-9.34202
-9.35527
-9.36707
-9.37746
-9.38655
-9.39445
-9.40128
-9.40712
-9.412
-9.41599
-9.41913
-9.42169
-9.42402
-9.42665
-9.43004
-9.43463
-9.44087
-9.44919
-9.45987
-9.47303
-9.48854
-9.50599
-9.52471
-9.54375
-9.56207
-9.57857
-9.59223
-9.60217
-9.60763
-9.60794
-9.60245
-9.59051
-9.57141
-9.54449
-9.5091
-9.46475
-9.41106
-9.34789
-9.27528
-9.19344
-9.10274
-9.00354
-8.89621
-8.78099
-8.65784
-8.52642
-8.38596
-8.23528
-8.07294
-7.89749
-7.70787
-7.50383
-7.28635
-7.05778
-6.82177
-6.58287
-6.34598
-6.11571
-5.89588
-5.68916
-5.49687
-5.3189
-5.15368
-4.9983
-4.8487
-4.70007
-4.54739
-4.38609
-4.21273
-4.02553
-3.82452
-3.61138
-3.38895
-3.16057
-2.92951
-2.69844
-2.46929
-2.24301
-2.0192
-1.79695
-1.57425
-1.34723
-1.11615
-0.883475
-0.654933
-0.475344
-0.374909
-0.337062
-0.269852
-0.243297
-0.0415023
-0.159035
-9.19507
-9.21343
-9.23225
-9.25105
-9.26917
-9.28648
-9.30301
-9.31858
-9.33292
-9.34594
-9.35764
-9.36803
-9.37717
-9.38515
-9.39204
-9.39792
-9.40285
-9.40691
-9.41017
-9.41288
-9.41536
-9.41804
-9.42135
-9.42565
-9.43134
-9.43875
-9.44812
-9.45953
-9.47284
-9.48768
-9.50343
-9.51926
-9.53423
-9.54736
-9.55769
-9.5644
-9.56672
-9.564
-9.5556
-9.54087
-9.51916
-9.48982
-9.45229
-9.40608
-9.35086
-9.28646
-9.21292
-9.13039
-9.03918
-8.93961
-8.83197
-8.71645
-8.593
-8.46128
-8.32058
-8.16985
-8.00784
-7.83331
-7.64537
-7.44393
-7.22995
-7.00567
-6.77446
-6.54055
-6.30848
-6.08253
-5.86629
-5.66228
-5.47176
-5.29461
-5.12938
-4.97333
-4.82269
-4.67297
-4.5195
-4.35804
-4.18539
-3.99983
-3.80131
-3.59129
-3.37233
-3.14749
-2.91981
-2.69178
-2.46524
-2.24106
-2.01894
-1.79799
-1.57631
-1.35064
-1.12161
-0.892577
-0.670595
-0.496672
-0.396583
-0.353355
-0.281423
-0.247145
-0.0460705
-0.158498
-9.19104
-9.20868
-9.22658
-9.24442
-9.26171
-9.27829
-9.29417
-9.30914
-9.32301
-9.33566
-9.34708
-9.35728
-9.3663
-9.37421
-9.38108
-9.38699
-9.392
-9.3962
-9.39968
-9.40265
-9.40542
-9.4083
-9.41167
-9.41586
-9.42118
-9.42791
-9.43623
-9.4462
-9.45766
-9.47027
-9.48347
-9.49653
-9.5086
-9.51879
-9.52624
-9.53014
-9.52976
-9.52446
-9.51359
-9.49653
-9.47266
-9.44138
-9.40214
-9.35449
-9.29812
-9.23285
-9.15868
-9.07574
-8.98426
-8.88451
-8.77673
-8.66105
-8.53741
-8.40549
-8.26465
-8.11397
-7.95237
-7.7788
-7.59258
-7.3937
-7.18315
-6.963
-6.73641
-6.50726
-6.27976
-6.05787
-5.84496
-5.64338
-5.45432
-5.27768
-5.11212
-4.9551
-4.8031
-4.65197
-4.49741
-4.33549
-4.16322
-3.97897
-3.78261
-3.57539
-3.35961
-3.13804
-2.91347
-2.68824
-2.46407
-2.24181
-2.02122
-1.8015
-1.58088
-1.35672
-1.12991
-0.904345
-0.688314
-0.518523
-0.41682
-0.367376
-0.29135
-0.250253
-0.0515348
-0.158172
-9.18758
-9.20447
-9.22152
-9.23845
-9.25496
-9.27081
-9.28598
-9.30034
-9.31371
-9.32599
-9.33716
-9.3472
-9.35616
-9.36407
-9.37099
-9.37698
-9.3821
-9.38644
-9.39011
-9.39328
-9.39623
-9.39921
-9.40256
-9.40655
-9.41143
-9.41743
-9.4247
-9.43326
-9.44296
-9.45347
-9.4643
-9.47478
-9.48417
-9.49165
-9.49642
-9.49772
-9.49486
-9.48719
-9.47409
-9.45495
-9.42919
-9.39622
-9.35554
-9.30672
-9.24945
-9.18354
-9.10898
-9.02584
-8.93429
-8.83456
-8.72683
-8.61119
-8.48756
-8.35565
-8.21488
-8.06446
-7.90347
-7.73106
-7.54669
-7.35047
-7.14336
-6.92734
-6.70529
-6.48081
-6.25774
-6.03978
-5.83004
-5.63072
-5.44295
-5.26665
-5.10059
-4.94241
-4.78888
-4.63617
-4.48033
-4.31773
-4.1456
-3.96239
-3.76789
-3.56319
-3.3503
-3.13173
-2.91004
-2.68739
-2.46542
-2.24492
-2.02574
-1.80718
-1.58767
-1.36515
-1.14071
-0.918525
-0.707795
-0.540871
-0.435963
-0.379433
-0.299642
-0.252359
-0.0577499
-0.15695
-9.18263
-9.19887
-9.21517
-9.23133
-9.24712
-9.26234
-9.27687
-9.29067
-9.3036
-9.31553
-9.32643
-9.3363
-9.34513
-9.35297
-9.35986
-9.36586
-9.37103
-9.37546
-9.37925
-9.38258
-9.38564
-9.38872
-9.39205
-9.39584
-9.40032
-9.40566
-9.41198
-9.41926
-9.42737
-9.43599
-9.44467
-9.45283
-9.45977
-9.46478
-9.46709
-9.46601
-9.46086
-9.45102
-9.43589
-9.41487
-9.38741
-9.35295
-9.31101
-9.26119
-9.20317
-9.13679
-9.06197
-8.97876
-8.88729
-8.78772
-8.68018
-8.56474
-8.44131
-8.3096
-8.16912
-8.01919
-7.85904
-7.68798
-7.50564
-7.3122
-7.10861
-6.89671
-6.67918
-6.45929
-6.24058
-6.02644
-5.81976
-5.6226
-5.43602
-5.25998
-5.09334
-4.93394
-4.77882
-4.62446
-4.46725
-4.30384
-4.13169
-3.94931
-3.75645
-3.55401
-3.34377
-3.12798
-2.90896
-2.68873
-2.46881
-2.24997
-2.03214
-1.81475
-1.59646
-1.37572
-1.15384
-0.935035
-0.728963
-0.563855
-0.454588
-0.390125
-0.306563
-0.253406
-0.0645918
-0.153857
-9.17814
-9.19374
-9.20934
-9.22478
-9.23987
-9.25444
-9.26836
-9.28158
-9.29402
-9.30559
-9.31621
-9.32586
-9.33456
-9.34231
-9.34917
-9.35517
-9.36039
-9.36489
-9.36878
-9.37221
-9.37534
-9.37843
-9.38165
-9.38518
-9.38919
-9.39383
-9.39917
-9.40519
-9.41174
-9.41854
-9.42517
-9.4311
-9.43572
-9.43835
-9.43832
-9.43495
-9.42761
-9.41569
-9.39862
-9.37581
-9.34674
-9.31089
-9.26779
-9.21706
-9.15839
-9.0916
-9.0166
-8.9334
-8.84209
-8.74276
-8.63553
-8.52042
-8.39732
-8.26599
-8.126
-7.97676
-7.81766
-7.64815
-7.46799
-7.27743
-7.07742
-6.86966
-6.65661
-6.44125
-6.22682
-6.01642
-5.81272
-5.61765
-5.4322
-5.25636
-5.08911
-4.92849
-4.77177
-4.61577
-4.45716
-4.29291
-4.12063
-3.93895
-3.74755
-3.54719
-3.33941
-3.12622
-2.90974
-2.6918
-2.47383
-2.2566
-2.0401
-1.82391
-1.60694
-1.38814
-1.16894
-0.953588
-0.75162
-0.587443
-0.473089
-0.400026
-0.312425
-0.253442
-0.0718583
-0.148387
-9.17262
-9.18763
-9.20259
-9.21737
-9.23182
-9.2458
-9.25918
-9.27189
-9.28386
-9.29504
-9.30538
-9.31481
-9.32334
-9.33098
-9.33777
-9.34375
-9.34895
-9.35347
-9.3574
-9.36085
-9.36399
-9.36701
-9.37005
-9.37327
-9.37678
-9.38072
-9.38512
-9.38994
-9.39503
-9.40013
-9.40485
-9.40872
-9.41117
-9.4116
-9.40937
-9.40386
-9.39446
-9.38059
-9.36169
-9.33722
-9.30666
-9.26952
-9.22536
-9.17379
-9.11455
-9.04741
-8.97228
-8.88914
-8.79803
-8.69902
-8.59217
-8.47747
-8.35484
-8.22403
-8.08469
-7.93633
-7.77845
-7.61065
-7.4328
-7.2452
-7.04879
-6.84515
-6.63652
-6.42562
-6.21539
-6.00865
-5.80787
-5.61481
-5.43045
-5.25479
-5.08693
-4.9251
-4.76684
-4.60923
-4.44926
-4.28415
-4.11172
-3.93064
-3.74059
-3.54216
-3.3367
-3.126
-2.91193
-2.69621
-2.48015
-2.26449
-2.04934
-1.8344
-1.61887
-1.40213
-1.18575
-0.973884
-0.775594
-0.611659
-0.491818
-0.409744
-0.317651
-0.25264
-0.0792345
-0.140477
-9.16737
-9.18182
-9.19619
-9.21035
-9.2242
-9.23761
-9.25047
-9.2627
-9.27422
-9.28499
-9.29499
-9.30418
-9.31252
-9.32001
-9.32669
-9.3326
-9.33776
-9.34226
-9.34616
-9.3496
-9.35268
-9.35555
-9.35835
-9.3612
-9.36418
-9.36738
-9.37083
-9.37446
-9.37813
-9.38158
-9.38447
-9.38636
-9.38673
-9.38504
-9.38069
-9.3731
-9.3617
-9.34594
-9.32528
-9.29919
-9.26718
-9.22879
-9.1836
-9.13124
-9.07143
-9.00396
-8.92871
-8.84564
-8.75475
-8.65608
-8.54965
-8.43544
-8.31336
-8.18319
-8.04463
-7.89729
-7.74078
-7.57482
-7.39936
-7.21477
-7.02194
-6.82237
-6.61809
-6.41156
-6.20543
-6.00228
-5.80436
-5.61329
-5.43
-5.25454
-5.08611
-4.92312
-4.76338
-4.60423
-4.44296
-4.27702
-4.10442
-3.9239
-3.73511
-3.53852
-3.33527
-3.12694
-2.91522
-2.70166
-2.48748
-2.27341
-2.05964
-1.84602
-1.63203
-1.41744
-1.20392
-0.99553
-0.800597
-0.636481
-0.511051
-0.419865
-0.322776
-0.251377
-0.0864401
-0.130647
-9.16152
-9.17542
-9.18922
-9.20281
-9.21608
-9.22895
-9.24131
-9.25308
-9.26419
-9.27458
-9.28423
-9.29313
-9.30126
-9.30858
-9.31514
-9.32093
-9.32602
-9.33044
-9.33428
-9.33763
-9.34057
-9.34322
-9.34572
-9.34814
-9.35056
-9.35302
-9.35552
-9.358
-9.36031
-9.3622
-9.36335
-9.36337
-9.36179
-9.35809
-9.35173
-9.34218
-9.32889
-9.31132
-9.28898
-9.26136
-9.22798
-9.18841
-9.14224
-9.08913
-9.02879
-8.96101
-8.88566
-8.80267
-8.71202
-8.6137
-8.50773
-8.39406
-8.27259
-8.14316
-8.00549
-7.85929
-7.70426
-7.54022
-7.3672
-7.18562
-6.99635
-6.80076
-6.60071
-6.39842
-6.19629
-5.99666
-5.80154
-5.61246
-5.43026
-5.25504
-5.08611
-4.92207
-4.76093
-4.60036
-4.43786
-4.27115
-4.09839
-3.91841
-3.73082
-3.53598
-3.33486
-3.12883
-2.91939
-2.70795
-2.49564
-2.28317
-2.07084
-1.85861
-1.64622
-1.43382
-1.22315
-1.01814
-0.826284
-0.66183
-0.53101
-0.430915
-0.328401
-0.250208
-0.0932903
-0.119709
-9.15577
-9.16916
-9.18243
-9.19548
-9.20823
-9.22059
-9.23247
-9.2438
-9.2545
-9.26454
-9.27385
-9.28244
-9.29031
-9.29744
-9.30383
-9.30949
-9.31444
-9.31874
-9.32245
-9.32564
-9.32837
-9.33076
-9.3329
-9.33487
-9.33669
-9.33839
-9.33996
-9.3413
-9.34228
-9.34266
-9.34215
-9.34038
-9.33691
-9.33129
-9.323
-9.31155
-9.29642
-9.27711
-9.25313
-9.22401
-9.18929
-9.14857
-9.10144
-9.04758
-8.9867
-8.9186
-8.84313
-8.76021
-8.66977
-8.57181
-8.4663
-8.35319
-8.23239
-8.10376
-7.96707
-7.82209
-7.66862
-7.50655
-7.336
-7.15741
-6.97161
-6.77988
-6.58392
-6.38573
-6.18747
-5.99125
-5.79889
-5.61178
-5.43073
-5.25583
-5.08652
-4.92155
-4.75918
-4.5973
-4.4337
-4.2663
-4.09342
-3.91397
-3.72754
-3.53438
-3.33531
-3.13151
-2.9243
-2.71495
-2.5045
-2.29367
-2.0828
-1.87202
-1.6613
-1.45107
-1.24316
-1.04133
-0.85225
-0.687469
-0.551773
-0.44333
-0.335137
-0.249842
-0.0998424
-0.108678
-9.1497
-9.1626
-9.17536
-9.18789
-9.20013
-9.21199
-9.22341
-9.2343
-9.24461
-9.25428
-9.26328
-9.27156
-9.27914
-9.28602
-9.2922
-9.29769
-9.30248
-9.30662
-9.31015
-9.31312
-9.31561
-9.3177
-9.31946
-9.32093
-9.32213
-9.32306
-9.32369
-9.32392
-9.32361
-9.32255
-9.32045
-9.31697
-9.31172
-9.30426
-9.29414
-9.28087
-9.26398
-9.243
-9.21746
-9.1869
-9.15091
-9.10907
-9.06102
-9.00644
-8.94504
-8.87663
-8.80104
-8.71817
-8.62795
-8.53034
-8.4253
-8.31278
-8.19269
-8.0649
-7.92925
-7.78556
-7.63369
-7.47363
-7.30554
-7.12988
-6.94745
-6.75945
-6.56742
-6.37316
-6.17862
-5.98569
-5.79603
-5.61089
-5.43103
-5.25656
-5.087
-4.92128
-4.75784
-4.59483
-4.43026
-4.26228
-4.08934
-3.91044
-3.72513
-3.5336
-3.33651
-3.13487
-2.92984
-2.72255
-2.51398
-2.3048
-2.09545
-1.88615
-1.67712
-1.46901
-1.2637
-1.06478
-0.878124
-0.713046
-0.573132
-0.457241
-0.343465
-0.250994
-0.106286
-0.0985724
-9.14366
-9.15609
-9.16837
-9.18042
-9.19218
-9.20358
-9.21455
-9.22502
-9.23494
-9.24426
-9.25294
-9.26093
-9.26822
-9.27482
-9.28074
-9.28599
-9.29056
-9.29449
-9.2978
-9.30054
-9.30277
-9.30453
-9.30587
-9.30682
-9.30737
-9.30752
-9.30722
-9.30636
-9.3048
-9.30234
-9.29871
-9.2936
-9.28663
-9.27742
-9.26553
-9.25052