/*--------------------------------*- C++ -*----------------------------------*\
| =========                 |                                                 |
| \\      /  F ield         | OpenFOAM: The Open Source CFD Toolbox           |
|  \\    /   O peration     | Version:  4.1                                   |
|   \\  /    A nd           | Web:      www.OpenFOAM.org                      |
|    \\/     M anipulation  |                                                 |
\*---------------------------------------------------------------------------*/
FoamFile
{
    version     2.0;
    format      ascii;
    class       surfaceScalarField;
    location    "500";
    object      phi;
}
// * * * * * * * * * * * * * * * * * * * * * * * * * * * * * * * * * * * * * //

dimensions      [0 3 -1 0 0 0 0];

internalField   nonuniform List<scalar> 
13452
(
5.95313e-05
7.37164e-07
5.86593e-05
8.71993e-07
5.78164e-05
8.42923e-07
5.69814e-05
8.34955e-07
5.61556e-05
8.25867e-07
5.53516e-05
8.03919e-07
5.4577e-05
7.74686e-07
5.38341e-05
7.42902e-07
5.31241e-05
7.09982e-07
5.24476e-05
6.76506e-07
5.18044e-05
6.43127e-07
5.1194e-05
6.10422e-07
5.06153e-05
5.7875e-07
5.0067e-05
5.483e-07
4.95478e-05
5.19162e-07
4.90564e-05
4.9137e-07
4.85915e-05
4.64915e-07
4.81518e-05
4.39762e-07
4.77359e-05
4.15862e-07
4.73427e-05
3.93156e-07
4.69712e-05
3.71581e-07
4.66201e-05
3.51074e-07
4.62885e-05
3.31575e-07
4.59755e-05
3.13024e-07
4.56801e-05
2.95364e-07
4.54016e-05
2.78545e-07
4.51391e-05
2.62503e-07
4.48918e-05
2.47246e-07
4.46593e-05
2.32527e-07
4.44402e-05
2.19078e-07
4.4236e-05
2.04241e-07
4.40414e-05
1.94597e-07
1.67254e-07
4.38741e-05
6.23701e-05
3.57371e-07
6.26549e-05
5.87194e-07
6.28762e-05
6.21619e-07
6.30528e-05
6.58438e-07
6.31874e-05
6.91214e-07
6.32837e-05
7.07614e-07
6.33452e-05
7.1323e-07
6.33749e-05
7.13144e-07
6.33763e-05
7.08617e-07
6.33527e-05
7.00059e-07
6.33077e-05
6.88191e-07
6.32443e-05
6.73809e-07
6.31655e-05
6.5755e-07
6.30739e-05
6.39899e-07
6.29718e-05
6.2125e-07
6.28612e-05
6.01929e-07
6.2744e-05
5.82198e-07
6.26215e-05
5.62265e-07
6.2495e-05
5.42294e-07
6.23658e-05
5.22413e-07
6.22346e-05
5.02723e-07
6.21024e-05
4.83301e-07
6.19698e-05
4.64207e-07
6.18373e-05
4.45482e-07
6.17055e-05
4.27157e-07
6.15748e-05
4.09256e-07
6.14455e-05
3.91782e-07
6.1318e-05
3.74779e-07
6.11924e-05
3.58131e-07
6.10693e-05
3.42181e-07
6.09476e-05
3.25873e-07
6.08307e-05
3.11506e-07
2.95496e-07
6.07025e-05
6.38365e-05
2.82275e-07
6.38978e-05
5.25847e-07
6.39332e-05
5.86258e-07
6.39616e-05
6.3009e-07
6.39851e-05
6.67672e-07
6.40046e-05
6.8811e-07
6.40217e-05
6.96175e-07
6.40371e-05
6.97731e-07
6.4051e-05
6.94729e-07
6.40632e-05
6.87794e-07
6.40737e-05
6.77699e-07
6.40823e-05
6.65255e-07
6.40887e-05
6.51084e-07
6.4093e-05
6.35635e-07
6.4095e-05
6.19262e-07
6.40947e-05
6.02251e-07
6.4092e-05
5.8483e-07
6.40871e-05
5.67177e-07
6.408e-05
5.49431e-07
6.40707e-05
5.31698e-07
6.40594e-05
5.14061e-07
6.40461e-05
4.96585e-07
6.4031e-05
4.79318e-07
6.40142e-05
4.62295e-07
6.39958e-05
4.45541e-07
6.39759e-05
4.29076e-07
6.39548e-05
4.12903e-07
6.39326e-05
3.97047e-07
6.39092e-05
3.81461e-07
6.38852e-05
3.6625e-07
6.38598e-05
3.51195e-07
6.38348e-05
3.36574e-07
3.2254e-07
6.38077e-05
6.5644e-05
2.21308e-07
6.57108e-05
4.59084e-07
6.57548e-05
5.42242e-07
6.57896e-05
5.95315e-07
6.58192e-05
6.38048e-07
6.58441e-05
6.63205e-07
6.58654e-05
6.74858e-07
6.58842e-05
6.79004e-07
6.59008e-05
6.78051e-07
6.59158e-05
6.72831e-07
6.59293e-05
6.6419e-07
6.59416e-05
6.52992e-07
6.59528e-05
6.39902e-07
6.5963e-05
6.25406e-07
6.59724e-05
6.09881e-07
6.5981e-05
5.93635e-07
6.59889e-05
5.76911e-07
6.59962e-05
5.59899e-07
6.60029e-05
5.42744e-07
6.6009e-05
5.2556e-07
6.60146e-05
5.08432e-07
6.60198e-05
4.91425e-07
6.60245e-05
4.74589e-07
6.60289e-05
4.57959e-07
6.60328e-05
4.41558e-07
6.60365e-05
4.25403e-07
6.60399e-05
4.09499e-07
6.60431e-05
3.93859e-07
6.60461e-05
3.78461e-07
6.6049e-05
3.63351e-07
6.60517e-05
3.48457e-07
6.60544e-05
3.33893e-07
3.20101e-07
6.60569e-05
6.75014e-05
1.76642e-07
6.75606e-05
3.99899e-07
6.76061e-05
4.96825e-07
6.76453e-05
5.56096e-07
6.76816e-05
6.01716e-07
6.77146e-05
6.3018e-07
6.77446e-05
6.44872e-07
6.77722e-05
6.51387e-07
6.77979e-05
6.52341e-07
6.7822e-05
6.48758e-07
6.78446e-05
6.41561e-07
6.7866e-05
6.31647e-07
6.78862e-05
6.19708e-07
6.79053e-05
6.06252e-07
6.79235e-05
5.91672e-07
6.79409e-05
5.76286e-07
6.79575e-05
5.60346e-07
6.79733e-05
5.44045e-07
6.79885e-05
5.27537e-07
6.80031e-05
5.10937e-07
6.80172e-05
4.94336e-07
6.80309e-05
4.77802e-07
6.80441e-05
4.61386e-07
6.80569e-05
4.45124e-07
6.80694e-05
4.29041e-07
6.80817e-05
4.13154e-07
6.80937e-05
3.97471e-07
6.81056e-05
3.81998e-07
6.81173e-05
3.66727e-07
6.8129e-05
3.51671e-07
6.81406e-05
3.3682e-07
6.81523e-05
3.22197e-07
3.08015e-07
6.81644e-05
6.94169e-05
1.43806e-07
6.94686e-05
3.48142e-07
6.95133e-05
4.52113e-07
6.95535e-05
5.15923e-07
6.95915e-05
5.63753e-07
6.96267e-05
5.94959e-07
6.96592e-05
6.12342e-07
6.96896e-05
6.20993e-07
6.97183e-05
6.23676e-07
6.97454e-05
6.21603e-07
6.97712e-05
6.15763e-07
6.97958e-05
6.07072e-07
6.98193e-05
5.96237e-07
6.98417e-05
5.83781e-07
6.98633e-05
5.70107e-07
6.98841e-05
5.55543e-07
6.99041e-05
5.40344e-07
6.99234e-05
5.24714e-07
6.99421e-05
5.0881e-07
6.99603e-05
4.92752e-07
6.9978e-05
4.76637e-07
6.99953e-05
4.60534e-07
7.00122e-05
4.44499e-07
7.00287e-05
4.28569e-07
7.0045e-05
4.12772e-07
7.0061e-05
3.97126e-07
7.00768e-05
3.81638e-07
7.00925e-05
3.66313e-07
7.01081e-05
3.51146e-07
7.01236e-05
3.36133e-07
7.01392e-05
3.21268e-07
7.01549e-05
3.06515e-07
2.91963e-07
7.01709e-05
7.13908e-05
1.19381e-07
7.14348e-05
3.04054e-07
7.14765e-05
4.10469e-07
7.15151e-05
4.77292e-07
7.15524e-05
5.26458e-07
7.15878e-05
5.59568e-07
7.16211e-05
5.79083e-07
7.16525e-05
5.89545e-07
7.16824e-05
5.93751e-07
7.1711e-05
5.93039e-07
7.17383e-05
5.88437e-07
7.17645e-05
5.80866e-07
7.17897e-05
5.71043e-07
7.1814e-05
5.59504e-07
7.18374e-05
5.46665e-07
7.18601e-05
5.3286e-07
7.18821e-05
5.18352e-07
7.19035e-05
5.0335e-07
7.19243e-05
4.88014e-07
7.19446e-05
4.72472e-07
7.19644e-05
4.56821e-07
7.19838e-05
4.41135e-07
7.20028e-05
4.25471e-07
7.20215e-05
4.0987e-07
7.20399e-05
3.94358e-07
7.20581e-05
3.78956e-07
7.20761e-05
3.6367e-07
7.20939e-05
3.48504e-07
7.21116e-05
3.33452e-07
7.21292e-05
3.185e-07
7.21468e-05
3.03634e-07
7.21645e-05
2.88794e-07
2.73995e-07
7.21825e-05
7.34237e-05
1.00909e-07
7.34612e-05
2.66638e-07
7.34998e-05
3.71838e-07
7.35371e-05
4.39988e-07
7.35739e-05
4.89667e-07
7.36094e-05
5.24006e-07
7.36433e-05
5.45236e-07
7.36756e-05
5.57284e-07
7.37064e-05
5.62875e-07
7.3736e-05
5.63429e-07
7.37645e-05
5.59999e-07
7.37918e-05
5.53504e-07
7.38182e-05
5.4467e-07
7.38437e-05
5.34038e-07
7.38683e-05
5.22033e-07
7.38922e-05
5.08991e-07
7.39154e-05
4.95183e-07
7.39379e-05
4.80818e-07
7.39598e-05
4.66063e-07
7.39813e-05
4.51047e-07
7.40022e-05
4.35871e-07
7.40227e-05
4.20612e-07
7.40429e-05
4.05329e-07
7.40627e-05
3.90065e-07
7.40822e-05
3.74849e-07
7.41014e-05
3.59701e-07
7.41205e-05
3.4463e-07
7.41393e-05
3.29638e-07
7.41581e-05
3.14717e-07
7.41767e-05
2.99852e-07
7.41953e-05
2.85019e-07
7.4214e-05
2.70167e-07
2.55287e-07
7.42327e-05
7.55168e-05
8.6595e-08
7.55486e-05
2.34847e-07
7.5584e-05
3.36388e-07
7.56195e-05
4.04538e-07
7.5655e-05
4.54145e-07
7.56899e-05
4.89146e-07
7.57235e-05
5.11636e-07
7.57558e-05
5.24965e-07
7.57869e-05
5.31723e-07
7.5817e-05
5.33382e-07
7.5846e-05
5.31002e-07
7.5874e-05
5.25492e-07
7.59011e-05
5.17571e-07
7.59273e-05
5.07788e-07
7.59528e-05
4.96567e-07
7.59775e-05
4.8425e-07
7.60016e-05
4.71107e-07
7.60251e-05
4.57354e-07
7.6048e-05
4.43159e-07
7.60704e-05
4.28654e-07
7.60923e-05
4.13944e-07
7.61138e-05
3.99107e-07
7.61349e-05
3.84206e-07
7.61557e-05
3.69284e-07
7.61762e-05
3.54373e-07
7.61964e-05
3.39494e-07
7.62164e-05
3.24656e-07
7.62361e-05
3.09862e-07
7.62558e-05
2.95104e-07
7.62752e-05
2.80365e-07
7.62946e-05
2.6562e-07
7.6314e-05
2.50806e-07
2.359e-07
7.63334e-05
7.7671e-05
7.52145e-08
7.76981e-05
2.07712e-07
7.77305e-05
3.04018e-07
7.7764e-05
3.70977e-07
7.77983e-05
4.19908e-07
7.78324e-05
4.5499e-07
7.78658e-05
4.78257e-07
7.78982e-05
4.92549e-07
7.79297e-05
5.00265e-07
7.79602e-05
5.02878e-07
7.79897e-05
5.01441e-07
7.80184e-05
4.96838e-07
7.80462e-05
4.89778e-07
7.80732e-05
4.80805e-07
7.80994e-05
4.70345e-07
7.81249e-05
4.5874e-07
7.81497e-05
4.46261e-07
7.8174e-05
4.33123e-07
7.81976e-05
4.19497e-07
7.82208e-05
4.05517e-07
7.82434e-05
3.91289e-07
7.82656e-05
3.76895e-07
7.82874e-05
3.62397e-07
7.83089e-05
3.47842e-07
7.833e-05
3.33263e-07
7.83508e-05
3.18682e-07
7.83714e-05
3.0411e-07
7.83917e-05
2.89552e-07
7.84118e-05
2.75e-07
7.84317e-05
2.60441e-07
7.84515e-05
2.45852e-07
7.84711e-05
2.31194e-07
2.16466e-07
7.84905e-05
7.98876e-05
6.59301e-08
7.99109e-05
1.84363e-07
7.99405e-05
2.74517e-07
7.99721e-05
3.39324e-07
8.00049e-05
3.87077e-07
8.00381e-05
4.21788e-07
8.0071e-05
4.45428e-07
8.01031e-05
4.604e-07
8.01345e-05
4.68872e-07
8.01651e-05
4.72286e-07
8.01949e-05
4.7167e-07
8.02238e-05
4.67881e-07
8.0252e-05
4.61608e-07
8.02794e-05
4.53391e-07
8.03061e-05
4.4365e-07
8.03321e-05
4.32723e-07
8.03575e-05
4.20881e-07
8.03823e-05
4.0834e-07
8.04065e-05
3.95271e-07
8.04302e-05
3.81808e-07
8.04534e-05
3.6806e-07
8.04762e-05
3.54109e-07
8.04986e-05
3.4002e-07
8.05206e-05
3.25842e-07
8.05423e-05
3.11608e-07
8.05636e-05
2.97344e-07
8.05847e-05
2.83063e-07
8.06054e-05
2.6877e-07
8.0626e-05
2.54463e-07
8.06463e-05
2.4013e-07
8.06664e-05
2.25753e-07
8.06863e-05
2.11291e-07
1.96739e-07
8.0706e-05
8.21682e-05
5.81687e-08
8.21885e-05
1.64072e-07
8.22154e-05
2.47628e-07
8.22452e-05
3.09536e-07
8.22766e-05
3.55659e-07
8.23088e-05
3.89588e-07
8.2341e-05
4.13204e-07
8.23729e-05
4.28551e-07
8.24042e-05
4.37557e-07
8.24349e-05
4.41597e-07
8.24649e-05
4.4167e-07
8.24942e-05
4.38593e-07
8.25227e-05
4.33032e-07
8.25506e-05
4.25512e-07
8.25778e-05
4.16448e-07
8.26044e-05
4.06171e-07
8.26303e-05
3.94949e-07
8.26556e-05
3.82995e-07
8.26804e-05
3.70481e-07
8.27047e-05
3.5754e-07
8.27285e-05
3.44282e-07
8.27518e-05
3.3079e-07
8.27747e-05
3.1713e-07
8.27972e-05
3.03353e-07
8.28193e-05
2.89494e-07
8.28411e-05
2.7558e-07
8.28625e-05
2.61627e-07
8.28836e-05
2.47644e-07
8.29044e-05
2.33631e-07
8.2925e-05
2.19582e-07
8.29453e-05
2.0549e-07
8.29652e-05
1.91335e-07
1.77138e-07
8.29848e-05
8.45144e-05
5.15363e-08
8.45322e-05
1.46245e-07
8.45568e-05
2.23067e-07
8.45848e-05
2.81522e-07
8.46148e-05
3.25625e-07
8.4646e-05
3.58425e-07
8.46775e-05
3.81676e-07
8.4709e-05
3.97125e-07
8.47401e-05
4.06463e-07
8.47707e-05
4.10976e-07
8.48007e-05
4.11616e-07
8.48302e-05
4.09157e-07
8.4859e-05
4.04235e-07
8.48871e-05
3.97358e-07
8.49146e-05
3.88928e-07
8.49415e-05
3.79271e-07
8.49678e-05
3.68646e-07
8.49936e-05
3.57266e-07
8.50187e-05
3.45298e-07
8.50434e-05
3.32878e-07
8.50676e-05
3.20112e-07
8.50913e-05
3.07087e-07
8.51145e-05
2.93868e-07
8.51374e-05
2.80506e-07
8.51598e-05
2.67042e-07
8.51819e-05
2.53503e-07
8.52036e-05
2.39908e-07
8.5225e-05
2.26269e-07
8.52461e-05
2.12591e-07
8.52668e-05
1.98874e-07
8.52871e-05
1.85116e-07
8.53072e-05
1.71296e-07
1.57435e-07
8.53269e-05
8.69279e-05
4.57576e-08
8.69438e-05
1.30406e-07
8.69663e-05
2.00553e-07
8.69927e-05
2.55168e-07
8.70214e-05
2.96919e-07
8.70515e-05
3.28291e-07
8.70823e-05
3.50873e-07
8.71133e-05
3.66163e-07
8.71441e-05
3.75631e-07
8.71746e-05
3.80453e-07
8.72047e-05
3.81527e-07
8.72343e-05
3.79581e-07
8.72633e-05
3.75216e-07
8.72917e-05
3.68918e-07
8.73196e-05
3.61075e-07
8.73469e-05
3.52e-07
8.73736e-05
3.41949e-07
8.73997e-05
3.31126e-07
8.74253e-05
3.19697e-07
8.74504e-05
3.07796e-07
8.7475e-05
2.95528e-07
8.74991e-05
2.8298e-07
8.75227e-05
2.70218e-07
8.75459e-05
2.57295e-07
8.75687e-05
2.44251e-07
8.75911e-05
2.31118e-07
8.76131e-05
2.17917e-07
8.76347e-05
2.04663e-07
8.76559e-05
1.91368e-07
8.76768e-05
1.78036e-07
8.76972e-05
1.64672e-07
8.77172e-05
1.51276e-07
1.37883e-07
8.77368e-05
8.94107e-05
4.06371e-08
8.94249e-05
1.16175e-07
8.94456e-05
1.79817e-07
8.94704e-05
2.30344e-07
8.94979e-05
2.69469e-07
8.9527e-05
2.99157e-07
8.95571e-05
3.20805e-07
8.95876e-05
3.35698e-07
8.96181e-05
3.45105e-07
8.96485e-05
3.50086e-07
8.96785e-05
3.51473e-07
8.97082e-05
3.49943e-07
8.97373e-05
3.46061e-07
8.97659e-05
3.40285e-07
8.9794e-05
3.32986e-07
8.98216e-05
3.24464e-07
8.98485e-05
3.14964e-07
8.9875e-05
3.04687e-07
8.99009e-05
2.93792e-07
8.99263e-05
2.82411e-07
8.99512e-05
2.70648e-07
8.99755e-05
2.58588e-07
8.99995e-05
2.463e-07
9.00229e-05
2.33835e-07
9.00459e-05
2.21237e-07
9.00685e-05
2.08538e-07
9.00907e-05
1.95764e-07
9.01124e-05
1.82933e-07
9.01337e-05
1.7006e-07
9.01546e-05
1.57155e-07
9.0175e-05
1.44229e-07
9.0195e-05
1.3128e-07
1.18343e-07
9.02146e-05
9.19645e-05
3.60325e-08
9.19774e-05
1.03249e-07
9.19966e-05
1.60614e-07
9.202e-05
2.06906e-07
9.20463e-05
2.43191e-07
9.20745e-05
2.70977e-07
9.21038e-05
2.9146e-07
9.21338e-05
3.05741e-07
9.2164e-05
3.14906e-07
9.21942e-05
3.19898e-07
9.22242e-05
3.21476e-07
9.22539e-05
3.20265e-07
9.22831e-05
3.16787e-07
9.23119e-05
3.11472e-07
9.23403e-05
3.04668e-07
9.23681e-05
2.96664e-07
9.23953e-05
2.87691e-07
9.24221e-05
2.77943e-07
9.24483e-05
2.67574e-07
9.2474e-05
2.56711e-07
9.24992e-05
2.45457e-07
9.25239e-05
2.33897e-07
9.25481e-05
2.22096e-07
9.25718e-05
2.10111e-07
9.25951e-05
1.97983e-07
9.26178e-05
1.85748e-07
9.26402e-05
1.73433e-07
9.2662e-05
1.61061e-07
9.26835e-05
1.48651e-07
9.27044e-05
1.36217e-07
9.27249e-05
1.23776e-07
9.27448e-05
1.11337e-07
9.8945e-08
9.27642e-05
9.45914e-05
3.18376e-08
9.46032e-05
9.13872e-08
9.46211e-05
1.42721e-07
9.46433e-05
1.84711e-07
9.46685e-05
2.17988e-07
9.46958e-05
2.43688e-07
9.47244e-05
2.62808e-07
9.47539e-05
2.76285e-07
9.47838e-05
2.85043e-07
9.48138e-05
2.89906e-07
9.48437e-05
2.91561e-07
9.48734e-05
2.90576e-07
9.49027e-05
2.87429e-07
9.49317e-05
2.82517e-07
9.49602e-05
2.76167e-07
9.49882e-05
2.68649e-07
9.50157e-05
2.60183e-07
9.50427e-05
2.50952e-07
9.50692e-05
2.41105e-07
9.50951e-05
2.30763e-07
9.51205e-05
2.20028e-07
9.51455e-05
2.0898e-07
9.51699e-05
1.97686e-07
9.51938e-05
1.86202e-07
9.52172e-05
1.7457e-07
9.52401e-05
1.62829e-07
9.52625e-05
1.51007e-07
9.52845e-05
1.3913e-07
9.53059e-05
1.27219e-07
9.53268e-05
1.15294e-07
9.53472e-05
1.03374e-07
9.53671e-05
9.14689e-08
7.96211e-08
9.53864e-05
9.72934e-05
2.79709e-08
9.73044e-05
8.03941e-08
9.73212e-05
1.25939e-07
9.73423e-05
1.63611e-07
9.73665e-05
1.93758e-07
9.7393e-05
2.17219e-07
9.7421e-05
2.34808e-07
9.74499e-05
2.4731e-07
9.74795e-05
2.55508e-07
9.75093e-05
2.60114e-07
9.75391e-05
2.61737e-07
9.75688e-05
2.60888e-07
9.75982e-05
2.57999e-07
9.76273e-05
2.53434e-07
9.7656e-05
2.47495e-07
9.76842e-05
2.40431e-07
9.77119e-05
2.3245e-07
9.77391e-05
2.23723e-07
9.77658e-05
2.14391e-07
9.7792e-05
2.04572e-07
9.78177e-05
1.9436e-07
9.78429e-05
1.83836e-07
9.78675e-05
1.73066e-07
9.78916e-05
1.62103e-07
9.79151e-05
1.50992e-07
9.79382e-05
1.39771e-07
9.79607e-05
1.28472e-07
9.79827e-05
1.17122e-07
9.80042e-05
1.05746e-07
9.80252e-05
9.43645e-08
9.80455e-05
8.30021e-08
9.80653e-05
7.16739e-08
6.04265e-08
9.80845e-05
0.000100073
2.43683e-08
0.000100083
7.0109e-08
0.000100099
1.10092e-07
0.000100119
1.43462e-07
0.000100142
1.70393e-07
0.000100168
1.91489e-07
0.000100195
2.07402e-07
0.000100224
2.18782e-07
0.000100253
2.26283e-07
0.000100283
2.30513e-07
0.000100313
2.32003e-07
0.000100342
2.31206e-07
0.000100372
2.28509e-07
0.000100401
2.24238e-07
0.00010043
2.1867e-07
0.000100458
2.12032e-07
0.000100486
2.04517e-07
0.000100514
1.96284e-07
0.00010054
1.87465e-07
0.000100567
1.78171e-07
0.000100593
1.68493e-07
0.000100618
1.58508e-07
0.000100643
1.48279e-07
0.000100667
1.3786e-07
0.000100691
1.27296e-07
0.000100714
1.16624e-07
0.000100737
1.05879e-07
0.000100759
9.50884e-08
0.00010078
8.42791e-08
0.000100801
7.34749e-08
0.000100821
6.27003e-08
0.000100841
5.19716e-08
4.13331e-08
0.00010086
0.000102931
2.09773e-08
0.000102941
6.03968e-08
0.000102956
9.50176e-08
0.000102976
1.24123e-07
0.000102998
1.47777e-07
0.000103023
1.66408e-07
0.00010305
1.80523e-07
0.000103078
1.90653e-07
0.000103107
1.97336e-07
0.000103137
2.01083e-07
0.000103166
2.02349e-07
0.000103196
2.01528e-07
0.000103226
1.98959e-07
0.000103255
1.94934e-07
0.000103284
1.89699e-07
0.000103312
1.83461e-07
0.000103341
1.76394e-07
0.000103368
1.68645e-07
0.000103395
1.60336e-07
0.000103422
1.51571e-07
0.000103448
1.42435e-07
0.000103473
1.33002e-07
0.000103498
1.23332e-07
0.000103523
1.13478e-07
0.000103547
1.03484e-07
0.00010357
9.33878e-08
0.000103592
8.32236e-08
0.000103615
7.30214e-08
0.000103636
6.28085e-08
0.000103657
5.26101e-08
0.000103677
4.24522e-08
0.000103697
3.23532e-08
2.23579e-08
0.000103716
0.000105872
1.77535e-08
0.000105881
5.11406e-08
0.000105896
8.05706e-08
0.000105914
1.05454e-07
0.000105936
1.2579e-07
0.000105961
1.41874e-07
0.000105987
1.54092e-07
0.000106015
1.62863e-07
0.000106044
1.68623e-07
0.000106073
1.71792e-07
0.000106103
1.72752e-07
0.000106132
1.71838e-07
0.000106162
1.69343e-07
0.000106191
1.6552e-07
0.00010622
1.60585e-07
0.000106249
1.54723e-07
0.000106278
1.4809e-07
0.000106305
1.40818e-07
0.000106333
1.3302e-07
0.000106359
1.24789e-07
0.000106386
1.16206e-07
0.000106411
1.0734e-07
0.000106436
9.82478e-08
0.000106461
8.89804e-08
0.000106485
7.95806e-08
0.000106508
7.00864e-08
0.000106531
6.05314e-08
0.000106553
5.09458e-08
0.000106574
4.13576e-08
0.000106595
3.17925e-08
0.000106615
2.22767e-08
0.000106635
1.28288e-08
3.49139e-09
0.000106654
0.000108896
1.46577e-08
0.000108905
4.22357e-08
0.000108919
6.66135e-08
0.000108937
8.73158e-08
0.000108959
1.04306e-07
0.000108983
1.1778e-07
0.000109009
1.28017e-07
0.000109037
1.35339e-07
0.000109065
1.40087e-07
0.000109094
1.42597e-07
0.000109124
1.4318e-07
0.000109154
1.42114e-07
0.000109183
1.39644e-07
0.000109213
1.35985e-07
0.000109242
1.31323e-07
0.000109271
1.25818e-07
0.0001093
1.19608e-07
0.000109328
1.12809e-07
0.000109355
1.05522e-07
0.000109382
9.78326e-08
0.000109408
8.98144e-08
0.000109434
8.15303e-08
0.000109459
7.3035e-08
0.000109484
6.43757e-08
0.000109508
5.55939e-08
0.000109531
4.67265e-08
0.000109554
3.78063e-08
0.000109576
2.88635e-08
0.000109598
1.99257e-08
0.000109618
1.10186e-08
0.000109639
2.16814e-09
0.000109658
-6.60707e-09
-1.52664e-08
0.000109677
0.000112007
1.16535e-08
0.000112016
3.35844e-08
0.00011203
5.30137e-08
0.000112047
6.95678e-08
0.000112069
8.31923e-08
0.000112092
9.40044e-08
0.000112118
1.02194e-07
0.000112146
1.07993e-07
0.000112174
1.11656e-07
0.000112203
1.13441e-07
0.000112233
1.13589e-07
0.000112263
1.12322e-07
0.000112292
1.09837e-07
0.000112322
1.06312e-07
0.000112351
1.01901e-07
0.000112381
9.67395e-08
0.000112409
9.09444e-08
0.000112437
8.46173e-08
0.000112465
7.78462e-08
0.000112492
7.07072e-08
0.000112519
6.32663e-08
0.000112545
5.55808e-08
0.00011257
4.77011e-08
0.000112595
3.96713e-08
0.000112619
3.15306e-08
0.000112642
2.33142e-08
0.000112665
1.50537e-08
0.000112687
6.77844e-09
0.000112708
-1.48454e-09
0.000112729
-9.71015e-09
0.000112749
-1.7873e-08
0.000112769
-2.59544e-08
-3.39154e-08
0.000112787
0.000115207
8.70457e-09
0.000115216
2.50921e-08
0.000115229
3.96406e-08
0.000115247
5.2066e-08
0.000115268
6.23063e-08
0.000115291
7.04163e-08
0.000115317
7.65059e-08
0.000115344
8.07249e-08
0.000115373
8.32478e-08
0.000115402
8.42556e-08
0.000115431
8.3924e-08
0.000115461
8.24181e-08
0.000115491
7.98898e-08
0.000115521
7.64767e-08
0.000115551
7.23022e-08
0.00011558
6.74757e-08
0.000115609
6.20938e-08
0.000115637
5.62418e-08
0.000115665
4.99946e-08
0.000115692
4.34179e-08
0.000115719
3.65697e-08
0.000115745
2.95013e-08
0.000115771
2.22579e-08
0.000115795
1.48801e-08
0.00011582
7.40417e-09
0.000115843
-1.369e-10
0.000115866
-7.713e-09
0.000115888
-1.52964e-08
0.000115909
-2.28611e-08
0.00011593
-3.03834e-08
0.00011595
-3.78394e-08
0.000115969
-4.52125e-08
-5.24673e-08
0.000115988
0.000118499
5.77223e-09
0.000118507
1.66635e-08
0.000118521
2.63603e-08
0.000118538
3.46595e-08
0.000118559
4.14966e-08
0.000118582
4.68725e-08
0.000118608
5.08238e-08
0.000118635
5.34222e-08
0.000118664
5.47646e-08
0.000118693
5.49595e-08
0.000118723
5.41178e-08
0.000118753
5.23489e-08
0.000118783
4.97582e-08
0.000118813
4.64444e-08
0.000118843
4.24989e-08
0.000118872
3.80052e-08
0.000118901
3.3039e-08
0.00011893
2.76685e-08
0.000118958
2.19552e-08
0.000118985
1.59541e-08
0.000119012
9.71478e-09
0.000119039
3.28158e-09
0.000119064
-3.30541e-09
0.000119089
-1.00098e-08
0.000119113
-1.67986e-08
0.000119137
-2.36415e-08
0.00011916
-3.05105e-08
0.000119182
-3.73795e-08
0.000119203
-4.42242e-08
0.000119224
-5.10217e-08
0.000119244
-5.77492e-08
0.000119263
-6.43891e-08
-7.09071e-08
0.000119281
0.000121884
2.82516e-09
0.000121893
8.2089e-09
0.000121906
1.30394e-08
0.000121923
1.71919e-08
0.000121944
2.06015e-08
0.000121968
2.3217e-08
0.000121994
2.50034e-08
0.000122021
2.59558e-08
0.00012205
2.60952e-08
0.000122079
2.54584e-08
0.00012211
2.4092e-08
0.00012214
2.20502e-08
0.00012217
1.93917e-08
0.0001222
1.61762e-08
0.00012223
1.24631e-08
0.00012226
8.30936e-09
0.000122289
3.76945e-09
0.000122318
-1.10561e-09
0.000122346
-6.26834e-09
0.000122374
-1.16748e-08
0.000122401
-1.72844e-08
0.000122427
-2.30599e-08
0.000122453
-2.89669e-08
0.000122478
-3.49736e-08
0.000122502
-4.10507e-08
0.000122526
-4.71707e-08
0.000122549
-5.33084e-08
0.000122571
-5.94399e-08
0.000122592
-6.55427e-08
0.000122613
-7.15964e-08
0.000122632
-7.75807e-08
0.000122652
-8.34825e-08
-8.92723e-08
0.00012267
0.000125366
-1.51387e-10
0.000125375
-3.56619e-10
0.000125388
-4.60508e-10
0.000125406
-5.04747e-10
0.000125427
-5.56672e-10
0.000125451
-7.24109e-10
0.000125477
-1.1176e-09
0.000125505
-1.82046e-09
0.000125534
-2.88885e-09
0.000125564
-4.35888e-09
0.000125594
-6.24872e-09
0.000125625
-8.55986e-09
0.000125656
-1.12805e-08
0.000125686
-1.43898e-08
0.000125717
-1.78607e-08
0.000125746
-2.16624e-08
0.000125776
-2.57619e-08
0.000125805
-3.01257e-08
0.000125833
-3.47202e-08
0.000125861
-3.95129e-08
0.000125889
-4.44723e-08
0.000125915
-4.95685e-08
0.000125941
-5.47732e-08
0.000125966
-6.00594e-08
0.00012599
-6.54017e-08
0.000126014
-7.07762e-08
0.000126037
-7.61602e-08
0.000126059
-8.15322e-08
0.00012608
-8.68717e-08
0.000126101
-9.21593e-08
0.00012612
-9.7375e-08
0.00012614
-1.02503e-07
-1.07513e-07
0.000126158
0.000128948
-3.20333e-09
0.000128957
-9.15775e-09
0.000128971
-1.43224e-08
0.000128989
-1.86431e-08
0.000129011
-2.21969e-08
0.000129035
-2.51622e-08
0.000129062
-2.77349e-08
0.00012909
-3.00816e-08
0.000129119
-3.23392e-08
0.00012915
-3.46196e-08
0.00012918
-3.70079e-08
0.000129211
-3.95624e-08
0.000129242
-4.23185e-08
0.000129273
-4.52946e-08
0.000129304
-4.84963e-08
0.000129334
-5.19189e-08
0.000129364
-5.5551e-08
0.000129393
-5.93763e-08
0.000129422
-6.33753e-08
0.00012945
-6.75268e-08
0.000129477
-7.18087e-08
0.000129504
-7.61986e-08
0.00012953
-8.0674e-08
0.000129555
-8.52133e-08
0.000129579
-8.97952e-08
0.000129603
-9.43992e-08
0.000129626
-9.90058e-08
0.000129648
-1.03596e-07
0.000129669
-1.08153e-07
0.00012969
-1.12659e-07
0.000129709
-1.17101e-07
0.000129728
-1.21468e-07
-1.25738e-07
0.000129747
0.000132632
-6.39591e-09
0.000132641
-1.8364e-08
0.000132656
-2.87863e-08
0.000132675
-3.74939e-08
0.000132697
-4.45912e-08
0.000132722
-5.03552e-08
0.00013275
-5.50848e-08
0.000132779
-5.90399e-08
0.000132809
-6.2445e-08
0.00013284
-6.54931e-08
0.000132871
-6.83391e-08
0.000132903
-7.10985e-08
0.000132934
-7.38539e-08
0.000132965
-7.6663e-08
0.000132996
-7.95629e-08
0.000133027
-8.25754e-08
0.000133057
-8.57098e-08
0.000133087
-8.89669e-08
0.000133116
-9.23413e-08
0.000133144
-9.5823e-08
0.000133172
-9.9399e-08
0.000133199
-1.03054e-07
0.000133225
-1.06773e-07
0.00013325
-1.10539e-07
0.000133275
-1.14334e-07
0.000133298
-1.18142e-07
0.000133321
-1.21946e-07
0.000133343
-1.25731e-07
0.000133365
-1.2948e-07
0.000133385
-1.33177e-07
0.000133405
-1.36806e-07
0.000133424
-1.40353e-07
-1.43791e-07
0.000133442
0.000136422
-9.81009e-09
0.000136432
-2.81978e-08
0.000136447
-4.41635e-08
0.000136467
-5.74007e-08
0.00013649
-6.80778e-08
0.000136517
-7.66174e-08
0.000136545
-8.34468e-08
0.000136575
-8.89308e-08
0.000136606
-9.33934e-08
0.000136637
-9.7119e-08
0.000136669
-1.00338e-07
0.000136702
-1.03224e-07
0.000136734
-1.05909e-07
0.000136765
-1.08488e-07
0.000136797
-1.11031e-07
0.000136828
-1.13583e-07
0.000136858
-1.16174e-07
0.000136888
-1.18822e-07
0.000136917
-1.21534e-07
0.000136946
-1.2431e-07
0.000136974
-1.27147e-07
0.000137001
-1.30037e-07
0.000137027
-1.32969e-07
0.000137052
-1.35932e-07
0.000137077
-1.38914e-07
0.000137101
-1.41901e-07
0.000137123
-1.4488e-07
0.000137146
-1.47838e-07
0.000137167
-1.50763e-07
0.000137187
-1.53644e-07
0.000137207
-1.5647e-07
0.000137226
-1.59239e-07
-1.61933e-07
0.000137244
0.00014032
-1.35576e-08
0.00014033
-3.89683e-08
0.000140347
-6.0873e-08
0.000140368
-7.88043e-08
0.000140393
-9.30766e-08
0.000140421
-1.04342e-07
0.000140451
-1.13189e-07
0.000140482
-1.20101e-07
0.000140514
-1.25513e-07
0.000140547
-1.29812e-07
0.00014058
-1.33305e-07
0.000140613
-1.36227e-07
0.000140646
-1.38757e-07
0.000140678
-1.41031e-07
0.00014071
-1.43147e-07
0.000140742
-1.45176e-07
0.000140773
-1.47167e-07
0.000140803
-1.49152e-07
0.000140833
-1.51153e-07
0.000140862
-1.53178e-07
0.00014089
-1.55233e-07
0.000140917
-1.57317e-07
0.000140944
-1.59425e-07
0.000140969
-1.61551e-07
0.000140994
-1.63685e-07
0.000141018
-1.65819e-07
0.000141041
-1.67942e-07
0.000141063
-1.70043e-07
0.000141084
-1.7211e-07
0.000141105
-1.74133e-07
0.000141125
-1.76097e-07
0.000141143
-1.77987e-07
-1.79786e-07
0.000141161
0.000144329
-1.78016e-08
0.000144341
-5.11266e-08
0.00014436
-7.95037e-08
0.000144383
-1.02288e-07
0.00014441
-1.20097e-07
0.00014444
-1.33939e-07
0.000144471
-1.44608e-07
0.000144504
-1.52731e-07
0.000144537
-1.58885e-07
0.000144571
-1.63572e-07
0.000144605
-1.67182e-07
0.000144639
-1.70007e-07
0.000144672
-1.7227e-07
0.000144705
-1.74143e-07
0.000144738
-1.75751e-07
0.00014477
-1.77188e-07
0.000144801
-1.78518e-07
0.000144832
-1.79788e-07
0.000144862
-1.81028e-07
0.000144891
-1.8226e-07
0.000144919
-1.83493e-07
0.000144946
-1.84735e-07
0.000144973
-1.85985e-07
0.000144999
-1.87241e-07
0.000145023
-1.885e-07
0.000145047
-1.89754e-07
0.00014507
-1.90997e-07
0.000145093
-1.92221e-07
0.000145114
-1.9342e-07
0.000145134
-1.94587e-07
0.000145154
-1.95718e-07
0.000145173
-1.96816e-07
-1.97867e-07
0.000145191
0.000148453
-2.27984e-08
0.000148467
-6.53545e-08
0.000148489
-1.00882e-07
0.000148515
-1.28644e-07
0.000148545
-1.49908e-07
0.000148577
-1.66189e-07
0.000148611
-1.78481e-07
0.000148646
-1.87565e-07
0.000148681
-1.942e-07
0.000148716
-1.99033e-07
0.000148752
-2.0254e-07
0.000148787
-2.0507e-07
0.000148822
-2.06893e-07
0.000148856
-2.08215e-07
0.000148889
-2.09186e-07
0.000148922
-2.09917e-07
0.000148954
-2.10488e-07
0.000148985
-2.10956e-07
0.000149015
-2.11361e-07
0.000149045
-2.1173e-07
0.000149073
-2.12081e-07
0.000149101
-2.12424e-07
0.000149128
-2.12764e-07
0.000149154
-2.13104e-07
0.000149179
-2.13441e-07
0.000149203
-2.13773e-07
0.000149226
-2.14095e-07
0.000149248
-2.14401e-07
0.000149269
-2.14684e-07
0.000149289
-2.14935e-07
0.000149309
-2.15145e-07
0.000149327
-2.15298e-07
-2.15384e-07
0.000149345
0.000152695
-2.89996e-08
0.000152713
-8.28099e-08
0.000152738
-1.26196e-07
0.000152768
-1.58661e-07
0.000152801
-1.82885e-07
0.000152836
-2.01155e-07
0.000152872
-2.14644e-07
0.000152909
-2.24301e-07
0.000152946
-2.31098e-07
0.000152983
-2.35818e-07
0.000153019
-2.39004e-07
0.000153055
-2.41057e-07
0.00015309
-2.42284e-07
0.000153125
-2.42921e-07
0.000153159
-2.4314e-07
0.000153192
-2.43065e-07
0.000153225
-2.42788e-07
0.000153256
-2.42376e-07
0.000153287
-2.41876e-07
0.000153316
-2.41321e-07
0.000153345
-2.40734e-07
0.000153372
-2.4013e-07
0.000153399
-2.39517e-07
0.000153425
-2.38901e-07
0.00015345
-2.38284e-07
0.000153474
-2.37664e-07
0.000153497
-2.37041e-07
0.000153519
-2.3641e-07
0.00015354
-2.35771e-07
0.00015356
-2.35122e-07
0.000153579
-2.34462e-07
0.000153598
-2.33799e-07
-2.33123e-07
0.000153616
0.00015706
-3.71554e-08
0.000157082
-1.05457e-07
0.000157114
-1.57658e-07
0.00015715
-1.94534e-07
0.000157188
-2.21217e-07
0.000157228
-2.40829e-07
0.000157268
-2.54715e-07
0.000157308
-2.64164e-07
0.000157347
-2.70461e-07
0.000157386
-2.74526e-07
0.000157424
-2.76949e-07
0.000157461
-2.78163e-07
0.000157497
-2.78503e-07
0.000157532
-2.78221e-07
0.000157567
-2.77496e-07
0.0001576
-2.76457e-07
0.000157632
-2.75201e-07
0.000157664
-2.73797e-07
0.000157694
-2.72296e-07
0.000157724
-2.70733e-07
0.000157752
-2.69134e-07
0.000157779
-2.67516e-07
0.000157806
-2.6589e-07
0.000157831
-2.64264e-07
0.000157855
-2.62641e-07
0.000157879
-2.61023e-07
0.000157901
-2.59409e-07
0.000157923
-2.57798e-07
0.000157943
-2.56185e-07
0.000157962
-2.54565e-07
0.000157981
-2.52932e-07
0.000157998
-2.51274e-07
-2.49588e-07
0.000158015
0.00016155
-4.91094e-08
0.000161581
-1.35932e-07
0.000161619
-1.95695e-07
0.000161659
-2.35124e-07
0.000161702
-2.63498e-07
0.000161745
-2.83917e-07
0.000161788
-2.97537e-07
0.00016183
-3.06136e-07
0.000161871
-3.11391e-07
0.00016191
-3.14334e-07
0.000161949
-3.15582e-07
0.000161986
-3.15602e-07
0.000162023
-3.14755e-07
0.000162058
-3.13302e-07
0.000162092
-3.11425e-07
0.000162125
-3.09253e-07
0.000162156
-3.06879e-07
0.000162187
-3.04373e-07
0.000162216
-3.01783e-07
0.000162245
-2.99145e-07
0.000162272
-2.96481e-07
0.000162298
-2.9381e-07
0.000162324
-2.91142e-07
0.000162348
-2.88485e-07
0.000162371
-2.85843e-07
0.000162393
-2.83219e-07
0.000162414
-2.80613e-07
0.000162435
-2.78025e-07
0.000162454
-2.75454e-07
0.000162472
-2.72902e-07
0.00016249
-2.70371e-07
0.000162506
-2.67872e-07
-2.654e-07
0.000162522
0.000166174
-6.97334e-08
0.000166223
-1.84818e-07
0.000166276
-2.48149e-07
0.000166326
-2.85138e-07
0.000166374
-3.11751e-07
0.00016642
-3.30131e-07
0.000166464
-3.41219e-07
0.000166505
-3.47371e-07
0.000166544
-3.50483e-07
0.000166581
-3.51516e-07
0.000166617
-3.51021e-07
0.000166651
-3.49437e-07
0.000166683
-3.47106e-07
0.000166714
-3.44264e-07
0.000166743
-3.41071e-07
0.000166772
-3.37641e-07
0.000166799
-3.34056e-07
0.000166825
-3.30378e-07
0.00016685
-3.26647e-07
0.000166874
-3.22896e-07