/*--------------------------------*- C++ -*----------------------------------*\
| =========                 |                                                 |
| \\      /  F ield         | OpenFOAM: The Open Source CFD Toolbox           |
|  \\    /   O peration     | Version:  4.1                                   |
|   \\  /    A nd           | Web:      www.OpenFOAM.org                      |
|    \\/     M anipulation  |                                                 |
\*---------------------------------------------------------------------------*/
FoamFile
{
    version     2.0;
    format      ascii;
    class       volSymmTensorField;
    location    "500";
    object      R;
}
// * * * * * * * * * * * * * * * * * * * * * * * * * * * * * * * * * * * * * //

dimensions      [0 2 -2 0 0 0 0];

internalField   nonuniform List<symmTensor> 
6820
(
(0.205732 -0.0655181 0 0.119059 0 0.158783)
(0.282327 -0.0957377 0 0.109535 0 0.187468)
(0.351932 -0.111301 0 0.106212 0 0.215544)
(0.414146 -0.12096 0 0.107185 0 0.242572)
(0.468926 -0.12821 0 0.110858 0 0.268124)
(0.516417 -0.134403 0 0.116012 0 0.291795)
(0.556898 -0.139948 0 0.121757 0 0.313248)
(0.590791 -0.144897 0 0.127487 0 0.332261)
(0.618638 -0.149199 0 0.132824 0 0.348739)
(0.641047 -0.152813 0 0.137555 0 0.362701)
(0.658653 -0.155731 0 0.141587 0 0.374255)
(0.672082 -0.157985 0 0.144903 0 0.383576)
(0.681933 -0.15963 0 0.147535 0 0.390873)
(0.688756 -0.160735 0 0.14954 0 0.396378)
(0.693051 -0.161376 0 0.15099 0 0.400323)
(0.695256 -0.161623 0 0.151959 0 0.402932)
(0.695756 -0.161546 0 0.152518 0 0.404414)
(0.694881 -0.161206 0 0.152736 0 0.404957)
(0.692912 -0.160654 0 0.152673 0 0.404728)
(0.690086 -0.159939 0 0.152382 0 0.403875)
(0.686602 -0.159098 0 0.151908 0 0.402523)
(0.682626 -0.158165 0 0.151293 0 0.400781)
(0.678293 -0.157166 0 0.150568 0 0.39874)
(0.673717 -0.156125 0 0.149763 0 0.396476)
(0.66899 -0.15506 0 0.1489 0 0.394054)
(0.664185 -0.153985 0 0.147999 0 0.391527)
(0.659364 -0.152914 0 0.147076 0 0.388937)
(0.654574 -0.151854 0 0.146143 0 0.38632)
(0.649853 -0.150816 0 0.145211 0 0.383705)
(0.645234 -0.149802 0 0.144289 0 0.381117)
(0.640731 -0.148826 0 0.143383 0 0.378569)
(0.636441 -0.147902 0 0.142532 0 0.376113)
(0.633435 -0.14787 0 0.142616 0 0.374136)
(0.141614 -0.00846606 0 0.126763 0 0.13657)
(0.150539 -0.0154133 0 0.119378 0 0.139441)
(0.159409 -0.0210919 0 0.112608 0 0.141974)
(0.168023 -0.0259307 0 0.106663 0 0.144248)
(0.1762 -0.0300996 0 0.101597 0 0.146285)
(0.183855 -0.033713 0 0.0973945 0 0.14811)
(0.19097 -0.0368701 0 0.0939947 0 0.149757)
(0.197548 -0.0396496 0 0.0913092 0 0.151251)
(0.203605 -0.0421133 0 0.0892409 0 0.152613)
(0.209173 -0.0443133 0 0.0876946 0 0.153864)
(0.214295 -0.0462961 0 0.0865823 0 0.15502)
(0.219019 -0.0481019 0 0.085825 0 0.156098)
(0.223396 -0.0497657 0 0.0853546 0 0.157115)
(0.227477 -0.0513169 0 0.0851136 0 0.158085)
(0.231312 -0.0527798 0 0.0850548 0 0.15902)
(0.234945 -0.0541738 0 0.0851396 0 0.159932)
(0.238416 -0.0555145 0 0.0853375 0 0.160833)
(0.241761 -0.0568136 0 0.0856241 0 0.16173)
(0.245009 -0.0580801 0 0.0859803 0 0.162631)
(0.248184 -0.0593205 0 0.0863912 0 0.163541)
(0.251306 -0.0605395 0 0.0868451 0 0.164466)
(0.254393 -0.0617407 0 0.0873329 0 0.165409)
(0.257456 -0.0629264 0 0.0878477 0 0.166373)
(0.260505 -0.0640981 0 0.0883837 0 0.167359)
(0.263546 -0.0652562 0 0.0889367 0 0.168368)
(0.266584 -0.066401 0 0.0895027 0 0.1694)
(0.269619 -0.067532 0 0.0900788 0 0.170455)
(0.272653 -0.0686487 0 0.0906624 0 0.171531)
(0.275683 -0.0697507 0 0.0912512 0 0.172626)
(0.278708 -0.0708358 0 0.0918425 0 0.173738)
(0.281726 -0.0719081 0 0.0924376 0 0.174866)
(0.284731 -0.0729539 0 0.0930289 0 0.176009)
(0.288258 -0.0742127 0 0.0939058 0 0.177355)
(0.135647 -0.0019816 0 0.129365 0 0.13447)
(0.138142 -0.00333267 0 0.124875 0 0.135413)
(0.140543 -0.00436738 0 0.120287 0 0.136113)
(0.142757 -0.00525 0 0.115857 0 0.136577)
(0.144726 -0.00600339 0 0.111695 0 0.136818)
(0.146447 -0.00665873 0 0.107827 0 0.13687)
(0.147941 -0.00725527 0 0.104255 0 0.136769)
(0.149223 -0.00782168 0 0.100968 0 0.13654)
(0.150311 -0.0083756 0 0.0979505 0 0.136206)
(0.151224 -0.00892837 0 0.0951856 0 0.135786)
(0.151983 -0.00948754 0 0.0926543 0 0.135299)
(0.152608 -0.0100578 0 0.0903379 0 0.134759)
(0.153117 -0.0106417 0 0.0882182 0 0.134179)
(0.153531 -0.0112401 0 0.0862778 0 0.133572)
(0.153866 -0.011853 0 0.0845007 0 0.132946)
(0.154138 -0.0124797 0 0.0828719 0 0.132312)
(0.154363 -0.0131191 0 0.0813782 0 0.131676)
(0.154554 -0.0137696 0 0.0800073 0 0.131046)
(0.154722 -0.0144297 0 0.0787483 0 0.130426)
(0.15488 -0.0150977 0 0.0775916 0 0.129823)
(0.155034 -0.0157717 0 0.0765284 0 0.12924)
(0.155192 -0.0164495 0 0.0755504 0 0.128678)
(0.155358 -0.017129 0 0.0746502 0 0.12814)
(0.155535 -0.0178084 0 0.0738212 0 0.127627)
(0.155728 -0.018486 0 0.0730575 0 0.12714)
(0.155939 -0.0191603 0 0.0723541 0 0.126679)
(0.15617 -0.0198299 0 0.0717062 0 0.126245)
(0.156422 -0.0204936 0 0.0711096 0 0.125838)
(0.156697 -0.0211503 0 0.0705605 0 0.125458)
(0.156996 -0.0217993 0 0.0700558 0 0.125106)
(0.157316 -0.0224388 0 0.0695908 0 0.124779)
(0.157665 -0.0230721 0 0.0691692 0 0.124481)
(0.15808 -0.0237101 0 0.0688044 0 0.124221)
(0.134186 -0.000782954 0 0.130263 0 0.133857)
(0.135191 -0.00139786 0 0.126844 0 0.134317)
(0.136192 -0.00188078 0 0.123377 0 0.134657)
(0.137119 -0.00231632 0 0.120006 0 0.134859)
(0.137921 -0.00270609 0 0.116775 0 0.134921)
(0.138591 -0.00305285 0 0.113691 0 0.134859)
(0.13914 -0.0033691 0 0.110761 0 0.134692)
(0.139577 -0.00366482 0 0.107989 0 0.134436)
(0.139909 -0.0039462 0 0.105375 0 0.134104)
(0.140146 -0.00421812 0 0.102913 0 0.133708)
(0.140298 -0.00448487 0 0.100598 0 0.133258)
(0.140374 -0.00474993 0 0.0984218 0 0.132766)
(0.140383 -0.00501593 0 0.0963765 0 0.132238)
(0.140335 -0.0052848 0 0.0944538 0 0.131683)
(0.140238 -0.0055579 0 0.0926455 0 0.131106)
(0.140098 -0.00583613 0 0.0909439 0 0.130513)
(0.139924 -0.00612006 0 0.0893416 0 0.12991)
(0.139722 -0.00640993 0 0.0878316 0 0.1293)
(0.139499 -0.00670579 0 0.0864076 0 0.128687)
(0.139258 -0.0070075 0 0.0850636 0 0.128076)
(0.139006 -0.00731475 0 0.0837944 0 0.127468)
(0.138746 -0.00762701 0 0.0825949 0 0.126865)
(0.138482 -0.00794364 0 0.0814605 0 0.126271)
(0.138216 -0.00826397 0 0.0803868 0 0.125686)
(0.137951 -0.00858731 0 0.07937 0 0.125111)
(0.137689 -0.00891299 0 0.0784065 0 0.124547)
(0.137431 -0.00924036 0 0.0774929 0 0.123996)
(0.137179 -0.00956875 0 0.0766261 0 0.123458)
(0.136935 -0.00989758 0 0.0758034 0 0.122933)
(0.136699 -0.0102262 0 0.0750221 0 0.122422)
(0.136473 -0.0105542 0 0.0742798 0 0.121925)
(0.136256 -0.0108818 0 0.0735743 0 0.121442)
(0.136048 -0.011212 0 0.0729095 0 0.12097)
(0.133619 -0.000369828 0 0.1308 0 0.133544)
(0.133991 -0.000663301 0 0.128074 0 0.133735)
(0.134406 -0.000892518 0 0.12533 0 0.133878)
(0.134816 -0.00111577 0 0.122628 0 0.133954)
(0.135171 -0.00133044 0 0.119999 0 0.133949)
(0.135456 -0.00152897 0 0.117457 0 0.133864)
(0.135675 -0.0017145 0 0.115011 0 0.133708)
(0.135829 -0.00189133 0 0.112667 0 0.133492)
(0.135921 -0.0020617 0 0.110427 0 0.133221)
(0.135955 -0.00222717 0 0.108289 0 0.132902)
(0.135937 -0.00238938 0 0.106251 0 0.132544)
(0.135871 -0.00254976 0 0.104309 0 0.132152)
(0.135763 -0.00270941 0 0.10246 0 0.131731)
(0.135616 -0.00286919 0 0.1007 0 0.131287)
(0.135437 -0.00302974 0 0.0990239 0 0.130823)
(0.13523 -0.00319153 0 0.0974283 0 0.130344)
(0.134997 -0.00335493 0 0.0959091 0 0.129854)
(0.134744 -0.00352015 0 0.0944623 0 0.129355)
(0.134473 -0.00368734 0 0.0930841 0 0.12885)
(0.134189 -0.00385654 0 0.0917707 0 0.128341)
(0.133892 -0.00402774 0 0.0905188 0 0.127831)
(0.133588 -0.00420085 0 0.0893251 0 0.127322)
(0.133276 -0.00437571 0 0.0881864 0 0.126814)
(0.132961 -0.0045521 0 0.0870999 0 0.12631)
(0.132642 -0.0047298 0 0.0860627 0 0.12581)
(0.132323 -0.00490854 0 0.0850722 0 0.125316)
(0.132003 -0.00508806 0 0.084126 0 0.124828)
(0.131685 -0.00526809 0 0.0832217 0 0.124347)
(0.131368 -0.00544835 0 0.0823572 0 0.123874)
(0.131055 -0.00562858 0 0.0815305 0 0.123408)
(0.130745 -0.00580859 0 0.0807396 0 0.122951)
(0.130439 -0.00598855 0 0.0799826 0 0.122502)
(0.13013 -0.00617048 0 0.0792564 0 0.122055)
(0.133352 -0.000209873 0 0.131145 0 0.133354)
(0.133395 -0.000362658 0 0.128832 0 0.133363)
(0.133482 -0.000470383 0 0.126515 0 0.13336)
(0.133596 -0.000577405 0 0.124223 0 0.133332)
(0.1337 -0.000684874 0 0.121982 0 0.133264)
(0.133773 -0.000786138 0 0.119805 0 0.133148)
(0.133812 -0.000882366 0 0.117697 0 0.132988)
(0.133817 -0.000976052 0 0.115663 0 0.132787)
(0.133785 -0.00106794 0 0.113705 0 0.132548)
(0.133718 -0.00115827 0 0.111824 0 0.132275)
(0.133619 -0.00124754 0 0.110018 0 0.131973)
(0.133489 -0.00133631 0 0.108287 0 0.131646)
(0.133331 -0.00142506 0 0.106628 0 0.131296)
(0.133148 -0.00151416 0 0.105039 0 0.130928)
(0.132944 -0.00160393 0 0.103517 0 0.130545)
(0.13272 -0.00169459 0 0.10206 0 0.130149)
(0.132478 -0.00178633 0 0.100665 0 0.129742)
(0.132222 -0.00187926 0 0.0993288 0 0.129328)
(0.131954 -0.00197345 0 0.0980493 0 0.128908)
(0.131674 -0.00206893 0 0.0968238 0 0.128483)
(0.131386 -0.00216567 0 0.0956496 0 0.128056)
(0.131091 -0.00226362 0 0.0945242 0 0.127627)
(0.13079 -0.00236271 0 0.0934455 0 0.127199)
(0.130486 -0.00246281 0 0.0924112 0 0.126771)
(0.130178 -0.00256379 0 0.0914191 0 0.126346)
(0.129868 -0.0026655 0 0.0904674 0 0.125923)
(0.129557 -0.00276778 0 0.089554 0 0.125504)
(0.129247 -0.00287045 0 0.0886773 0 0.12509)
(0.128936 -0.00297334 0 0.0878356 0 0.124679)
(0.128627 -0.00307627 0 0.0870273 0 0.124274)
(0.12832 -0.0031791 0 0.0862509 0 0.123875)
(0.128014 -0.00328192 0 0.0855045 0 0.12348)
(0.127703 -0.00338573 0 0.0847822 0 0.123084)
(0.133205 -0.000140177 0 0.131382 0 0.133226)
(0.133061 -0.000232369 0 0.129345 0 0.133103)
(0.132946 -0.000282038 0 0.127333 0 0.132982)
(0.132864 -0.000324942 0 0.12535 0 0.132859)
(0.132794 -0.000368657 0 0.123411 0 0.132722)
(0.132718 -0.000410442 0 0.121517 0 0.132562)
(0.132631 -0.00045108 0 0.119674 0 0.132378)
(0.132531 -0.000492166 0 0.117886 0 0.13217)
(0.132412 -0.000533932 0 0.116156 0 0.131939)
(0.132276 -0.000576188 0 0.114484 0 0.131685)
(0.13212 -0.000618984 0 0.112871 0 0.131411)
(0.131947 -0.000662494 0 0.111316 0 0.13112)
(0.131757 -0.000706858 0 0.109818 0 0.130813)
(0.131551 -0.000752177 0 0.108377 0 0.130492)
(0.131332 -0.000798529 0 0.10699 0 0.130159)
(0.131099 -0.000845973 0 0.105655 0 0.129817)
(0.130856 -0.000894539 0 0.104372 0 0.129467)
(0.130602 -0.000944235 0 0.103137 0 0.12911)
(0.130341 -0.000995045 0 0.10195 0 0.128749)
(0.130071 -0.00104693 0 0.100808 0 0.128384)
(0.129796 -0.00109985 0 0.0997094 0 0.128016)
(0.129516 -0.00115373 0 0.0986529 0 0.127647)
(0.129232 -0.00120849 0 0.0976365 0 0.127277)
(0.128945 -0.00126403 0 0.0966587 0 0.126908)
(0.128656 -0.00132026 0 0.0957177 0 0.126539)
(0.128365 -0.00137706 0 0.0948121 0 0.126173)
(0.128074 -0.0014343 0 0.0939405 0 0.125809)
(0.127782 -0.00149185 0 0.0931014 0 0.125448)
(0.127491 -0.00154958 0 0.0922936 0 0.125089)
(0.127201 -0.00160734 0 0.0915157 0 0.124735)
(0.126911 -0.00166499 0 0.0907665 0 0.124385)
(0.126623 -0.00172248 0 0.0900441 0 0.124037)
(0.12633 -0.00178024 0 0.0893412 0 0.123688)
(0.133111 -0.000104684 0 0.131554 0 0.133134)
(0.132855 -0.00017178 0 0.129711 0 0.132914)
(0.132611 -0.000199325 0 0.12791 0 0.1327)
(0.132395 -0.000213769 0 0.126146 0 0.132493)
(0.132197 -0.000225181 0 0.12442 0 0.132287)
(0.132007 -0.000233937 0 0.122734 0 0.132075)
(0.131821 -0.000241471 0 0.12109 0 0.131853)
(0.131635 -0.000249644 0 0.11949 0 0.131622)
(0.131444 -0.00025909 0 0.117937 0 0.131379)
(0.131248 -0.000269822 0 0.116431 0 0.131123)
(0.131043 -0.000281869 0 0.114973 0 0.130857)
(0.130831 -0.000295294 0 0.113563 0 0.130579)
(0.13061 -0.00031011 0 0.1122 0 0.130292)
(0.130382 -0.000326299 0 0.110884 0 0.129996)
(0.130146 -0.000343834 0 0.109614 0 0.129692)
(0.129903 -0.000362681 0 0.108388 0 0.129382)
(0.129654 -0.0003828 0 0.107205 0 0.129067)
(0.1294 -0.000404142 0 0.106065 0 0.128747)
(0.12914 -0.000426646 0 0.104965 0 0.128424)
(0.128877 -0.000450249 0 0.103904 0 0.128099)
(0.12861 -0.000474875 0 0.102881 0 0.127772)
(0.128341 -0.000500443 0 0.101895 0 0.127444)
(0.128069 -0.000526866 0 0.100944 0 0.127116)
(0.127796 -0.000554051 0 0.100026 0 0.126788)
(0.127522 -0.000581897 0 0.0991416 0 0.126462)
(0.127247 -0.000610298 0 0.0982882 0 0.126137)
(0.126973 -0.000639142 0 0.0974649 0 0.125814)
(0.126699 -0.000668308 0 0.0966707 0 0.125493)
(0.126425 -0.000697668 0 0.0959044 0 0.125175)
(0.126153 -0.000727085 0 0.095165 0 0.124859)
(0.125881 -0.000756404 0 0.0944513 0 0.124547)
(0.125611 -0.00078551 0 0.0937614 0 0.124238)
(0.125336 -0.00081453 0 0.0930874 0 0.123926)
(0.133044 -8.34489e-05 0 0.131686 0 0.133064)
(0.132713 -0.000139356 0 0.129984 0 0.132771)
(0.132385 -0.000160641 0 0.128336 0 0.132484)
(0.132077 -0.000164974 0 0.126732 0 0.132207)
(0.131788 -0.000162063 0 0.125169 0 0.131939)
(0.131511 -0.000154207 0 0.123646 0 0.131673)
(0.131245 -0.000143602 0 0.122162 0 0.131409)
(0.130986 -0.000132562 0 0.120717 0 0.131144)
(0.130733 -0.000122249 0 0.119311 0 0.130877)
(0.130482 -0.00011306 0 0.117945 0 0.130606)
(0.130231 -0.000105214 0 0.11662 0 0.130331)
(0.12998 -9.88647e-05 0 0.115334 0 0.130052)
(0.129728 -9.40754e-05 0 0.114089 0 0.129768)
(0.129474 -9.08434e-05 0 0.112882 0 0.129481)
(0.129218 -8.91366e-05 0 0.111715 0 0.12919)
(0.12896 -8.8906e-05 0 0.110585 0 0.128895)
(0.1287 -9.00882e-05 0 0.109492 0 0.128599)
(0.128439 -9.2609e-05 0 0.108436 0 0.128301)
(0.128176 -9.63863e-05 0 0.107414 0 0.128001)
(0.127912 -0.000101332 0 0.106426 0 0.1277)
(0.127647 -0.000107355 0 0.105472 0 0.127399)
(0.127382 -0.000114358 0 0.104549 0 0.127098)
(0.127117 -0.000122243 0 0.103657 0 0.126798)
(0.126851 -0.000130907 0 0.102795 0 0.126499)
(0.126587 -0.000140246 0 0.101962 0 0.126201)
(0.126322 -0.00015015 0 0.101157 0 0.125905)
(0.126059 -0.000160508 0 0.100379 0 0.125611)
(0.125797 -0.0001712 0 0.0996268 0 0.125319)
(0.125536 -0.000182099 0 0.0988997 0 0.12503)
(0.125277 -0.000193066 0 0.0981969 0 0.124744)
(0.12502 -0.000203941 0 0.0975173 0 0.124461)
(0.124764 -0.00021457 0 0.0968589 0 0.12418)
(0.124504 -0.000224837 0 0.0962136 0 0.123896)
(0.132993 -6.89348e-05 0 0.131791 0 0.133009)
(0.132608 -0.000118492 0 0.130196 0 0.132659)
(0.132222 -0.000139364 0 0.128663 0 0.132315)
(0.13185 -0.00014254 0 0.127177 0 0.131982)
(0.131494 -0.000136078 0 0.125736 0 0.13166)
(0.131152 -0.000122867 0 0.124335 0 0.131346)
(0.130823 -0.00010524 0 0.122972 0 0.131039)
(0.130505 -8.55724e-05 0 0.121645 0 0.130737)
(0.130197 -6.53514e-05 0 0.120355 0 0.130439)
(0.129896 -4.5336e-05 0 0.1191 0 0.130144)
(0.129602 -2.60126e-05 0 0.117882 0 0.129851)
(0.129313 -7.7263e-06 0 0.116698 0 0.129558)
(0.129028 9.31738e-06 0 0.11555 0 0.129267)
(0.128746 2.50185e-05 0 0.114436 0 0.128975)
(0.128467 3.93398e-05 0 0.113355 0 0.128684)
(0.12819 5.2284e-05 0 0.112308 0 0.128394)
(0.127915 6.38827e-05 0 0.111294 0 0.128104)
(0.127642 7.41888e-05 0 0.110311 0 0.127814)
(0.12737 8.32695e-05 0 0.109359 0 0.127525)
(0.1271 9.12017e-05 0 0.108438 0 0.127237)
(0.126831 9.80697e-05 0 0.107545 0 0.126951)
(0.126564 0.000103963 0 0.106681 0 0.126666)
(0.126299 0.000108975 0 0.105845 0 0.126383)
(0.126036 0.000113202 0 0.105035 0 0.126101)
(0.125774 0.000116746 0 0.104252 0 0.125822)
(0.125515 0.000119709 0 0.103493 0 0.125545)
(0.125258 0.0001222 0 0.102759 0 0.125271)
(0.125003 0.000124334 0 0.102048 0 0.125)
(0.12475 0.000126231 0 0.10136 0 0.124731)
(0.124499 0.000128026 0 0.100694 0 0.124465)
(0.124251 0.000129872 0 0.100049 0 0.124202)
(0.124005 0.000131936 0 0.0994229 0 0.123942)
(0.123756 0.000134472 0 0.0988079 0 0.12368)
(0.132951 -5.81053e-05 0 0.131876 0 0.132965)
(0.132525 -0.000102866 0 0.130368 0 0.132569)
(0.132097 -0.000124652 0 0.128922 0 0.13218)
(0.131679 -0.000129842 0 0.127527 0 0.131802)
(0.131275 -0.000124547 0 0.126178 0 0.131435)
(0.130884 -0.000111519 0 0.124871 0 0.13108)
(0.130506 -9.28898e-05 0 0.123603 0 0.130734)
(0.130141 -7.08543e-05 0 0.12237 0 0.130397)
(0.129788 -4.70085e-05 0 0.121173 0 0.130067)
(0.129445 -2.23299e-05 0 0.12001 0 0.129745)
(0.129112 2.50579e-06 0 0.11888 0 0.129428)
(0.128788 2.69972e-05 0 0.117782 0 0.129117)
(0.128471 5.08021e-05 0 0.116716 0 0.12881)
(0.128161 7.37048e-05 0 0.115682 0 0.128507)
(0.127858 9.55747e-05 0 0.114677 0 0.128207)
(0.127559 0.00011634 0 0.113703 0 0.127911)
(0.127265 0.000135973 0 0.112757 0 0.127618)
(0.126976 0.00015448 0 0.11184 0 0.127328)
(0.126692 0.000171891 0 0.110951 0 0.127041)
(0.126411 0.000188253 0 0.110088 0 0.126757)
(0.126134 0.000203629 0 0.109252 0 0.126476)
(0.12586 0.000218089 0 0.108441 0 0.126198)
(0.12559 0.000231712 0 0.107655 0 0.125923)
(0.125324 0.000244582 0 0.106893 0 0.125651)
(0.125061 0.000256791 0 0.106155 0 0.125382)
(0.124801 0.000268432 0 0.105439 0 0.125116)
(0.124545 0.000279606 0 0.104745 0 0.124854)
(0.124292 0.000290419 0 0.104073 0 0.124594)
(0.124042 0.000300983 0 0.103421 0 0.124339)
(0.123795 0.000311421 0 0.102789 0 0.124086)
(0.123552 0.000321873 0 0.102176 0 0.123837)
(0.123311 0.000332506 0 0.10158 0 0.12359)
(0.123069 0.000343653 0 0.100994 0 0.123343)
(0.132917 -4.95842e-05 0 0.131946 0 0.132928)
(0.132457 -9.00512e-05 0 0.130509 0 0.132494)
(0.131996 -0.000112417 0 0.129134 0 0.132068)
(0.131543 -0.000120114 0 0.12781 0 0.131654)
(0.131103 -0.000117561 0 0.126534 0 0.131252)
(0.130675 -0.00010714 0 0.125299 0 0.130861)
(0.13026 -9.06594e-05 0 0.124104 0 0.130482)
(0.129858 -6.99931e-05 0 0.122944 0 0.130113)
(0.129469 -4.66328e-05 0 0.12182 0 0.129754)
(0.129092 -2.15899e-05 0 0.120728 0 0.129405)
(0.128726 4.39901e-06 0 0.119668 0 0.129064)
(0.12837 3.07622e-05 0 0.118639 0 0.128731)
(0.128024 5.70761e-05 0 0.11764 0 0.128405)
(0.127688 8.30421e-05 0 0.11667 0 0.128085)
(0.127359 0.000108453 0 0.115729 0 0.127772)
(0.127039 0.000133169 0 0.114814 0 0.127465)
(0.126725 0.000157102 0 0.113927 0 0.127163)
(0.126419 0.000180208 0 0.113066 0 0.126866)
(0.126118 0.00020247 0 0.11223 0 0.126575)
(0.125824 0.000223899 0 0.111418 0 0.126287)
(0.125535 0.000244524 0 0.110631 0 0.126005)
(0.125252 0.000264385 0 0.109867 0 0.125727)
(0.124974 0.000283538 0 0.109126 0 0.125453)
(0.124701 0.000302045 0 0.108406 0 0.125183)
(0.124432 0.000319976 0 0.107709 0 0.124918)
(0.124168 0.00033741 0 0.107031 0 0.124657)
(0.123909 0.000354428 0 0.106375 0 0.1244)
(0.123654 0.000371122 0 0.105737 0 0.124146)
(0.123403 0.000387586 0 0.105119 0 0.123897)
(0.123156 0.000403926 0 0.104519 0 0.123652)
(0.122914 0.00042026 0 0.103936 0 0.123411)
(0.122674 0.000436743 0 0.103369 0 0.123172)
(0.122435 0.000453767 0 0.10281 0 0.122934)
(0.132888 -4.2653e-05 0 0.132006 0 0.132898)
(0.1324 -7.90769e-05 0 0.130628 0 0.132432)
(0.131912 -0.000101314 0 0.129311 0 0.131975)
(0.131432 -0.000111003 0 0.128045 0 0.131531)
(0.130964 -0.000111233 0 0.126826 0 0.131099)
(0.130508 -0.000103955 0 0.12565 0 0.130679)
(0.130064 -9.06496e-05 0 0.124512 0 0.130272)
(0.129633 -7.28434e-05 0 0.123411 0 0.129876)
(0.129215 -5.18391e-05 0 0.122344 0 0.129491)
(0.12881 -2.85887e-05 0 0.12131 0 0.129117)
(0.128416 -3.8146e-06 0 0.120307 0 0.128754)
(0.128034 2.19043e-05 0 0.119334 0 0.128399)
(0.127664 4.81166e-05 0 0.11839 0 0.128054)
(0.127303 7.44836e-05 0 0.117474 0 0.127717)
(0.126953 0.000100753 0 0.116584 0 0.127388)
(0.126612 0.000126741 0 0.115721 0 0.127067)
(0.126279 0.000152316 0 0.114883 0 0.126753)
(0.125955 0.00017739 0 0.114069 0 0.126446)
(0.125639 0.00020191 0 0.113279 0 0.126145)
(0.12533 0.000225849 0 0.112513 0 0.125851)
(0.125028 0.000249205 0 0.111768 0 0.125562)
(0.124733 0.000271989 0 0.111045 0 0.125279)
(0.124444 0.000294231 0 0.110343 0 0.125002)
(0.124162 0.000315968 0 0.109662 0 0.12473)
(0.123885 0.00033725 0 0.109001 0 0.124463)
(0.123615 0.000358134 0 0.108358 0 0.124201)
(0.123349 0.000378684 0 0.107735 0 0.123944)
(0.123089 0.000398972 0 0.107129 0 0.123692)
(0.122834 0.000419073 0 0.106541 0 0.123445)
(0.122585 0.000439071 0 0.10597 0 0.123202)
(0.12234 0.000459063 0 0.105415 0 0.122964)
(0.122099 0.000479181 0 0.104875 0 0.122729)
(0.121858 0.000499832 0 0.104341 0 0.122495)
(0.132863 -3.68835e-05 0 0.132057 0 0.132872)
(0.132351 -6.94932e-05 0 0.13073 0 0.132378)
(0.131841 -9.09663e-05 0 0.129461 0 0.131896)
(0.131339 -0.000101891 0 0.128243 0 0.131427)
(0.130848 -0.000104366 0 0.127072 0 0.13097)
(0.130369 -9.9944e-05 0 0.125942 0 0.130526)
(0.129902 -8.98287e-05 0 0.124852 0 0.130095)
(0.129449 -7.52498e-05 0 0.123797 0 0.129676)
(0.129008 -5.73088e-05 0 0.122777 0 0.129269)
(0.12858 -3.68557e-05 0 0.121789 0 0.128874)
(0.128164 -1.45528e-05 0 0.120831 0 0.12849)
(0.127761 9.0597e-06 0 0.119903 0 0.128116)
(0.127369 3.35475e-05 0 0.119003 0 0.127752)
(0.126988 5.85717e-05 0 0.11813 0 0.127399)
(0.126618 8.38701e-05 0 0.117283 0 0.127054)
(0.126258 0.000109241 0 0.116461 0 0.126718)
(0.125908 0.000134533 0 0.115664 0 0.126391)
(0.125568 0.000159634 0 0.114889 0 0.126071)
(0.125236 0.000184468 0 0.114138 0 0.125759)
(0.124913 0.000208984 0 0.113408 0 0.125455)
(0.124598 0.000233153 0 0.112699 0 0.125158)
(0.12429 0.000256967 0 0.112011 0 0.124867)
(0.123991 0.000280431 0 0.111342 0 0.124583)
(0.123698 0.000303563 0 0.110693 0 0.124306)
(0.123412 0.000326391 0 0.110063 0 0.124034)
(0.123133 0.000348953 0 0.109451 0 0.123768)
(0.12286 0.000371293 0 0.108856 0 0.123508)
(0.122593 0.000393461 0 0.108278 0 0.123254)
(0.122333 0.000415515 0 0.107717 0 0.123005)
(0.122078 0.000437515 0 0.107171 0 0.122761)
(0.121828 0.000459535 0 0.106641 0 0.122522)
(0.121584 0.00048169 0 0.106124 0 0.122287)
(0.12134 0.000504397 0 0.105613 0 0.122053)
(0.132842 -3.19931e-05 0 0.132101 0 0.132849)
(0.132309 -6.1037e-05 0 0.130818 0 0.132333)
(0.13178 -8.12921e-05 0 0.129591 0 0.131828)
(0.131259 -9.27607e-05 0 0.128414 0 0.131337)
(0.130749 -9.68258e-05 0 0.127282 0 0.13086)
(0.130251 -9.46949e-05 0 0.126192 0 0.130395)
(0.129766 -8.73425e-05 0 0.12514 0 0.129944)
(0.129294 -7.57555e-05 0 0.124124 0 0.129506)
(0.128835 -6.08481e-05 0 0.123142 0 0.12908)
(0.128389 -4.3358e-05 0 0.122191 0 0.128666)
(0.127955 -2.38728e-05 0 0.121271 0 0.128264)
(0.127534 -2.8778e-06 0 0.12038 0 0.127874)
(0.127124 1.92284e-05 0 0.119516 0 0.127494)
(0.126727 4.21262e-05 0 0.118678 0 0.127124)
(0.12634 6.55619e-05 0 0.117866 0 0.126765)
(0.125965 8.93348e-05 0 0.117079 0 0.126415)
(0.125599 0.000113288 0 0.116315 0 0.126074)
(0.125244 0.000137301 0 0.115573 0 0.125743)
(0.124899 0.000161286 0 0.114853 0 0.12542)
(0.124562 0.000185177 0 0.114155 0 0.125105)
(0.124235 0.000208931 0 0.113476 0 0.124798)
(0.123916 0.000232524 0 0.112817 0 0.124498)
(0.123605 0.000255945 0 0.112178 0 0.124206)
(0.123302 0.000279194 0 0.111556 0 0.123921)
(0.123007 0.000302284 0 0.110953 0 0.123643)
(0.122719 0.000325236 0 0.110366 0 0.123371)
(0.122438 0.000348075 0 0.109797 0 0.123106)
(0.122164 0.000370837 0 0.109243 0 0.122847)
(0.121896 0.000393558 0 0.108705 0 0.122594)
(0.121635 0.00041628 0 0.108182 0 0.122346)
(0.12138 0.000439054 0 0.107673 0 0.122105)
(0.121131 0.000461975 0 0.107177 0 0.121867)
(0.120883 0.00048544 0 0.106687 0 0.121631)
(0.132823 -2.77826e-05 0 0.13214 0 0.132829)
(0.132272 -5.35188e-05 0 0.130895 0 0.132293)
(0.131726 -7.22724e-05 0 0.129704 0 0.131769)
(0.131189 -8.37406e-05 0 0.128562 0 0.13126)
(0.130663 -8.88016e-05 0 0.127464 0 0.130764)
(0.13015 -8.83724e-05 0 0.126407 0 0.130282)
(0.12965 -8.32386e-05 0 0.125388 0 0.129814)
(0.129162 -7.4194e-05 0 0.124404 0 0.129359)
(0.128688 -6.19941e-05 0 0.123454 0 0.128917)
(0.128226 -4.72717e-05 0 0.122535 0 0.128487)
(0.127778 -3.05418e-05 0 0.121645 0 0.12807)
(0.127342 -1.22332e-05 0 0.120784 0 0.127665)
(0.126918 7.29725e-06 0 0.11995 0 0.12727)
(0.126506 2.77591e-05 0 0.119142 0 0.126887)
(0.126106 4.89178e-05 0 0.118359 0 0.126514)
(0.125717 7.05849e-05 0 0.117599 0 0.126152)
(0.125339 9.26102e-05 0 0.116863 0 0.125799)
(0.124971 0.000114876 0 0.116148 0 0.125456)
(0.124613 0.00013729 0 0.115454 0 0.125122)
(0.124265 0.000159786 0 0.114781 0 0.124797)
(0.123927 0.000182313 0 0.114128 0 0.12448)
(0.123597 0.000204838 0 0.113493 0 0.124172)
(0.123276 0.000227341 0 0.112877 0 0.123871)
(0.122964 0.000249813 0 0.112279 0 0.123578)
(0.122659 0.000272254 0 0.111698 0 0.123292)
(0.122363 0.000294673 0 0.111133 0 0.123014)
(0.122074 0.000317084 0 0.110584 0 0.122742)
(0.121792 0.000339506 0 0.110051 0 0.122477)
(0.121518 0.000361961 0 0.109533 0 0.122219)
(0.12125 0.000384475 0 0.109029 0 0.121967)
(0.12099 0.000407082 0 0.108538 0 0.12172)
(0.120734 0.000429861 0 0.10806 0 0.121479)
(0.120481 0.000453198 0 0.107587 0 0.12124)
(0.132807 -2.4106e-05 0 0.132174 0 0.132812)
(0.132239 -4.67858e-05 0 0.130962 0 0.132258)
(0.131678 -6.38814e-05 0 0.129804 0 0.131717)
(0.131127 -7.49516e-05 0 0.128692 0 0.131191)
(0.130588 -8.05254e-05 0 0.127624 0 0.13068)
(0.130062 -8.12825e-05 0 0.126595 0 0.130183)
(0.129548 -7.78499e-05 0 0.125604 0 0.1297)
(0.129047 -7.08667e-05 0 0.124648 0 0.129231)
(0.12856 -6.0954e-05 0 0.123725 0 0.128775)
(0.128086 -4.86498e-05 0 0.122832 0 0.128332)
(0.127625 -3.44007e-05 0 0.121969 0 0.127901)
(0.127177 -1.85816e-05 0 0.121133 0 0.127483)
(0.126741 -1.50728e-06 0 0.120324 0 0.127076)
(0.126318 1.65628e-05 0 0.119541 0 0.126681)
(0.125906 3.54166e-05 0 0.118781 0 0.126297)
(0.125506 5.48821e-05 0 0.118045 0 0.125923)
(0.125116 7.48199e-05 0 0.117332 0 0.12556)
(0.124738 9.51191e-05 0 0.11664 0 0.125206)
(0.12437 0.000115692 0 0.115968 0 0.124862)
(0.124012 0.000136471 0 0.115317 0 0.124528)
(0.123664 0.000157405 0 0.114684 0 0.124202)
(0.123325 0.000178457 0 0.11407 0 0.123885)
(0.122995 0.000199602 0 0.113474 0 0.123576)
(0.122674 0.000220825 0 0.112895 0 0.123275)
(0.122362 0.000242118 0 0.112333 0 0.122982)
(0.122057 0.00026348 0 0.111786 0 0.122697)
(0.121761 0.000284916 0 0.111256 0 0.122418)
(0.121473 0.000306434 0 0.11074 0 0.122147)
(0.121192 0.000328044 0 0.110238 0 0.121883)
(0.120918 0.00034976 0 0.10975 0 0.121625)
(0.120651 0.000371602 0 0.109276 0 0.121374)
(0.120391 0.000393631 0 0.108813 0 0.121128)
(0.120132 0.000416206 0 0.108355 0 0.120884)
(0.132792 -2.08533e-05 0 0.132204 0 0.132797)
(0.13221 -4.071e-05 0 0.131023 0 0.132227)
(0.131636 -5.60769e-05 0 0.129892 0 0.131671)
(0.131073 -6.64704e-05 0 0.128807 0 0.131131)
(0.130522 -7.2184e-05 0 0.127765 0 0.130606)
(0.129983 -7.37078e-05 0 0.126762 0 0.130096)
(0.129458 -7.15344e-05 0 0.125795 0 0.1296)
(0.128947 -6.61767e-05 0 0.124863 0 0.129118)
(0.128448 -5.81428e-05 0 0.123963 0 0.12865)
(0.127964 -4.7886e-05 0 0.123093 0 0.128195)
(0.127492 -3.57909e-05 0 0.122252 0 0.127753)
(0.127033 -2.21836e-05 0 0.121438 0 0.127323)
(0.126587 -7.33993e-06 0 0.12065 0 0.126906)
(0.126154 8.51008e-06 0 0.119887 0 0.1265)
(0.125732 2.5177e-05 0 0.119148 0 0.126106)
(0.125323 4.25057e-05 0 0.118432 0 0.125722)
(0.124924 6.03696e-05 0 0.117738 0 0.12535)
(0.124537 7.86666e-05 0 0.117065 0 0.124987)
(0.12416 9.73153e-05 0 0.116412 0 0.124634)
(0.123793 0.000116252 0 0.115778 0 0.124291)
(0.123437 0.000135426 0 0.115163 0 0.123957)
(0.12309 0.000154801 0 0.114567 0 0.123632)
(0.122752 0.00017435 0 0.113987 0 0.123316)
(0.122424 0.000194054 0 0.113424 0 0.123008)
(0.122105 0.000213901 0 0.112878 0 0.122708)
(0.121794 0.000233884 0 0.112347 0 0.122416)
(0.121491 0.000254002 0 0.11183 0 0.122131)
(0.121196 0.000274255 0 0.111329 0 0.121854)
(0.120909 0.000294645 0 0.110841 0 0.121584)
(0.12063 0.000315175 0 0.110367 0 0.121321)
(0.120357 0.000335857 0 0.109906 0 0.121065)
(0.120092 0.000356743 0 0.109456 0 0.120814)
(0.119828 0.000378168 0 0.10901 0 0.120565)
(0.132779 -1.79397e-05 0 0.13223 0 0.132783)
(0.132184 -3.51824e-05 0 0.131076 0 0.132199)
(0.131598 -4.88042e-05 0 0.129971 0 0.13163)
(0.131024 -5.83322e-05 0 0.12891 0 0.131077)
(0.130462 -6.3905e-05 0 0.127891 0 0.13054)
(0.129914 -6.58648e-05 0 0.12691 0 0.130018)
(0.129379 -6.45913e-05 0 0.125965 0 0.129511)
(0.128857 -6.0492e-05 0 0.125053 0 0.129018)
(0.128349 -5.39793e-05 0 0.124173 0 0.128539)
(0.127855 -4.5431e-05 0 0.123323 0 0.128074)
(0.127375 -3.51744e-05 0 0.122502 0 0.127622)
(0.126907 -2.34906e-05 0 0.121707 0 0.127182)
(0.126452 -1.06191e-05 0 0.120937 0 0.126756)
(0.12601 3.2384e-06 0 0.120193 0 0.126341)
(0.12558 1.79144e-05 0 0.119471 0 0.125937)
(0.125162 3.32705e-05 0 0.118772 0 0.125545)
(0.124756 4.91932e-05 0 0.118094 0 0.125164)
(0.124361 6.559e-05 0 0.117437 0 0.124794)
(0.123976 8.23864e-05 0 0.1168 0 0.124433)
(0.123603 9.95227e-05 0 0.116182 0 0.124082)
(0.123239 0.000116952 0 0.115582 0 0.123741)
(0.122886 0.000134638 0 0.114999 0 0.123409)
(0.122542 0.000152553 0 0.114434 0 0.123086)
(0.122207 0.000170677 0 0.113885 0 0.122772)
(0.121881 0.000188994 0 0.113352 0 0.122465)
(0.121564 0.000207495 0 0.112833 0 0.122167)
(0.121256 0.000226172 0 0.11233 0 0.121877)
(0.120956 0.00024502 0 0.111841 0 0.121595)
(0.120663 0.000264035 0 0.111365 0 0.121319)
(0.120379 0.000283214 0 0.110902 0 0.121051)
(0.120102 0.00030256 0 0.110452 0 0.12079)
(0.119832 0.000322114 0 0.110013 0 0.120535)
(0.119564 0.000342183 0 0.109578 0 0.120281)
(0.132767 -1.52986e-05 0 0.132254 0 0.132771)
(0.13216 -3.01106e-05 0 0.131125 0 0.132174)
(0.131564 -4.20027e-05 0 0.130042 0 0.131594)
(0.13098 -5.05409e-05 0 0.129003 0 0.131029)
(0.130408 -5.57655e-05 0 0.128004 0 0.130481)
(0.129851 -5.79054e-05 0 0.127043 0 0.129948)
(0.129307 -5.7246e-05 0 0.126117 0 0.129431)
(0.128777 -5.41064e-05 0 0.125224 0 0.128928)
(0.128261 -4.88168e-05 0 0.124362 0 0.12844)
(0.127759 -4.16873e-05 0 0.123529 0 0.127966)
(0.12727 -3.29927e-05 0 0.122724 0 0.127505)
(0.126795 -2.29718e-05 0 0.121946 0 0.127057)
(0.126332 -1.18306e-05 0 0.121193 0 0.126622)
(0.125883 2.56076e-07 0 0.120463 0 0.126199)
(0.125446 1.31414e-05 0 0.119757 0 0.125788)
(0.125021 2.67032e-05 0 0.119073 0 0.125388)
(0.124608 4.08403e-05 0 0.118409 0 0.125)
(0.124206 5.54697e-05 0 0.117766 0 0.124622)
(0.123815 7.05236e-05 0 0.117142 0 0.124255)
(0.123435 8.59472e-05 0 0.116537 0 0.123897)
(0.123066 0.000101697 0 0.11595 0 0.12355)