/*--------------------------------*- C++ -*----------------------------------*\
| =========                 |                                                 |
| \\      /  F ield         | OpenFOAM: The Open Source CFD Toolbox           |
|  \\    /   O peration     | Version:  4.1                                   |
|   \\  /    A nd           | Web:      www.OpenFOAM.org                      |
|    \\/     M anipulation  |                                                 |
\*---------------------------------------------------------------------------*/
FoamFile
{
    version     2.0;
    format      ascii;
    class       volVectorField;
    location    "500";
    object      U;
}
// * * * * * * * * * * * * * * * * * * * * * * * * * * * * * * * * * * * * * //

dimensions      [0 1 -1 0 0 0 0];

internalField   nonuniform List<vector> 
6820
(
(7.2813 0.0192598 0)
(7.18936 0.0329209 0)
(7.08952 0.0360663 0)
(6.98494 0.037469 0)
(6.88231 0.0387292 0)
(6.78318 0.0397489 0)
(6.68728 0.0405076 0)
(6.59486 0.04102 0)
(6.50636 0.0412601 0)
(6.42198 0.0412059 0)
(6.34171 0.0408638 0)
(6.26546 0.040261 0)
(6.19312 0.039433 0)
(6.12458 0.0384173 0)
(6.05966 0.0372506 0)
(5.9982 0.0359667 0)
(5.94005 0.0345959 0)
(5.88503 0.0331645 0)
(5.833 0.0316945 0)
(5.78381 0.0302043 0)
(5.7373 0.0287088 0)
(5.69336 0.0272202 0)
(5.65184 0.0257478 0)
(5.61265 0.024299 0)
(5.57565 0.0228791 0)
(5.54075 0.0214924 0)
(5.50784 0.0201412 0)
(5.47685 0.0188299 0)
(5.44765 0.0175503 0)
(5.42032 0.0163336 0)
(5.39413 0.0151123 0)
(5.37181 0.0138601 0)
(5.3453 0.0139306 0)
(7.35129 0.0206767 0)
(7.39587 0.0322587 0)
(7.42787 0.032631 0)
(7.44987 0.0331952 0)
(7.4674 0.0343512 0)
(7.48119 0.0351333 0)
(7.49065 0.0355052 0)
(7.49595 0.0356376 0)
(7.49765 0.0355907 0)
(7.49625 0.0353852 0)
(7.49212 0.0350547 0)
(7.48562 0.0346368 0)
(7.47714 0.0341614 0)
(7.467 0.0336485 0)
(7.45548 0.0331121 0)
(7.44286 0.032562 0)
(7.42934 0.0320046 0)
(7.41512 0.031444 0)
(7.40036 0.0308823 0)
(7.38521 0.0303207 0)
(7.36978 0.0297596 0)
(7.35418 0.0291989 0)
(7.3385 0.0286384 0)
(7.32281 0.0280774 0)
(7.30716 0.0275154 0)
(7.29163 0.0269518 0)
(7.27624 0.026385 0)
(7.26104 0.0258186 0)
(7.24606 0.0252355 0)
(7.23134 0.0246956 0)
(7.21692 0.0239865 0)
(7.20256 0.0237404 0)
(7.18967 0.0218696 0)
(7.33498 0.0124963 0)
(7.34478 0.0201443 0)
(7.35181 0.0214371 0)
(7.35497 0.0233048 0)
(7.35734 0.0252163 0)
(7.35982 0.0263697 0)
(7.36204 0.0270041 0)
(7.36389 0.0274374 0)
(7.36554 0.0277706 0)
(7.36704 0.0280216 0)
(7.36836 0.0282086 0)
(7.36947 0.0283494 0)
(7.37033 0.0284529 0)
(7.37095 0.0285211 0)
(7.37132 0.0285538 0)
(7.37141 0.0285509 0)
(7.37125 0.0285126 0)
(7.37081 0.0284388 0)
(7.37012 0.0283301 0)
(7.36917 0.0281873 0)
(7.36799 0.0280114 0)
(7.36657 0.0278037 0)
(7.36493 0.0275654 0)
(7.3631 0.0272981 0)
(7.36107 0.027003 0)
(7.35887 0.0266816 0)
(7.35651 0.0263347 0)
(7.35401 0.0259643 0)
(7.35139 0.0255693 0)
(7.34866 0.0251525 0)
(7.34583 0.0247138 0)
(7.3429 0.0242008 0)
(7.34001 0.0237869 0)
(7.3347 0.00985628 0)
(7.34304 0.0202348 0)
(7.35045 0.0247306 0)
(7.35469 0.0280571 0)
(7.3578 0.0307746 0)
(7.36081 0.0326749 0)
(7.36347 0.0340096 0)
(7.3657 0.0350261 0)
(7.36764 0.035793 0)
(7.3694 0.0363199 0)
(7.37099 0.0366308 0)
(7.37243 0.0367592 0)
(7.37373 0.0367353 0)
(7.37493 0.0365844 0)
(7.37602 0.0363291 0)
(7.37703 0.0359894 0)
(7.37795 0.0355825 0)
(7.3788 0.0351229 0)
(7.37958 0.0346222 0)
(7.3803 0.0340898 0)
(7.38095 0.0335333 0)
(7.38155 0.0329584 0)
(7.38211 0.0323696 0)
(7.38261 0.0317703 0)
(7.38308 0.0311626 0)
(7.3835 0.0305482 0)
(7.3839 0.0299277 0)
(7.38427 0.0293025 0)
(7.38461 0.0286694 0)
(7.38494 0.0280356 0)
(7.38526 0.0273841 0)
(7.38556 0.026743 0)
(7.38586 0.026117 0)
(7.33417 0.00784654 0)
(7.3405 0.0172811 0)
(7.34712 0.0212367 0)
(7.35172 0.0237286 0)
(7.3555 0.0258321 0)
(7.35923 0.0273584 0)
(7.36273 0.0283873 0)
(7.36585 0.029115 0)
(7.36872 0.0296325 0)
(7.37142 0.0299734 0)
(7.37396 0.0301724 0)
(7.37635 0.0302656 0)
(7.3786 0.0302799 0)
(7.38074 0.0302335 0)
(7.38277 0.0301393 0)
(7.3847 0.0300068 0)
(7.38654 0.0298429 0)
(7.3883 0.0296522 0)
(7.38999 0.0294377 0)
(7.39161 0.0292014 0)
(7.39317 0.0289446 0)
(7.39467 0.028668 0)
(7.39613 0.0283719 0)
(7.39754 0.0280565 0)
(7.39892 0.0277214 0)
(7.40027 0.0273663 0)
(7.40158 0.0269906 0)
(7.40288 0.0265939 0)
(7.40416 0.0261747 0)
(7.40543 0.0257338 0)
(7.4067 0.0252693 0)
(7.40796 0.0247859 0)
(7.40926 0.024302 0)
(7.33381 0.00630599 0)
(7.33862 0.0150469 0)
(7.34442 0.0196641 0)
(7.34905 0.0228955 0)
(7.35297 0.025638 0)
(7.35679 0.0277242 0)
(7.36041 0.0292256 0)
(7.36374 0.030355 0)
(7.36684 0.0312249 0)
(7.36978 0.0318755 0)
(7.37258 0.0323387 0)
(7.37524 0.0326465 0)
(7.37778 0.0328239 0)
(7.3802 0.0328899 0)
(7.38253 0.0328598 0)
(7.38476 0.0327473 0)
(7.38691 0.0325639 0)
(7.38899 0.0323196 0)
(7.391 0.0320229 0)
(7.39295 0.0316808 0)
(7.39484 0.0312993 0)
(7.39669 0.0308832 0)
(7.39849 0.0304366 0)
(7.40026 0.0299626 0)
(7.40199 0.0294635 0)
(7.4037 0.0289411 0)
(7.40538 0.0283964 0)
(7.40705 0.0278301 0)
(7.4087 0.0272419 0)
(7.41034 0.0266324 0)
(7.41198 0.0260012 0)
(7.41363 0.0253478 0)
(7.4153 0.0246844 0)
(7.33356 0.00519034 0)
(7.33722 0.013145 0)
(7.34216 0.0178382 0)
(7.34648 0.0209931 0)
(7.35025 0.0234807 0)
(7.35393 0.0253167 0)
(7.35749 0.0266002 0)
(7.36083 0.0275248 0)
(7.36397 0.0281988 0)
(7.36696 0.0286654 0)
(7.36983 0.0289597 0)
(7.37258 0.0291167 0)
(7.37522 0.0291649 0)
(7.37776 0.0291256 0)
(7.38021 0.0290156 0)
(7.38258 0.0288483 0)
(7.38487 0.0286345 0)
(7.3871 0.0283824 0)
(7.38927 0.0280982 0)
(7.39137 0.0277864 0)
(7.39343 0.0274502 0)
(7.39545 0.027092 0)
(7.39742 0.0267131 0)
(7.39936 0.0263143 0)
(7.40126 0.0258957 0)
(7.40314 0.0254569 0)
(7.405 0.0249971 0)
(7.40684 0.0245153 0)
(7.40866 0.0240098 0)
(7.41047 0.0234788 0)
(7.41228 0.0229205 0)
(7.4141 0.0223298 0)
(7.41593 0.0217092 0)
(7.33341 0.00435111 0)
(7.33622 0.0115039 0)
(7.34039 0.0161658 0)
(7.3444 0.0194121 0)
(7.34804 0.0220125 0)
(7.35161 0.0240416 0)
(7.3551 0.0255582 0)
(7.35842 0.0267101 0)
(7.36156 0.0275964 0)
(7.36458 0.0282638 0)
(7.36748 0.0287477 0)
(7.37026 0.0290815 0)
(7.37295 0.0292917 0)
(7.37553 0.0293976 0)
(7.37803 0.0294146 0)
(7.38046 0.0293552 0)
(7.3828 0.0292296 0)
(7.38509 0.029046 0)
(7.38731 0.0288111 0)
(7.38947 0.0285305 0)
(7.39159 0.0282085 0)
(7.39366 0.0278488 0)
(7.39569 0.027454 0)
(7.39768 0.0270264 0)
(7.39965 0.0265674 0)
(7.40158 0.0260779 0)
(7.40349 0.0255582 0)
(7.40539 0.0250082 0)
(7.40726 0.0244271 0)
(7.40913 0.0238133 0)
(7.41099 0.0231647 0)
(7.41285 0.0224765 0)
(7.41471 0.021747 0)
(7.3333 0.00370783 0)
(7.3355 0.0101171 0)
(7.33903 0.0146385 0)
(7.34268 0.0178695 0)
(7.34611 0.0204161 0)
(7.34949 0.0223897 0)
(7.35284 0.023849 0)
(7.35605 0.0249273 0)
(7.35913 0.0257278 0)
(7.3621 0.0263045 0)
(7.36496 0.026696 0)
(7.36773 0.0269368 0)
(7.37041 0.0270548 0)
(7.373 0.0270714 0)
(7.37551 0.0270035 0)
(7.37794 0.026865 0)
(7.38031 0.0266672 0)
(7.38262 0.0264192 0)
(7.38487 0.0261281 0)
(7.38707 0.0257996 0)
(7.38922 0.025438 0)
(7.39133 0.0250465 0)
(7.3934 0.0246272 0)
(7.39543 0.0241818 0)
(7.39744 0.0237107 0)
(7.39941 0.0232142 0)
(7.40136 0.0226917 0)
(7.40329 0.022142 0)
(7.4052 0.0215634 0)
(7.4071 0.0209532 0)
(7.40899 0.0203082 0)
(7.41087 0.0196223 0)
(7.41275 0.018892 0)
(7.33324 0.00320289 0)
(7.33498 0.00893448 0)
(7.33797 0.0132357 0)
(7.34127 0.0164033 0)
(7.34448 0.0189047 0)
(7.34769 0.0208784 0)
(7.35089 0.0223849 0)
(7.35401 0.023533 0)
(7.35703 0.0244137 0)
(7.35995 0.0250781 0)
(7.36279 0.0255618 0)
(7.36553 0.0258964 0)
(7.3682 0.0261078 0)
(7.37078 0.0262159 0)
(7.3733 0.0262361 0)
(7.37574 0.0261812 0)
(7.37811 0.0260612 0)
(7.38043 0.0258842 0)
(7.38269 0.0256568 0)
(7.3849 0.0253838 0)
(7.38706 0.0250693 0)
(7.38918 0.0247163 0)
(7.39126 0.024327 0)
(7.3933 0.0239029 0)
(7.39531 0.0234449 0)
(7.39728 0.0229534 0)
(7.39924 0.0224281 0)
(7.40117 0.0218682 0)
(7.40307 0.0212722 0)
(7.40496 0.0206379 0)
(7.40683 0.0199623 0)
(7.40869 0.0192401 0)
(7.41054 0.0184689 0)
(7.33319 0.00279587 0)
(7.3346 0.00792012 0)
(7.33715 0.0119581 0)
(7.34011 0.0150229 0)
(7.3431 0.0174532 0)
(7.34612 0.0193847 0)
(7.34917 0.0208731 0)
(7.35216 0.022006 0)
(7.35508 0.0228649 0)
(7.35793 0.0235017 0)
(7.3607 0.0239532 0)
(7.36339 0.0242511 0)
(7.36602 0.0244217 0)
(7.36857 0.0244857 0)
(7.37105 0.0244593 0)
(7.37347 0.0243559 0)
(7.37583 0.0241864 0)
(7.37813 0.0239597 0)
(7.38038 0.0236829 0)
(7.38258 0.0233615 0)
(7.38473 0.023 0)
(7.38684 0.0226018 0)
(7.38892 0.0221694 0)
(7.39095 0.0217045 0)
(7.39296 0.0212081 0)
(7.39493 0.0206805 0)
(7.39687 0.0201214 0)
(7.39879 0.0195299 0)
(7.40069 0.0189044 0)
(7.40256 0.0182425 0)
(7.40442 0.0175413 0)
(7.40625 0.016796 0)
(7.40807 0.0160044 0)
(7.33316 0.00245952 0)
(7.33432 0.00704236 0)
(7.3365 0.0107939 0)
(7.33916 0.0137221 0)
(7.34194 0.0160613 0)
(7.34477 0.017936 0)
(7.34766 0.019402 0)
(7.35053 0.0205328 0)
(7.35336 0.0214012 0)
(7.35612 0.0220569 0)
(7.35883 0.0225354 0)
(7.36148 0.0228662 0)
(7.36406 0.0230737 0)
(7.36658 0.0231775 0)
(7.36904 0.0231928 0)
(7.37144 0.0231321 0)
(7.37378 0.0230054 0)
(7.37607 0.0228208 0)
(7.3783 0.0225847 0)
(7.38049 0.0223021 0)
(7.38264 0.021977 0)
(7.38474 0.0216121 0)
(7.3868 0.0212098 0)
(7.38882 0.0207714 0)
(7.39081 0.0202976 0)
(7.39277 0.0197887 0)
(7.3947 0.0192442 0)
(7.3966 0.0186634 0)
(7.39847 0.0180448 0)
(7.40032 0.0173863 0)
(7.40214 0.0166855 0)
(7.40393 0.0159384 0)
(7.4057 0.0151442 0)
(7.33314 0.00217507 0)
(7.33411 0.00627476 0)
(7.33599 0.00973166 0)
(7.33839 0.012499 0)
(7.34095 0.0147312 0)
(7.34361 0.0165341 0)
(7.34634 0.0179599 0)
(7.34908 0.0190683 0)
(7.3518 0.0199213 0)
(7.35448 0.0205646 0)
(7.35712 0.0210317 0)
(7.3597 0.0213503 0)
(7.36223 0.0215439 0)
(7.3647 0.0216315 0)
(7.36711 0.0216281 0)
(7.36947 0.0215462 0)
(7.37178 0.0213959 0)
(7.37404 0.0211854 0)
(7.37625 0.0209214 0)
(7.37841 0.0206092 0)
(7.38053 0.0202531 0)
(7.3826 0.0198561 0)
(7.38464 0.0194209 0)
(7.38664 0.0189491 0)
(7.38861 0.0184417 0)
(7.39054 0.0178993 0)
(7.39244 0.0173217 0)
(7.39431 0.0167085 0)
(7.39615 0.0160585 0)
(7.39796 0.0153701 0)
(7.39974 0.0146415 0)
(7.4015 0.0138697 0)
(7.40322 0.0130546 0)
(7.33312 0.00192951 0)
(7.33395 0.00559607 0)
(7.33559 0.00875962 0)
(7.33774 0.011349 0)
(7.34011 0.01346 0)
(7.3426 0.0151778 0)
(7.34518 0.0165497 0)
(7.3478 0.0176257 0)
(7.35041 0.0184585 0)
(7.353 0.0190907 0)
(7.35556 0.0195538 0)
(7.35808 0.019874 0)
(7.36055 0.0200736 0)
(7.36298 0.0201706 0)
(7.36535 0.0201794 0)
(7.36768 0.0201117 0)
(7.36995 0.0199772 0)
(7.37218 0.0197837 0)
(7.37437 0.0195374 0)
(7.3765 0.0192433 0)
(7.3786 0.0189052 0)
(7.38065 0.0185261 0)
(7.38267 0.0181082 0)
(7.38464 0.017653 0)
(7.38658 0.0171614 0)
(7.38849 0.0166337 0)
(7.39036 0.0160699 0)
(7.3922 0.0154694 0)
(7.39401 0.0148313 0)
(7.39578 0.0141545 0)
(7.39752 0.0134374 0)
(7.39923 0.0126777 0)
(7.4009 0.0118762 0)
(7.33311 0.00171368 0)
(7.33382 0.00498926 0)
(7.33527 0.00786632 0)
(7.33721 0.0102666 0)
(7.3394 0.0122451 0)
(7.34173 0.0138668 0)
(7.34417 0.0151733 0)
(7.34666 0.0162059 0)
(7.34917 0.0170089 0)
(7.35167 0.0176199 0)
(7.35415 0.018068 0)
(7.3566 0.018377 0)
(7.35901 0.0185673 0)
(7.36138 0.0186558 0)
(7.36371 0.018656 0)
(7.36599 0.0185792 0)
(7.36823 0.0184346 0)
(7.37042 0.0182296 0)
(7.37257 0.0179704 0)
(7.37467 0.0176619 0)
(7.37673 0.017308 0)
(7.37875 0.0169117 0)
(7.38073 0.0164754 0)
(7.38268 0.0160006 0)
(7.38458 0.0154886 0)
(7.38645 0.0149399 0)
(7.38829 0.0143548 0)
(7.39009 0.0137332 0)
(7.39185 0.0130746 0)
(7.39358 0.0123783 0)
(7.39528 0.0116435 0)
(7.39693 0.0108688 0)
(7.39856 0.0100556 0)
(7.3331 0.00152096 0)
(7.33372 0.00444079 0)
(7.335 0.00704116 0)
(7.33677 0.00924599 0)
(7.33879 0.0110828 0)
(7.34097 0.0125992 0)
(7.34328 0.01383 0)
(7.34565 0.0148093 0)
(7.34806 0.0155744 0)
(7.35047 0.016158 0)
(7.35287 0.0165866 0)
(7.35525 0.0168823 0)
(7.35761 0.0170639 0)
(7.35992 0.0171471 0)
(7.3622 0.0171449 0)
(7.36444 0.0170678 0)
(7.36664 0.0169247 0)
(7.36879 0.0167227 0)
(7.3709 0.0164676 0)
(7.37297 0.0161641 0)
(7.375 0.0158159 0)
(7.37699 0.015426 0)
(7.37894 0.0149966 0)
(7.38085 0.0145293 0)
(7.38272 0.0140252 0)
(7.38456 0.0134849 0)
(7.38636 0.0129088 0)
(7.38812 0.012297 0)
(7.38985 0.011649 0)
(7.39154 0.0109647 0)
(7.39319 0.0102436 0)
(7.3948 0.00948461 0)
(7.39637 0.00868972 0)
(7.3331 0.0013465 0)
(7.33365 0.00393981 0)
(7.33479 0.00627449 0)
(7.3364 0.008281 0)
(7.33827 0.00996932 0)
(7.34032 0.0113726 0)
(7.3425 0.0125189 0)
(7.34476 0.0134364 0)
(7.34707 0.0141558 0)
(7.34939 0.0147054 0)
(7.35172 0.0151086 0)
(7.35403 0.0153854 0)
(7.35632 0.0155527 0)
(7.35858 0.0156248 0)
(7.36081 0.0156137 0)
(7.363 0.0155291 0)
(7.36516 0.0153792 0)
(7.36727 0.0151707 0)
(7.36934 0.0149091 0)
(7.37137 0.0145988 0)
(7.37336 0.0142434 0)
(7.37532 0.0138458 0)
(7.37723 0.0134081 0)
(7.3791 0.0129321 0)
(7.38094 0.0124189 0)
(7.38273 0.0118693 0)
(7.38449 0.0112841 0)
(7.38621 0.0106634 0)
(7.38789 0.0100073 0)
(7.38953 0.00931599 0)
(7.39114 0.00858952 0)
(7.3927 0.00782753 0)
(7.39422 0.00703232 0)
(7.33309 0.00118661 0)
(7.33358 0.00347763 0)
(7.33461 0.00555765 0)
(7.33609 0.00736543 0)
(7.33783 0.00890023 0)
(7.33975 0.0101839 0)
(7.34181 0.0112384 0)
(7.34397 0.0120864 0)
(7.34618 0.0127531 0)
(7.34842 0.0132624 0)
(7.35067 0.013635 0)
(7.35292 0.0138886 0)
(7.35515 0.0140383 0)
(7.35736 0.0140972 0)
(7.35954 0.0140762 0)
(7.36168 0.0139844 0)
(7.36379 0.0138294 0)
(7.36586 0.0136175 0)
(7.36789 0.0133539 0)
(7.36989 0.0130429 0)
(7.37184 0.0126878 0)
(7.37376 0.0122914 0)
(7.37563 0.0118559 0)
(7.37747 0.0113829 0)
(7.37927 0.0108739 0)
(7.38103 0.0103296 0)
(7.38274 0.0097509 0)
(7.38442 0.00913817 0)
(7.38606 0.00849183 0)
(7.38766 0.00781217 0)
(7.38922 0.00709965 0)
(7.39073 0.00635415 0)
(7.3922 0.00557816 0)
(7.33309 0.00103842 0)
(7.33353 0.00304712 0)
(7.33447 0.0048829 0)
(7.33583 0.00649311 0)
(7.33745 0.00787095 0)
(7.33926 0.00902982 0)
(7.34122 0.00998613 0)
(7.34328 0.010758 0)
(7.3454 0.0113656 0)
(7.34756 0.0118291 0)
(7.34974 0.0121661 0)
(7.35192 0.0123921 0)
(7.35409 0.0125205 0)
(7.35624 0.0125629 0)
(7.35837 0.0125291 0)
(7.36047 0.0124273 0)
(7.36253 0.0122646 0)
(7.36456 0.0120465 0)
(7.36655 0.0117779 0)
(7.36851 0.0114627 0)
(7.37042 0.0111041 0)
(7.3723 0.0107048 0)
(7.37414 0.0102668 0)
(7.37593 0.00979175 0)
(7.37769 0.00928104 0)
(7.37941 0.0087357 0)
(7.38108 0.00815657 0)
(7.38272 0.00754434 0)
(7.38431 0.00689963 0)
(7.38586 0.00622299 0)
(7.38737 0.00551518 0)
(7.38884 0.0047765 0)
(7.39026 0.0040096 0)
(7.33308 0.000899642 0)
(7.33349 0.00264237 0)
(7.33435 0.0042433 0)
(7.33561 0.00565798 0)
(7.33713 0.00687661 0)
(7.33884 0.00790652 0)
(7.3407 0.00875939 0)
(7.34267 0.00944925 0)
(7.34471 0.00999223 0)
(7.34679 0.0104047 0)
(7.3489 0.0107015 0)
(7.35102 0.010896 0)
(7.35313 0.0109998 0)
(7.35523 0.0110231 0)
(7.35731 0.0109745 0)
(7.35936 0.0108614 0)
(7.36138 0.0106901 0)
(7.36337 0.0104658 0)
(7.36532 0.0101929 0)
(7.36723 0.00987508 0)
(7.36911 0.00951531 0)
(7.37095 0.00911611 0)
(7.37274 0.00867952 0)
(7.3745 0.00820721 0)
(7.37622 0.00770058 0)
(7.37789 0.00716075 0)
(7.37953 0.0065887 0)
(7.38112 0.00598529 0)
(7.38267 0.00535132 0)
(7.38418 0.00468755 0)
(7.38565 0.00399494 0)
(7.38707 0.00327395 0)
(7.38844 0.00252728 0)
(7.33308 0.000768357 0)
(7.33345 0.00225834 0)
(7.33425 0.00363256 0)
(7.33543 0.00485409 0)
(7.33686 0.00591213 0)
(7.33848 0.00680975 0)
(7.34025 0.00755477 0)
(7.34214 0.00815766 0)
(7.3441 0.00863098 0)
(7.34612 0.00898777 0)
(7.34816 0.00924031 0)
(7.35022 0.00939968 0)
(7.35228 0.00947579 0)
(7.35432 0.00947732 0)
(7.35635 0.00941183 0)
(7.35836 0.00928577 0)
(7.36033 0.00910463 0)
(7.36228 0.00887308 0)
(7.36419 0.00859506 0)
(7.36606 0.00827386 0)
(7.3679 0.00791225 0)
(7.3697 0.00751253 0)
(7.37145 0.00707664 0)
(7.37317 0.00660618 0)
(7.37485 0.00610252 0)
(7.37648 0.00556683 0)
(7.37808 0.00500017 0)
(7.37963 0.00440349 0)
(7.38114 0.00377771 0)
(7.3826 0.00312375 0)
(7.38402 0.0024427 0)
(7.38539 0.00173523 0)
(7.38673 0.00100408 0)
(7.33308 0.000642914 0)
(7.33342 0.00189058 0)
(7.33417 0.00304483 0)
(7.33528 0.00407558 0)
(7.33663 0.0049722 0)
(7.33818 0.00573495 0)
(7.33987 0.0063685 0)
(7.34169 0.00688031 0)
(7.34358 0.00727976 0)
(7.34553 0.00757693 0)
(7.34751 0.00778158 0)
(7.34952 0.0079027 0)
(7.35152 0.00794845 0)
(7.35352 0.00792608 0)
(7.3555 0.00784197 0)
(7.35746 0.00770164 0)
(7.35939 0.00750985 0)
(7.36129 0.00727067 0)
(7.36316 0.00698759 0)
(7.365 0.00666357 0)
(7.36679 0.00630113 0)
(7.36855 0.0059024 0)
(7.37027 0.00546923 0)
(7.37195 0.00500317 0)
(7.37359 0.00450561 0)
(7.37518 0.00397776 0)
(7.37673 0.00342073 0)
(7.37824 0.00283558 0)
(7.37971 0.00222335 0)
(7.38113 0.00158505 0)
(7.3825 0.000921873 0)
(7.38384 0.00023457 0)
(7.38512 -0.000474195 0)
(7.33308 0.000521814 0)
(7.3334 0.00153503 0)
(7.33411 0.00247457 0)
(7.33516 0.00331648 0)
(7.33645 0.00405106 0)
(7.33793 0.00467674 0)
(7.33956 0.00519576 0)
(7.34131 0.00561292 0)
(7.34314 0.00593483 0)
(7.34503 0.00616888 0)
(7.34696 0.00632245 0)
(7.3489 0.00640252 0)
(7.35086 0.00641552 0)
(7.35281 0.00636729 0)
(7.35474 0.00626301 0)
(7.35666 0.00610723 0)
(7.35855 0.00590393 0)
(7.36041 0.00565656 0)
(7.36224 0.0053681 0)
(7.36404 0.00504111 0)
(7.3658 0.00467782 0)
(7.36752 0.00428013 0)
(7.3692 0.00384972 0)
(7.37083 0.00338805 0)
(7.37243 0.00289643 0)
(7.37398 0.00237606 0)
(7.3755 0.00182807 0)
(7.37696 0.00125353 0)
(7.37839 0.000653527 0)
(7.37977 2.91289e-05 0)
(7.3811 -0.000618424 0)
(7.38239 -0.00128827 0)
(7.38364 -0.00197777 0)
(7.33307 0.00040357 0)
(7.33338 0.00118776 0)
(7.33405 0.00191638 0)
(7.33506 0.00257098 0)
(7.3363 0.00314316 0)
(7.33773 0.00363023 0)
(7.3393 0.00403244 0)
(7.34099 0.00435227 0)
(7.34277 0.00459385 0)
(7.34461 0.00476209 0)
(7.34649 0.00486213 0)
(7.34839 0.00489899 0)
(7.3503 0.00487744 0)
(7.3522 0.0048019 0)
(7.35409 0.00467639 0)
(7.35597 0.00450451 0)
(7.35782 0.00428945 0)
(7.35964 0.00403406 0)
(7.36143 0.00374083 0)
(7.36319 0.00341194 0)
(7.36491 0.00304933 0)
(7.36659 0.00265469 0)
(7.36823 0.00222956 0)
(7.36983 0.0017753 0)
(7.37138 0.00129317 0)
(7.3729 0.000784336 0)
(7.37437 0.000249925 0)
(7.3758 -0.000308969 0)
(7.37718 -0.000891242 0)
(7.37852 -0.0014958 0)
(7.37981 -0.00212141 0)
(7.38106 -0.00276725 0)
(7.38226 -0.00343084 0)
(7.33307 0.000286659 0)
(7.33337 0.000844592 0)
(7.33402 0.0013641 0)
(7.33499 0.00183175 0)
(7.33619 0.00224068 0)
(7.33757 0.00258751 0)
(7.3391 0.00287084 0)
(7.34075 0.00309105 0)
(7.34248 0.00324996 0)
(7.34427 0.00335019 0)
(7.34611 0.00339472 0)
(7.34796 0.00338664 0)
(7.34983 0.00332908 0)
(7.35169 0.00322501 0)
(7.35355 0.00307725 0)
(7.35538 0.00288839 0)
(7.35719 0.00266081 0)
(7.35898 0.00239666 0)
(7.36073 0.00209788 0)
(7.36245 0.00176624 0)
(7.36413 0.00140332 0)
(7.36577 0.00101056 0)
(7.36738 0.000589292 0)
(7.36894 0.000140742 0)
(7.37046 -0.000333932 0)
(7.37193 -0.000833619 0)
(7.37337 -0.00135723 0)
(7.37476 -0.0019037 0)
(7.3761 -0.00247192 0)
(7.3774 -0.0030608 0)
(7.37865 -0.0036691 0)
(7.37986 -0.00429589 0)
(7.38103 -0.00493878 0)
(7.33307 0.000170124 0)
(7.33336 0.00050307 0)
(7.33399 0.00081441 0)
(7.33494 0.00109528 0)
(7.33611 0.00134045 0)
(7.33746 0.00154606 0)
(7.33895 0.00170919 0)
(7.34056 0.00182831 0)
(7.34226 0.00190306 0)
(7.34402 0.00193387 0)
(7.34581 0.00192162 0)
(7.34763 0.00186761 0)
(7.34946 0.00177336 0)
(7.35128 0.0016405 0)
(7.3531 0.00147073 0)
(7.3549 0.00126569 0)
(7.35667 0.001027 0)
(7.35842 0.000756185 0)
(7.36014 0.000454676 0)
(7.36182 0.00012382 0)
(7.36346 -0.000235123 0)
(7.36507 -0.000620968 0)
(7.36663 -0.0010326 0)
(7.36815 -0.00146895 0)
(7.36964 -0.00192898 0)
(7.37107 -0.00241168 0)
(7.37247 -0.00291604 0)
(7.37382 -0.00344106 0)
(7.37512 -0.00398569 0)
(7.37638 -0.00454891 0)
(7.3776 -0.00512957 0)
(7.37877 -0.0057269 0)
(7.3799 -0.00633877 0)
(7.33307 5.26459e-05 0)
(7.33336 0.000158692 0)
(7.33398 0.000260061 0)
(7.33491 0.000352534 0)
(7.33607 0.000432505 0)
(7.33739 0.000495599 0)
(7.33886 0.000537388 0)
(7.34045 0.000554388 0)
(7.34211 0.00054409 0)
(7.34384 0.000504676 0)
(7.3456 0.000434919 0)
(7.34739 0.000334167 0)
(7.34918 0.000202245 0)
(7.35098 3.9336e-05 0)
(7.35276 -0.000154116 0)
(7.35452 -0.000377481 0)
(7.35626 -0.000629996 0)
(7.35798 -0.00091082 0)
(7.35966 -0.00121906 0)
(7.36131 -0.0015538 0)
(7.36292 -0.00191412 0)
(7.36449 -0.00229908 0)
(7.36602 -0.00270778 0)
(7.36751 -0.00313927 0)
(7.36895 -0.00359264 0)
(7.37036 -0.00406694 0)
(7.37172 -0.00456122 0)
(7.37303 -0.0050745 0)
(7.3743 -0.00560578 0)
(7.37553 -0.00615404 0)
(7.37671 -0.0067181 0)
(7.37784 -0.00729706 0)
(7.37893 -0.00788877 0)
(7.33307 -6.72487e-05 0)
(7.33336 -0.000193321 0)
(7.33398 -0.000306491 0)
(7.33491 -0.000405777 0)
(7.33606 -0.00049324 0)
(7.33737 -0.000574113 0)
(7.33883 -0.0006546 0)
(7.3404 -0.000740248 0)
(7.34205 -0.000835754 0)
(7.34375 -0.000945115 0)
(7.34549 -0.00107156 0)
(7.34725 -0.00121748 0)
(7.34902 -0.00138458 0)
(7.35078 -0.00157396 0)
(7.35253 -0.0017863 0)
(7.35426 -0.00202192 0)
(7.35597 -0.00228088 0)
(7.35765 -0.00256299 0)
(7.3593 -0.00286796 0)
(7.36091 -0.00319534 0)
(7.36249 -0.00354462 0)
(7.36402 -0.0039152 0)
(7.36552 -0.00430646 0)
(7.36697 -0.00471769 0)
(7.36838 -0.00514819 0)
(7.36974 -0.00559718 0)
(7.37106 -0.00606386 0)
(7.37234 -0.00654739 0)
(7.37357 -0.00704692 0)
(7.37476 -0.00756155 0)
(7.37591 -0.00809033 0)
(7.37701 -0.00863265 0)
(7.37806 -0.00918671 0)
(7.33307 -0.000191294 0)
(7.33336 -0.000557499 0)
(7.33399 -0.000891598 0)
(7.33493 -0.0011867 0)
(7.33609 -0.00144364 0)
(7.33742 -0.0016692 0)
(7.33888 -0.00187187 0)
(7.34044 -0.00205966 0)
(7.34208 -0.00223993 0)
(7.34377 -0.00241941 0)
(7.34549 -0.00260378 0)
(7.34724 -0.00279757 0)
(7.34898 -0.00300419 0)
(7.35072 -0.00322621 0)
(7.35245 -0.00346545 0)
(7.35416 -0.00372315 0)
(7.35584 -0.00400006 0)
(7.35749 -0.00429657 0)
(7.35911 -0.00461281 0)
(7.3607 -0.00494866 0)
(7.36224 -0.00530387 0)
(7.36375 -0.00567803 0)
(7.36521 -0.00607066 0)
(7.36664 -0.00648118 0)
(7.36801 -0.00690895 0)
(7.36935 -0.00735328 0)
(7.37064 -0.0078134 0)
(7.37189 -0.00828853 0)
(7.37309 -0.00877782 0)
(7.37424 -0.00928039 0)
(7.37536 -0.00979524 0)
(7.37642 -0.0103215 0)
(7.37745 -0.0108574 0)
(7.33307 -0.000322521 0)
(7.33337 -0.000942244 0)
(7.33403 -0.00150753 0)
(7.335 -0.0020046 0)
(7.33619 -0.0024339 0)
(7.33754 -0.00280498 0)
(7.33901 -0.00312918 0)
(7.34058 -0.00341683 0)
(7.34222 -0.00367763 0)
(7.34391 -0.00392065 0)
(7.34562 -0.00415379 0)
(7.34735 -0.0043835 0)
(7.34908 -0.0046149 0)
(7.3508 -0.0048521 0)
(7.3525 -0.00509825 0)
(7.35418 -0.00535575 0)
(7.35583 -0.00562631 0)
(7.35746 -0.00591117 0)
(7.35904 -0.00621112 0)
(7.36059 -0.00652666 0)
(7.36211 -0.006858 0)
(7.36358 -0.00720515 0)
(7.36501 -0.00756797 0)
(7.36639 -0.00794615 0)
(7.36774 -0.00833932 0)
(7.36904 -0.00874699 0)
(7.37029 -0.0091686 0)
(7.3715 -0.00960355 0)
(7.37267 -0.0100512 0)
(7.37379 -0.0105108 0)
(7.37487 -0.0109816 0)
(7.37591 -0.0114633 0)
(7.3769 -0.0119544 0)
(7.33308 -0.000464786 0)
(7.3334 -0.00135804 0)
(7.33409 -0.00216884 0)
(7.33512 -0.00287516 0)
(7.33635 -0.00347885 0)
(7.33774 -0.00399504 0)
(7.33925 -0.00444014 0)
(7.34085 -0.00482879 0)
(7.34251 -0.00517472 0)
(7.34421 -0.0054905 0)
(7.34592 -0.00578656 0)
(7.34765 -0.00607111 0)
(7.34937 -0.00635062 0)
(7.35109 -0.00663012 0)
(7.35278 -0.00691351 0)
(7.35444 -0.00720371 0)
(7.35608 -0.00750286 0)
(7.35768 -0.00781249 0)
(7.35925 -0.00813369 0)
(7.36078 -0.00846714 0)
(7.36227 -0.00881324 0)
(7.36371 -0.00917214 0)
(7.36512 -0.00954383 0)
(7.36648 -0.00992811 0)
(7.3678 -0.0103247 0)
(7.36907 -0.0107332 0)
(7.3703 -0.0111531 0)
(7.37148 -0.0115838 0)
(7.37262 -0.0120248 0)
(7.37371 -0.0124754 0)
(7.37476 -0.0129347 0)
(7.37576 -0.013402 0)
(7.37672 -0.013876 0)
(7.33308 -0.000623542 0)
(7.33344 -0.0018197 0)
(7.3342 -0.00289584 0)
(7.3353 -0.00382064 0)
(7.33661 -0.00460042 0)
(7.33806 -0.00525724 0)
(7.33962 -0.00581115 0)
(7.34125 -0.00627971 0)
(7.34293 -0.00668084 0)
(7.34464 -0.00703168 0)
(7.34636 -0.00734652 0)
(7.34809 -0.00763667 0)
(7.3498 -0.00791116 0)
(7.35149 -0.00817719 0)
(7.35316 -0.00844033 0)
(7.35481 -0.00870483 0)
(7.35642 -0.00897384 0)
(7.35799 -0.0092497 0)
(7.35953 -0.00953411 0)
(7.36103 -0.00982825 0)
(7.36249 -0.0101329 0)
(7.3639 -0.0104485 0)
(7.36527 -0.0107753 0)
(7.3666 -0.0111134 0)
(7.36788 -0.0114627 0)
(7.36912 -0.0118228 0)
(7.37032 -0.0121935 0)
(7.37147 -0.0125745 0)
(7.37257 -0.0129651 0)
(7.37363 -0.0133651 0)
(7.37465 -0.0137737 0)
(7.37562 -0.0141909 0)
(7.37656 -0.0146153 0)
(7.33308 -0.000807194 0)
(7.3335 -0.00234919 0)
(7.33436 -0.00371525 0)
(7.33558 -0.004866 0)
(7.337 -0.00582536 0)
(7.33854 -0.00663396 0)
(7.34018 -0.00732051 0)
(7.34188 -0.00790634 0)
(7.34362 -0.00841247 0)
(7.34538 -0.00885821 0)
(7.34713 -0.00925894 0)
(7.34887 -0.00962653 0)
(7.35059 -0.00997056 0)
(7.35229 -0.0102987 0)
(7.35396 -0.0106171 0)
(7.35559 -0.0109304 0)
(7.35719 -0.0112422 0)
(7.35875 -0.0115552 0)
(7.36027 -0.0118715 0)
(7.36175 -0.0121926 0)
(7.36319 -0.0125196 0)
(7.36458 -0.0128531 0)
(7.36592 -0.0131937 0)
(7.36722 -0.0135415 0)
(7.36848 -0.0138966 0)
(7.36969 -0.0142589 0)
(7.37085 -0.0146282 0)
(7.37197 -0.0150043 0)
(7.37304 -0.0153867 0)
(7.37407 -0.0157751 0)
(7.37505 -0.0161688 0)
(7.37599 -0.0165675 0)
(7.37688 -0.0169701 0)
(7.33309 -0.00102936 0)
(7.33359 -0.00298297 0)
(7.33461 -0.00467297 0)
(7.336 -0.00604721 0)
(7.33755 -0.00715027 0)
(7.33919 -0.00804162 0)
(7.3409 -0.00876206 0)
(7.34266 -0.00934608 0)
(7.34443 -0.00982777 0)
(7.34621 -0.0102355 0)
(7.34797 -0.0105898 0)
(7.34971 -0.0109061 0)
(7.35142 -0.0111961 0)
(7.35311 -0.0114691 0)
(7.35476 -0.0117319 0)
(7.35637 -0.0119895 0)
(7.35794 -0.0122456 0)
(7.35947 -0.0125032 0)
(7.36096 -0.0127642 0)
(7.3624 -0.0130303 0)
(7.3638 -0.0133024 0)
(7.36516 -0.0135814 0)
(7.36646 -0.0138677 0)
(7.36773 -0.0141617 0)
(7.36894 -0.0144633 0)
(7.37011 -0.0147727 0)
(7.37124 -0.0150896 0)
(7.37232 -0.0154139 0)
(7.37335 -0.0157453 0)
(7.37434 -0.0160834 0)
(7.37529 -0.0164279 0)
(7.3762 -0.0167784 0)
(7.37707 -0.0171343 0)
(7.33311 -0.00131388 0)
(7.33375 -0.00376979 0)
(7.33502 -0.00582506 0)
(7.33668 -0.00747276 0)
(7.33845 -0.00882492 0)
(7.34028 -0.00995211 0)
(7.34214 -0.0108809 0)
(7.34402 -0.0116425 0)
(7.34587 -0.0122764 0)
(7.3477 -0.012815 0)
(7.34949 -0.0132811 0)
(7.35124 -0.0136921 0)
(7.35295 -0.0140622 0)
(7.35462 -0.0144028 0)
(7.35625 -0.0147225 0)
(7.35783 -0.0150277 0)
(7.35937 -0.0153234 0)
(7.36086 -0.0156131 0)
(7.3623 -0.0158997 0)
(7.3637 -0.0161851 0)
(7.36505 -0.0164709 0)
(7.36635 -0.0167579 0)
(7.36761 -0.0170471 0)
(7.36882 -0.0173389 0)
(7.36998 -0.0176335 0)
(7.37109 -0.0179311 0)
(7.37216 -0.0182318 0)
(7.37318 -0.0185355 0)
(7.37416 -0.0188422 0)
(7.37509 -0.0191517 0)
(7.37597 -0.019464 0)
(7.37681 -0.0197789 0)
(7.3776 -0.0200964 0)
(7.33314 -0.00171761 0)
(7.33403 -0.00482333 0)
(7.33564 -0.00715952 0)
(7.33754 -0.00880367 0)
(7.33945 -0.0100404 0)
(7.34138 -0.0110218 0)
(7.34333 -0.0117965 0)
(7.34527 -0.0124092 0)
(7.34715 -0.0129092 0)
(7.34898 -0.0133309 0)
(7.35076 -0.0136951 0)
(7.35249 -0.0140164 0)
(7.35416 -0.0143066 0)
(7.35578 -0.0145749 0)
(7.35735 -0.0148281 0)
(7.35886 -0.0150712 0)
(7.36033 -0.0153081 0)
(7.36174 -0.015542 0)
(7.3631 -0.0157751 0)
(7.36442 -0.0160093 0)
(7.36568 -0.0162459 0)
(7.3669 -0.0164858 0)
(7.36807 -0.0167298 0)
(7.3692 -0.0169783 0)
(7.37027 -0.0172316 0)
(7.3713 -0.0174897 0)
(7.37229 -0.0177526 0)
(7.37323 -0.0180203 0)
(7.37412 -0.0182924 0)
(7.37498 -0.0185687 0)
(7.37579 -0.0188486 0)
(7.37656 -0.0191318 0)
(7.3773 -0.0194175 0)
(7.33321 -0.00231043 0)
(7.33467 -0.00643839 0)
(7.33707 -0.00953398 0)
(7.33953 -0.0117836 0)
(7.34171 -0.0134941 0)
(7.34375 -0.0147994 0)
(7.34573 -0.0157783 0)
(7.34761 -0.0165226 0)
(7.34939 -0.0171093 0)
(7.35106 -0.0175859 0)
(7.35266 -0.0179828 0)
(7.35419 -0.0183227 0)
(7.35565 -0.0186228 0)
(7.35705 -0.018895 0)
(7.35839 -0.0191474 0)
(7.35967 -0.0193855 0)
(7.36089 -0.0196134 0)
(7.36206 -0.0198341 0)
(7.36319 -0.0200496 0)
(7.36426 -0.0202614 0)
(7.36528 -0.0204706 0)
(7.36626 -0.020678 0)
(7.36719 -0.0208843 0)
(7.36808 -0.0210899 0)
(7.36891 -0.0212953 0)
(7.36971 -0.0215007 0)
(7.37046 -0.0217063 0)
(7.37117 -0.0219125 0)
(7.37184 -0.0221195 0)
(7.37247 -0.0223276 0)
(7.37305 -0.0225376 0)
(7.3736 -0.022751 0)
(7.37411 -0.0229692 0)
(7.33323 -0.0033099 0)
(7.33508 -0.00749362 0)
(7.33784 -0.00964704 0)
(7.34037 -0.0111794 0)
(7.34246 -0.0125193 0)
(7.34432 -0.0135762 0)
(7.34601 -0.0143526 0)
(7.3475 -0.0149503 0)
(7.3488 -0.0154397 0)
(7.34996 -0.0158468 0)
(7.35101 -0.016187 0)
(7.35197 -0.0164771 0)
(7.35285 -0.016732 0)
(7.35367 -0.0169624 0)
(7.35443 -0.0171757 0)
(7.35514 -0.0173776 0)
(7.35581 -0.0175725 0)
(7.35644 -0.0177639 0)
(7.35703 -0.0179539 0)
(7.35759 -0.0181442 0)
(7.35811 -0.0183361 0)
(7.35861 -0.0185302 0)
(7.35908 -0.0187269 0)
(7.35951 -0.0189264 0)
(7.35992 -0.0191287 0)
(7.3603 -0.0193336 0)
(7.36066 -0.0195409 0)
(7.36098 -0.0197498 0)
(7.36128 -0.0199597 0)
(7.36155 -0.0201692 0)
(7.36179 -0.0203767 0)
(7.362 -0.0205777 0)
(7.36218 -0.0207728 0)
(7.33597 -0.00735095 0)
(7.34631 -0.0151042 0)
(7.35618 -0.0177491 0)
(7.36436 -0.0189147 0)
(7.37191 -0.0198021 0)
(7.37927 -0.0203854 0)
(7.38625 -0.0206801 0)
(7.39272 -0.0208352 0)
(7.39875 -0.0209486 0)
(7.40442 -0.0210456 0)
(7.40978 -0.0211305 0)
(7.41484 -0.0212086 0)
(7.41963 -0.0212852 0)
(7.42416 -0.0213621 0)
(7.42846 -0.0214395 0)
(7.43253 -0.0215173 0)
(7.43639 -0.0215955 0)
(7.44005 -0.0216743 0)
(7.44352 -0.0217537 0)
(7.4468 -0.0218339 0)
(7.44991 -0.0219152 0)
(7.45285 -0.0219979 0)
(7.45562 -0.0220822 0)
(7.45824 -0.0221686 0)
(7.46071 -0.0222572 0)
(7.46304 -0.0223485 0)
(7.46523 -0.0224427 0)
(7.46729 -0.0225404 0)
(7.46923 -0.0226418 0)
(7.47106 -0.0227474 0)
(7.47278 -0.0228571 0)
(7.47441 -0.0229721 0)
(7.47598 -0.0230905 0)
(7.32333 -0.00889297 0)
(7.30977 -0.0181897 0)
(7.29241 -0.0222832 0)
(7.27078 -0.0243789 0)
(7.24817 -0.0257173 0)