/*--------------------------------*- C++ -*----------------------------------*\
| =========                 |                                                 |
| \\      /  F ield         | OpenFOAM: The Open Source CFD Toolbox           |
|  \\    /   O peration     | Version:  4.1                                   |
|   \\  /    A nd           | Web:      www.OpenFOAM.org                      |
|    \\/     M anipulation  |                                                 |
\*---------------------------------------------------------------------------*/
FoamFile
{
    version     2.0;
    format      ascii;
    class       volScalarField;
    location    "300";
    object      p;
}
// * * * * * * * * * * * * * * * * * * * * * * * * * * * * * * * * * * * * * //

dimensions      [0 2 -2 0 0 0 0];

internalField   nonuniform List<scalar> 
26785
(
-23.5171
-29.0686
-29.5124
-27.9171
-25.4395
-22.5531
-19.674
-16.9944
-14.5928
-12.4991
-10.6912
-9.12491
-7.76559
-6.59042
-5.5794
-4.71226
-3.96957
-3.33356
-2.78791
-2.31766
-1.90927
-1.55083
-1.23232
-0.945864
-0.685894
-0.449034
-0.233646
-0.0392398
0.13409
0.286058
0.41643
0.525132
0.612313
0.678351
0.723877
0.749773
0.757181
0.747422
0.721813
0.681418
0.62715
0.559988
0.480684
0.389683
0.287675
0.17583
0.0555503
-0.0717038
-0.204592
-0.341949
-0.482751
-0.625985
-0.770528
-0.915047
-1.05797
-1.19748
-1.33161
-1.45832
-1.57564
-1.68176
-1.77521
-1.85487
-1.92012
-1.97074
-2.00698
-2.02943
-2.03896
-2.0366
-2.02351
-2.00085
-1.96972
-1.93119
-1.88618
-1.83554
-1.77997
-1.72009
-1.65645
-1.58952
-1.51971
-1.44741
-1.37301
-1.29688
-1.21936
-1.14082
-1.06165
-0.982264
-0.903033
-0.824317
-0.746455
-0.669762
-0.59451
-0.520962
-0.449292
-0.379823
-0.312417
-0.248127
-0.184862
-0.128751
-0.0650499
-0.0350024
-23.6302
-29.115
-29.5315
-27.9338
-25.4528
-22.5613
-19.6789
-16.9977
-14.5956
-12.5016
-10.6936
-9.12726
-7.76802
-6.59303
-5.58229
-4.71548
-3.97316
-3.3375
-2.79216
-2.32215
-1.91391
-1.5555
-1.2369
-0.950228
-0.689925
-0.45264
-0.236768
-0.0418526
0.131983
0.284431
0.415242
0.524333
0.611846
0.678159
0.723905
0.749969
0.757502
0.747829
0.722283
0.681932
0.627684
0.560535
0.481236
0.390191
0.288061
0.176005
0.0554219
-0.0722269
-0.205592
-0.343491
-0.484878
-0.628707
-0.77382
-0.918846
-1.06218
-1.20198
-1.33627
-1.46301
-1.58023
-1.68616
-1.77932
-1.85866
-1.92355
-1.97381
-2.0097
-2.03182
-2.04106
-2.03845
-2.02514
-2.00228
-1.97101
-1.93235
-1.88725
-1.83653
-1.78091
-1.72101
-1.65734
-1.59039
-1.52056
-1.44823
-1.37379
-1.29761
-1.22003
-1.14141
-1.06215
-0.982684
-0.903382
-0.824601
-0.746682
-0.669937
-0.59464
-0.521051
-0.449342
-0.379837
-0.312392
-0.248077
-0.184731
-0.128676
-0.0643987
-0.0357902
-23.7848
-29.1819
-29.5625
-27.9664
-25.4814
-22.5809
-19.6917
-17.0071
-14.6035
-12.5088
-10.7004
-9.1339
-7.77478
-6.60014
-5.58989
-4.72365
-3.9819
-3.34676
-2.80184
-2.33209
-1.92392
-1.56536
-1.24637
-0.959078
-0.697951
-0.45969
-0.242757
-0.0467625
0.128113
0.281521
0.413183
0.523004
0.611122
0.677918
0.724034
0.750369
0.758088
0.748541
0.72308
0.6828
0.628604
0.561432
0.481964
0.39058
0.28796
0.175265
0.053916
-0.0746018
-0.208913
-0.347813
-0.490224
-0.635061
-0.781116
-0.926962
-1.07094
-1.21117
-1.34564
-1.47232
-1.58925
-1.69469
-1.78721
-1.86581
-1.92991
-1.97939
-2.01455
-2.03603
-2.0447
-2.04163
-2.02796
-2.00484
-1.97337
-1.93457
-1.88938
-1.8386
-1.78293
-1.72298
-1.65927
-1.59226
-1.52234
-1.44992
-1.37536
-1.29903
-1.2213
-1.14253
-1.06312
-0.983508
-0.904075
-0.825178
-0.747154
-0.670318
-0.594937
-0.521273
-0.449491
-0.379919
-0.312401
-0.248037
-0.184546
-0.128568
-0.0634276
-0.0369787
-23.9803
-29.2753
-29.6089
-28.0149
-25.5236
-22.6097
-19.7105
-17.0212
-14.6158
-12.5202
-10.7113
-9.14466
-7.78572
-6.61153
-5.6019
-4.73634
-3.99528
-3.36076
-2.81631
-2.34683
-1.93866
-1.57981
-1.26022
-0.972002
-0.709663
-0.469974
-0.251491
-0.0539229
0.122469
0.277276
0.41018
0.521066
0.610064
0.677563
0.724217
0.750943
0.758932
0.749564
0.724216
0.684024
0.629896
0.56268
0.482945
0.391046
0.287662
0.173953
0.0513661
-0.0785605
-0.214393
-0.354861
-0.498822
-0.645119
-0.792471
-0.939378
-1.08412
-1.22478
-1.35933
-1.48573
-1.60208
-1.70669
-1.7982
-1.87569
-1.93865
-1.98705
-2.02122
-2.04184
-2.04981
-2.04618
-2.03209
-2.00866
-1.97697
-1.93803
-1.89273
-1.84186
-1.78612
-1.72609
-1.66229
-1.59515
-1.52509
-1.4525
-1.37773
-1.30119
-1.22322
-1.14421
-1.06457
-0.984754
-0.905133
-0.826069
-0.747897
-0.670928
-0.595428
-0.521653
-0.449767
-0.380097
-0.312471
-0.248027
-0.184351
-0.128448
-0.0624162
-0.038155
-24.2151
-29.3806
-29.6609
-28.0742
-25.5776
-22.6478
-19.7362
-17.0409
-14.6332
-12.5367
-10.7272
-9.16046
-7.80179
-6.62818
-5.61926
-4.75445
-4.01407
-3.38009
-2.83597
-2.36654
-1.95811
-1.59866
-1.27807
-0.988489
-0.72445
-0.482815
-0.262267
-0.0626352
0.115712
0.272291
0.406738
0.518916
0.608957
0.677262
0.72451
0.751658
0.759935
0.75076
0.72554
0.685435
0.631322
0.563912
0.483657
0.390893
0.286313
0.171101
0.0467657
-0.0850788
-0.222913
-0.365381
-0.511249
-0.65927
-0.808076
-0.956091
-1.10153
-1.24245
-1.37682
-1.50263
-1.61802
-1.7214
-1.81153
-1.88756
-1.94909
-1.99617
-2.02919
-2.04885
-2.05607
-2.05188
-2.03739
-2.01369
-1.98183
-1.94276
-1.89738
-1.84643
-1.79059
-1.73044
-1.66647
-1.59914
-1.52885
-1.45599
-1.38093
-1.30407
-1.22579
-1.14647
-1.06654
-0.986458
-0.906594
-0.827312
-0.748947
-0.671804
-0.596148
-0.52223
-0.450209
-0.380409
-0.312649
-0.248101
-0.184229
-0.128383
-0.0615674
-0.0391566
-24.5331
-29.5003
-29.7142
-28.1391
-25.6396
-22.6933
-19.7678
-17.066
-14.6559
-12.5585
-10.7485
-9.18168
-7.82334
-6.65033
-5.64212
-4.77798
-4.03815
-3.40451
-2.86048
-2.39082
-1.9818
-1.62138
-1.29942
-1.00803
-0.741823
-0.497759
-0.274671
-0.0725439
0.108131
0.266784
0.403003
0.516635
0.60782
0.676985
0.724852
0.752428
0.760999
0.752031
0.726952
0.686906
0.632707
0.564926
0.483895
0.389923
0.283728
0.166546
0.0399736
-0.0942701
-0.234551
-0.379395
-0.527452
-0.677366
-0.827674
-0.976725
-1.12269
-1.2636
-1.39746
-1.52231
-1.63639
-1.73821
-1.82665
-1.90099
-1.96094
-2.00661
-2.03843
-2.05714
-2.06362
-2.05891
-2.04405
-2.02011
-1.98808
-1.9489
-1.9034
-1.85233
-1.79635
-1.73602
-1.67183
-1.60423
-1.53362
-1.46041
-1.38498
-1.30773
-1.22907
-1.14938
-1.06909
-0.988663
-0.908495
-0.828938
-0.750325
-0.672961
-0.597105
-0.523006
-0.450814
-0.380853
-0.312936
-0.248266
-0.184186
-0.128364
-0.0609049
-0.0399206
-24.9003
-29.6181
-29.763
-28.2045
-25.7038
-22.7406
-19.8012
-17.0933
-14.6815
-12.5837
-10.7738
-9.20716
-7.84943
-6.67724
-5.66984
-4.80638
-4.067
-3.43351
-2.88929
-2.41907
-2.0091
-1.64732
-1.32355
-1.02993
-0.761109
-0.514183
-0.288166
-0.0832184
0.100033
0.260932
0.399029
0.514167
0.606509
0.676527
0.724994
0.752988
0.76186
0.753119
0.728184
0.688151
0.633725
0.565316
0.483144
0.387518
0.279217
0.159579
0.0303236
-0.106699
-0.249724
-0.397146
-0.547488
-0.699283
-0.850975
-1.00085
-1.14705
-1.28762
-1.42061
-1.54416
-1.65661
-1.75661
-1.84318
-1.9157
-1.97399
-2.01822
-2.04886
-2.06665
-2.07245
-2.06725
-2.05207
-2.02791
-1.99574
-1.95643
-1.91081
-1.85959
-1.80342
-1.74284
-1.67836
-1.61042
-1.53943
-1.46579
-1.38991
-1.31221
-1.23308
-1.15295
-1.07224
-0.99141
-0.910872
-0.830978
-0.752059
-0.67442
-0.598319
-0.523997
-0.451592
-0.381447
-0.313356
-0.248538
-0.184249
-0.128416
-0.0604387
-0.0405055
-25.2684
-29.7314
-29.8118
-28.2732
-25.772
-22.7926
-19.8391
-17.125
-14.7117
-12.6137
-10.8038
-9.23751
-7.88043
-6.70904
-5.70237
-4.83941
-4.10022
-3.46657
-2.9218
-2.45066
-2.03938
-1.67588
-1.34996
-1.05375
-0.781963
-0.531851
-0.302623
-0.0946281
0.0913655
0.254621
0.394659
0.511332
0.604838
0.675701
0.724765
0.753185
0.762383
0.753892
0.729099
0.689002
0.634161
0.564823
0.481113
0.38337
0.272482
0.149932
0.0176016
-0.122502
-0.268466
-0.418546
-0.571141
-0.724681
-0.877531
-1.02794
-1.17404
-1.31393
-1.44573
-1.56768
-1.67829
-1.77631
-1.86091
-1.93158
-1.98822
-2.03105
-2.06056
-2.07748
-2.08264
-2.077
-2.06152
-2.03716
-2.00483
-1.96538
-1.9196
-1.86818
-1.81176
-1.75089
-1.68605
-1.6177
-1.54626
-1.47213
-1.39574
-1.31751
-1.23786
-1.15722
-1.07602
-0.994728
-0.913751
-0.833453
-0.754164
-0.676194
-0.599795
-0.5252
-0.452545
-0.382186
-0.313897
-0.248906
-0.184403
-0.128523
-0.0601192
-0.0409489
-25.6387
-29.8425
-29.8591
-28.339
-25.8362
-22.842
-19.8761
-17.1573
-14.7435
-12.6462
-10.8369
-9.27135
-7.9152
-6.74476
-5.73883
-4.87625
-4.13702
-3.50291
-2.95727
-2.48487
-2.07196
-1.70645
-1.37811
-1.07905
-0.804056
-0.550535
-0.317915
-0.106741
0.0820773
0.24773
0.389719
0.507917
0.602569
0.674264
0.723928
0.752801
0.762365
0.754152
0.729471
0.689179
0.63366
0.563007
0.477294
0.376945
0.263014
0.137176
0.00150089
-0.141836
-0.290774
-0.443438
-0.598117
-0.753152
-0.906856
-1.05746
-1.20313
-1.34203
-1.47237
-1.59254
-1.70115
-1.79713
-1.87973
-1.94856
-2.0036
-2.04508
-2.07353
-2.08963
-2.09421
-2.08816
-2.07239
-2.04782
-2.01532
-1.9757
-1.92972
-1.87807
-1.82136
-1.76013
-1.69488
-1.62606
-1.55411
-1.47944
-1.40247
-1.32366
-1.24342
-1.1622
-1.08046
-0.998632
-0.917152
-0.836386
-0.756664
-0.678303
-0.601551
-0.52663
-0.45369
-0.383086
-0.314566
-0.249382
-0.184658
-0.128697
-0.0599264
-0.0413101
-26.0108
-29.9431
-29.9021
-28.4024
-25.8976
-22.8911
-19.9144
-17.1916
-14.778
-12.6816
-10.8733
-9.30866
-7.95355
-6.78407
-5.77876
-4.91635
-4.17679
-3.54191
-2.99508
-2.52114
-2.10636
-1.73864
-1.40772
-1.10566
-0.827304
-0.570243
-0.334124
-0.119698
0.0719885
0.240057
0.383999
0.503716
0.599507
0.67204
0.722331
0.751707
0.761689
0.753772
0.729139
0.688465
0.631945
0.559542
0.471338
0.367908
0.25053
0.121116
-0.0180608
-0.164656
-0.316474
-0.47153
-0.628025
-0.78424
-0.938463
-1.08894
-1.23388
-1.37153
-1.50022
-1.61848
-1.72504
-1.81895
-1.89959
-1.96665
-2.02015
-2.06036
-2.0878
-2.10314
-2.10716
-2.10072
-2.08467
-2.05988
-2.02718
-1.98736
-1.94115
-1.88921
-1.83215
-1.77052
-1.7048
-1.63547
-1.56295
-1.48769
-1.4101
-1.33064
-1.24976
-1.16791
-1.08555
-1.00313
-0.921088
-0.839791
-0.759578
-0.680761
-0.603592
-0.528297
-0.455033
-0.384145
-0.315366
-0.249962
-0.185007
-0.128927
-0.0598257
-0.0416147
-26.4299
-30.035
-29.9339
-28.4537
-25.9466
-22.9328
-19.9499
-17.2256
-14.8135
-12.719
-10.912
-9.34864
-7.99474
-6.82623
-5.82144
-4.95897
-4.21882
-3.58287
-3.0346
-2.55891
-2.14211
-1.77209
-1.43852
-1.13342
-0.851664
-0.591018
-0.351365
-0.133666
0.060894
0.231375
0.377262
0.498493
0.59543
0.668829
0.719803
0.749751
0.760208
0.752583
0.727887
0.686578
0.628667
0.554037
0.462856
0.35592
0.23479
0.101637
-0.0410596
-0.190803
-0.345289
-0.502451
-0.660433
-0.817486
-0.971894
-1.12194
-1.2659
-1.40212
-1.52905
-1.64533
-1.74984
-1.84173
-1.92047
-1.98583
-2.03786
-2.07688
-2.10337
-2.11799
-2.12148
-2.11465
-2.09831
-2.07329
-2.04036
-2.0003
-1.95381
-1.90154
-1.84409
-1.78201
-1.71579
-1.6459
-1.57278
-1.49687
-1.41861
-1.33847
-1.25689
-1.17435
-1.09132
-1.00825
-0.925572
-0.843679
-0.762913
-0.683582
-0.605941
-0.53023
-0.4566
-0.385385
-0.316315
-0.250658
-0.185456
-0.129223
-0.0598081
-0.0418886
-26.8555
-30.11
-29.9565
-28.4961
-25.985
-22.9661
-19.9804
-17.257
-14.8478
-12.7562
-10.9514
-9.38972
-8.03736
-6.87001
-5.86576
-5.00315
-4.26225
-3.62507
-3.07522
-2.59771
-2.17889
-1.80662
-1.47047
-1.16238
-0.877256
-0.613037
-0.369848
-0.148869
0.048573
0.221476
0.369323
0.492087
0.590205
0.664529
0.716264
0.746865
0.757839
0.750463
0.725524
0.68325
0.6235
0.546154
0.451546
0.340767
0.215695
0.0787699
-0.0673356
-0.220005
-0.376859
-0.535786
-0.694902
-0.852452
-1.00675
-1.15611
-1.29891
-1.43358
-1.55869
-1.67299
-1.77548
-1.86541
-1.94234
-2.00609
-2.05676
-2.09464
-2.12024
-2.13417
-2.13715
-2.12993
-2.11329
-2.088
-2.05481
-2.01447
-1.96765
-1.91501
-1.85713
-1.79456
-1.7278
-1.65731
-1.58355
-1.50696
-1.42799
-1.34712
-1.2648
-1.18153
-1.09776
-1.01398
-0.930616
-0.848065
-0.766681
-0.68678
-0.60862
-0.532446
-0.458401
-0.386817
-0.317418
-0.251477
-0.186007
-0.129584
-0.0598634
-0.0421381
-27.2517
-30.1745
-29.9746
-28.5303
-26.0126
-22.9918
-20.0082
-17.2877
-14.8824
-12.794
-10.9915
-9.43172
-8.08101
-6.91484
-5.91108
-5.04822
-4.30645
-3.66795
-3.1165
-2.6372
-2.21647
-1.8421
-1.50353
-1.19258
-0.904182
-0.636437
-0.38973
-0.16547
0.0348668
0.210212
0.360043
0.484379
0.583736
0.659066
0.711656
0.742986
0.754488
0.747245
0.721791
0.678137
0.616057
0.535522
0.437125
0.322296
0.193242
0.0526571
-0.096627
-0.251911
-0.410779
-0.571105
-0.731007
-0.888746
-1.04267
-1.19116
-1.33267
-1.46572
-1.58901
-1.70137
-1.80192
-1.88999
-1.96521
-2.02744
-2.07681
-2.11363
-2.13838
-2.15166
-2.15413
-2.14651
-2.12954
-2.10395
-2.07046
-2.02979
-1.98261
-1.92955
-1.8712
-1.80811
-1.74077
-1.66966
-1.59523
-1.51793
-1.43823
-1.35659
-1.27349
-1.18943
-1.10489
-1.02034
-0.936233
-0.852968
-0.770911
-0.690382
-0.611648
-0.534957
-0.460451
-0.388455
-0.318692
-0.252431
-0.186669
-0.130019
-0.0599954
-0.0423674
-27.6255
-30.2302
-29.9855
-28.5518
-26.0246
-23.0046
-20.0289
-17.3147
-14.915
-12.8308
-11.0312
-9.47374
-8.12489
-6.95999
-5.9567
-5.09355
-4.35087
-3.71106
-3.15808
-2.67715
-2.25473
-1.87849
-1.53774
-1.22413
-0.932584
-0.661376
-0.411165
-0.183612
0.0196477
0.197473
0.349338
0.475308
0.575988
0.652426
0.705973
0.73809
0.750075
0.742769
0.716436
0.670917
0.606
0.521861
0.419422
0.300478
0.16755
0.0235445
-0.128593
-0.286122
-0.446626
-0.607992
-0.768359
-0.926022
-1.07937
-1.22685
-1.367
-1.49843
-1.61992
-1.73042
-1.82912
-1.91544
-1.98905
-2.04986
-2.09802
-2.13383
-2.15777
-2.17041
-2.17237
-2.16434
-2.14701
-2.12108
-2.08725
-2.0462
-1.99861
-1.9451
-1.88625
-1.82261
-1.75467
-1.68291
-1.60779
-1.52976
-1.44929
-1.36686
-1.28295
-1.19806
-1.1127
-1.02734
-0.942429
-0.858397
-0.775612
-0.694402
-0.615041
-0.537781
-0.462765
-0.390314
-0.320147
-0.25353
-0.187451
-0.130534
-0.0602098
-0.0425725
-27.9786
-30.2673
-29.9846
-28.5596
-26.0222
-23.0062
-20.0439
-17.3391
-14.946
-12.8665
-11.0702
-9.51529
-8.1685
-7.00496
-6.00217
-5.13873
-4.39517
-3.75413
-3.19977
-2.71744
-2.2936
-1.91581
-1.57317
-1.25712
-0.962562
-0.687955
-0.434252
-0.203381
0.00284503
0.183205
0.33717
0.46486
0.566969
0.644633
0.699232
0.732159
0.744516
0.736863
0.709209
0.661306
0.593076
0.505005
0.398402
0.275421
0.138855
-0.00823383
-0.162838
-0.322218
-0.483984
-0.646058
-0.806614
-0.963985
-1.11661
-1.263
-1.40176
-1.53159
-1.65136
-1.7601
-1.85706
-1.94174
-2.01385
-2.07333
-2.12035
-2.15522
-2.17838
-2.19039
-2.19184
-2.18337
-2.16564
-2.13932
-2.1051
-2.06365
-2.01561
-1.9616
-1.90222
-1.838
-1.76945
-1.69703
-1.6212
-1.54243
-1.46118
-1.37792
-1.29317
-1.20743
-1.12119
-1.03497
-0.949216
-0.864366
-0.780799
-0.698856
-0.618816
-0.540936
-0.465362
-0.392412
-0.321801
-0.254789
-0.188365
-0.131139
-0.0605176
-0.0427482
-28.3577
-30.2882
-29.968
-28.548
-25.9994
-22.9907
-20.0479
-17.3578
-14.9738
-12.9002
-11.1078
-9.55577
-8.21126
-7.0492
-6.04698
-5.1833
-4.43896
-3.79685
-3.24137
-2.75796
-2.33305
-1.95409
-1.60987
-1.29164
-0.994218
-0.716268
-0.459062
-0.224828
-0.0155708
0.1674
0.323554
0.453068
0.556728
0.635735
0.691464
0.725176
0.737723
0.729365
0.699904
0.649106
0.577154
0.484938
0.374178
0.247363
0.107491
-0.0422817
-0.19894
-0.35978
-0.522461
-0.684953
-0.84547
-1.00239
-1.15419
-1.29946
-1.43685
-1.56514
-1.68328
-1.79036
-1.88571
-1.96886
-2.03958
-2.09783
-2.14379
-2.17776
-2.20017
-2.21156
-2.21247
-2.20354
-2.18537
-2.15863
-2.12398
-2.08206
-2.03353
-1.979
-1.91906
-1.85424
-1.78505
-1.71196
-1.63543
-1.5559
-1.47385
-1.38977
-1.30415
-1.21751
-1.13038
-1.04325
-0.956602
-0.870882
-0.786484
-0.703755
-0.622985
-0.544436
-0.468256
-0.39476
-0.323665
-0.256219
-0.189419
-0.131842
-0.0609294
-0.0428878
-28.7185
-30.2876
-29.9395
-28.522
-25.9609
-22.9613
-20.0413
-17.3695
-14.9964
-12.9297
-11.142
-9.59364
-8.25193
-7.09174
-6.0904
-5.22674
-4.48188
-3.839
-3.28272
-2.79858
-2.37301
-1.99325
-1.64781
-1.32764
-1.02751
-0.746274
-0.485552
-0.247902
-0.0355448
0.150117
0.308554
0.440004
0.545335
0.625791
0.682683
0.717083
0.729552
0.720065
0.688298
0.634156
0.558192
0.461757
0.346983
0.216639
0.0738603
-0.0781692
-0.236473
-0.39841
-0.561701
-0.724369
-0.884672
-1.04103
-1.19196
-1.3361
-1.47217
-1.59901
-1.71562
-1.82117
-1.91503
-1.99678
-2.06621
-2.12333
-2.16829
-2.20141
-2.2231
-2.23387
-2.23424
-2.22481
-2.20617
-2.17895
-2.14381
-2.10138
-2.05231
-1.99723
-1.9367
-1.87127
-1.80144
-1.72768
-1.65044
-1.57016
-1.48731
-1.40238
-1.31587
-1.22832
-1.14025
-1.05217
-0.96459
-0.877954
-0.792674
-0.709111
-0.62756
-0.548294
-0.47146
-0.397374
-0.325752
-0.257831
-0.190625
-0.13265
-0.0614559
-0.0429858
-29.0385
-30.2742
-29.9021
-28.4809
-25.9061
-22.9186
-20.0249
-17.3757
-15.0154
-12.9563
-11.1735
-9.629
-8.29036
-7.1323
-6.13207
-5.2687
-4.52361
-3.88029
-3.32357
-2.83914
-2.41333
-2.0332
-1.68693
-1.36512
-1.06243
-0.777954
-0.513692
-0.272566
-0.0570306
0.131415
0.292241
0.425747
0.532863
0.614834
0.672851
0.707737
0.719757
0.708666
0.674132
0.616316
0.536215
0.435653
0.317139
0.183653
0.0384016
-0.11546
-0.275028
-0.43774
-0.601386
-0.764041
-0.924004
-1.07973
-1.22978
-1.37283
-1.50765
-1.63314
-1.74835
-1.85249
-1.94499
-2.02546
-2.09373
-2.14979
-2.19383
-2.22614
-2.24714
-2.25728
-2.2571
-2.24713
-2.22797
-2.20024
-2.16455
-2.12157
-2.07192
-2.01624
-1.9551
-1.88905
-1.81857
-1.74414
-1.66619
-1.58516
-1.50151
-1.41573
-1.32833
-1.23984
-1.1508
-1.06174
-0.973182
-0.885585
-0.799376
-0.714929
-0.63255
-0.552516
-0.474982
-0.400261
-0.328072
-0.259634
-0.191991
-0.13357
-0.0621053
-0.0430376
-29.3212
-30.2453
-29.8515
-28.4213
-25.8329
-22.8607
-19.9963
-17.373
-15.0287
-12.9784
-11.2015
-9.66132
-8.32617
-7.17059
-6.17178
-5.30901
-4.56401
-3.92061
-3.36386
-2.87954
-2.45395
-2.07389
-1.72715
-1.40398
-1.0989
-0.811215
-0.543382
-0.298711
-0.0799111
0.111416
0.274744
0.410422
0.519412
0.602906
0.661908
0.69696
0.708069
0.694882
0.657197
0.59553
0.511343
0.406905
0.28503
0.148844
0.00156116
-0.153732
-0.314225
-0.477442
-0.64124
-0.803743
-0.963285
-1.11835
-1.26754
-1.40956
-1.54323
-1.66748
-1.78142
-1.88429
-1.97556
-2.05488
-2.12208
-2.17718
-2.22036
-2.25192
-2.27224
-2.28177
-2.281
-2.27048
-2.25076
-2.22245
-2.18617
-2.14258
-2.09231
-2.036
-1.97422
-1.90753
-1.8364
-1.76129
-1.68264
-1.60087
-1.51643
-1.4298
-1.3415
-1.25205
-1.16202
-1.07195
-0.982374
-0.893773
-0.80659
-0.721212
-0.637956
-0.557109
-0.478829
-0.403429
-0.33063
-0.261635
-0.193521
-0.134608
-0.0628833
-0.0430412
-29.5703
-30.1932
-29.7844
-28.3425
-25.7423
-22.7895
-19.9574
-17.3622
-15.0366
-12.9965
-11.2258
-9.69044
-8.35914
-7.20636
-6.20928
-5.34741
-4.60285
-3.95974
-3.40336
-2.91959
-2.49467
-2.11514
-1.76834
-1.44409
-1.13677
-0.845924
-0.574481
-0.326193
-0.104036
0.0902818
0.25623
0.394187
0.505103
0.590053
0.649797
0.684593
0.694272
0.678525
0.637417
0.571878
0.483818
0.375875
0.251092
0.112666
-0.0362274
-0.192594
-0.353724
-0.517228
-0.681026
-0.843283
-1.00236
-1.15678
-1.30516
-1.44623
-1.57885
-1.70199
-1.81479
-1.91653
-2.00671
-2.08498
-2.15123
-2.20546
-2.24786
-2.27871
-2.29838
-2.30729
-2.30594
-2.29482
-2.2745
-2.24556
-2.20865
-2.16439
-2.11345
-2.05647
-1.99402
-1.92666
-1.85487
-1.7791
-1.69975
-1.61725
-1.53203
-1.44456
-1.35534
-1.26494
-1.17389
-1.08279
-0.992157
-0.902512
-0.814312
-0.727957
-0.643779
-0.562074
-0.483003
-0.406879
-0.33343
-0.263837
-0.195221
-0.135766
-0.063792
-0.0429965
-29.8311
-30.1211
-29.6993
-28.2425
-25.6319
-22.7023
-19.9053
-17.3401
-15.0356
-13.0084
-11.2454
-9.71571
-8.38884
-7.2393
-6.24432
-5.38372
-4.63997
-3.99753
-3.44193
-2.95914
-2.53533
-2.15675
-1.81028
-1.48525
-1.17584
-0.88187
-0.60678
-0.354801
-0.129196
0.0682166
0.236897
0.377218
0.490066
0.576333
0.636493
0.670547
0.678275
0.659573
0.614891
0.545597
0.453993
0.342995
0.215781
0.0755623
-0.0745582
-0.231691
-0.393225
-0.55685
-0.720541
-0.882499
-1.04111
-1.19491
-1.34255
-1.48277
-1.61446
-1.73662
-1.84842
-1.94917
-2.03838
-2.11575
-2.18114
-2.2346
-2.27628
-2.30647
-2.32552
-2.33384
-2.33188
-2.32014
-2.29917
-2.26957
-2.23195
-2.18699
-2.13533
-2.07762
-2.01447
-1.94642
-1.87395
-1.7975
-1.71747
-1.63425
-1.54826
-1.45995
-1.36984
-1.27846
-1.1864
-1.09423
-1.00251
-0.91179
-0.822531
-0.735158
-0.650015
-0.567406
-0.487502
-0.410613
-0.336472
-0.266241
-0.197089
-0.137045
-0.0648305
-0.0429056
-30.057
-30.0263
-29.6007
-28.1259
-25.5065
-22.6034
-19.8434
-17.3088
-15.0261
-13.0132
-11.2593
-9.73595
-8.41417
-7.26846
-6.27612
-5.41725
-4.67474
-4.03341
-3.47903
-2.99767
-2.57544
-2.1983
-1.85262
-1.52715
-1.21585
-0.918811
-0.640057
-0.384333
-0.155203
0.0453997
0.216906
0.359647
0.474381
0.561754
0.621941
0.654758
0.660074
0.638138
0.589864
0.517049
0.422307
0.308731
0.179556
0.0379537
-0.113063
-0.270709
-0.432467
-0.596095
-0.759615
-0.921255
-1.07942
-1.23266
-1.37964
-1.51912
-1.65
-1.77132
-1.88226
-1.98215
-2.07054
-2.14712
-2.21179
-2.26456
-2.30561
-2.33519
-2.35365
-2.36137
-2.3588
-2.34642
-2.32478
-2.29446
-2.2561
-2.21036
-2.15793
-2.09945
-2.03554
-1.96676
-1.8936
-1.81646
-1.73574
-1.65181
-1.56506
-1.47594
-1.38493
-1.29259
-1.19949
-1.10624
-1.01343
-0.921589
-0.831235
-0.742803
-0.656653
-0.573101
-0.492321
-0.414626
-0.339755
-0.268846
-0.199125
-0.138444
-0.0659947
-0.0427724
-30.2357
-29.9172
-29.4893
-27.9915
-25.3654
-22.4927
-19.7718
-17.2688
-15.0085
-13.011
-11.2677
-9.75185
-8.43563
-7.29412
-6.30479
-5.44805
-4.70717
-4.06735
-3.5146
-3.03513
-2.61496
-2.23976
-1.8953
-1.56974
-1.25672
-0.956658
-0.674206
-0.414667
-0.181928
0.0219531
0.196355
0.341516
0.458006
0.546195
0.605988
0.637125
0.639699
0.614413
0.562676
0.48667
0.389237
0.273557
0.142852
0.000223743
-0.151415
-0.309377
-0.471227
-0.634782
-0.7981
-0.959432
-1.1172
-1.26995
-1.41636
-1.55522
-1.68543
-1.80605
-1.91627
-2.01545
-2.10315
-2.17908
-2.24312
-2.29531
-2.3358
-2.36484
-2.38274
-2.38989
-2.3867
-2.37366
-2.35131
-2.32024
-2.28108
-2.23452
-2.18126
-2.12195
-2.05724
-1.98769
-1.91378
-1.83594
-1.75452
-1.66988
-1.58239
-1.49246
-1.40057
-1.30727
-1.21315
-1.11881
-1.02486
-0.931888
-0.840406
-0.750878
-0.663683
-0.579147
-0.497453
-0.418913
-0.343273
-0.271647
-0.201326
-0.139961
-0.0672781
-0.0426025
-30.368
-29.7889
-29.3613
-27.8375
-25.2085
-22.3703
-19.6905
-17.2199
-14.9825
-13.0012
-11.2696
-9.76265
-8.45293
-7.31609
-6.33015
-5.47592
-4.73704
-4.09911
-3.54841
-3.07126
-2.65363
-2.28085
-1.93809
-1.61279
-1.29825
-0.995215
-0.709033
-0.445615
-0.209193
-0.00196939
0.175343
0.322831
0.440832
0.529452
0.588423
0.617539
0.617218
0.588652
0.533722
0.454932
0.355267
0.237925
0.10607
-0.0372869
-0.18933
-0.347462
-0.509315
-0.672756
-0.835871
-0.996928
-1.15435
-1.3067
-1.45266
-1.59102
-1.72069
-1.84075
-1.9504
-2.04902
-2.13617
-2.21157
-2.27512
-2.32682
-2.36684
-2.39539
-2.41278
-2.41937
-2.41558
-2.40187
-2.37878
-2.34692
-2.30692
-2.25949
-2.20534
-2.14514
-2.07956
-2.00918
-1.93449
-1.8559
-1.77377
-1.68842
-1.60019
-1.50947
-1.41672
-1.32247
-1.22732
-1.13189
-1.0368
-0.942661
-0.850022
-0.759365
-0.671089
-0.585532
-0.502887
-0.423464
-0.34702
-0.274639
-0.203685
-0.141591
-0.0686722
-0.0424024
-30.4597
-29.637
-29.2152
-27.6642
-25.0367
-22.2372
-19.6001
-17.1624
-14.9485
-12.984
-11.265
-9.76786
-8.4657
-7.33428
-6.35211
-5.5007
-4.76417
-4.12847
-3.58018
-3.10575
-2.69111
-2.32125
-1.98067
-1.65601
-1.34016
-1.03421
-0.744268
-0.476912
-0.236748
-0.0261586
0.154002
0.303615
0.422762
0.511359
0.569109
0.59599
0.592796
0.561186
0.503442
0.422313
0.320862
0.202252
0.069566
-0.0742817
-0.226565
-0.384764
-0.546569
-0.709885
-0.87282
-1.03365
-1.19081
-1.34286
-1.48847
-1.62646
-1.75573
-1.87537
-1.9846
-2.08281
-2.16956
-2.24457
-2.30774
-2.35907
-2.3987
-2.42684
-2.44376
-2.44982
-2.44543
-2.43104
-2.40721
-2.37452
-2.33365
-2.2853
-2.23019
-2.16905
-2.10254
-2.03126
-1.95572
-1.87634
-1.79346
-1.70738
-1.61841
-1.52691
-1.43331
-1.33813
-1.24196
-1.14544
-1.0492
-0.953881
-0.860058
-0.768243
-0.678854
-0.592242
-0.508611
-0.42827
-0.350986
-0.277815
-0.206195
-0.14333
-0.0701669
-0.0421796
-30.5529
-29.4654
-29.0515
-27.4722
-24.8507
-22.0934
-19.5001
-17.0955
-14.9056
-12.9588
-11.2532
-9.76655
-8.47274
-7.34764
-6.36997
-5.52182
-4.78801
-4.1549
-3.60938
-3.13807
-2.72687
-2.36044
-2.02256
-1.69895
-1.38205
-1.07327
-0.779567
-0.508235
-0.264297
-0.0503604
0.132518
0.283958
0.403802
0.491896
0.548082
0.572634
0.56673
0.532418
0.472296
0.389277
0.286448
0.166909
0.0336488
-0.110507
-0.262914
-0.421115
-0.582849
-0.746052
-0.908849
-1.06952
-1.2265
-1.37835
-1.52375
-1.66149
-1.79051
-1.90988
-2.01885
-2.11679
-2.20328
-2.27805
-2.34097
-2.39204
-2.43137
-2.45916
-2.47568
-2.48124
-2.47626
-2.4612
-2.4366
-2.40307
-2.36128
-2.31196
-2.25586
-2.1937
-2.12619
-2.05394
-1.97749
-1.89725
-1.81357
-1.72673
-1.63701
-1.54473
-1.4503
-1.35421
-1.25704
-1.15942
-1.06203
-0.965515
-0.870488
-0.777489
-0.686957
-0.59926
-0.51461
-0.433319
-0.355161
-0.281165
-0.208848
-0.145172
-0.0717512
-0.0419416
-30.6009
-29.2732
-28.8741
-27.2653
-24.654
-21.9417
-19.3926
-17.0209
-14.8551
-12.9264
-11.2349
-9.75943
-8.47442
-7.35613
-6.38355
-5.5391
-4.8083
-4.17809
-3.63567
-3.16786
-2.76056
-2.39807
-2.06342
-1.74133
-1.42364
-1.11214
-0.814684
-0.539343
-0.29161
-0.0743697
0.111054
0.263977
0.384052
0.4712
0.525564
0.547794
0.539426
0.502809
0.440752
0.356262
0.252408
0.132215
-0.00141706
-0.145747
-0.298199
-0.45637
-0.618037
-0.781158
-0.943871
-1.10446
-1.26136
-1.41312
-1.55842
-1.69606
-1.82497
-1.94423
-2.05309
-2.15093
-2.23732
-2.31198
-2.37479
-2.42571
-2.46484
-2.49236
-2.50852
-2.51363
-2.50808
-2.49235
-2.46698
-2.43259
-2.38986
-2.33953
-2.28237
-2.21914
-2.15055
-2.07726
-1.99981
-1.91864
-1.8341
-1.74646
-1.65597
-1.56291
-1.46765
-1.37066
-1.2725
-1.1738
-1.07525
-0.977533
-0.881285
-0.787078
-0.695378
-0.606568
-0.52087
-0.438596
-0.359533
-0.28468
-0.211635
-0.147109
-0.0734136
-0.0416961
-30.5999
-29.0665
-28.6824
-27.0423
-24.4464
-21.7822
-19.2775
-16.9386
-14.7972
-12.8873
-11.2106
-9.74681
-8.47103
-7.35987
-6.39288
-5.55278
-4.82538
-4.19831
-3.65928
-3.19531
-2.79231
-2.43426
-2.10335
-1.7832
-1.46496
-1.1508
-0.849556
-0.57016
-0.318614
-0.0981348
0.0896351
0.243701
0.363605
0.449477
0.501884
0.521895
0.511358
0.472834
0.409255
0.32366
0.219075
0.0984466
-0.0354086
-0.179821
-0.332272
-0.490404
-0.652025
-0.815112
-0.977808
-1.1384
-1.29532
-1.4471
-1.59244
-1.73011
-1.85907
-1.97838
-2.08729
-2.18519
-2.27164
-2.34635
-2.40917
-2.46007
-2.4991
-2.52644
-2.5423
-2.54699
-2.54091
-2.52452
-2.49838
-2.46311
-2.41941
-2.36805
-2.30978
-2.24541
-2.17568
-2.10125
-2.02272
-1.94055
-1.85508
-1.76658
-1.67527
-1.58141
-1.48533
-1.38745
-1.28831
-1.18854
-1.08883
-0.989902
-0.892418
-0.796985
-0.704094
-0.614146
-0.527373
-0.444089
-0.364092
-0.28835
-0.214548
-0.149135
-0.0751426
-0.0414506
-30.5489
-28.84
-28.4734
-26.8028
-24.2285
-21.6152
-19.155
-16.8486
-14.7319
-12.8414
-11.1801
-9.7286
-8.46242
-7.35868
-6.39749
-5.56222
-4.83884
-4.21525
-3.67986
-3.22004
-2.82176
-2.46867
-2.14207
-1.82434
-1.50583
-1.18909
-0.884055
-0.600597
-0.34528
-0.121697
0.0681723
0.223069
0.342517
0.426954
0.477419
0.495398
0.483009
0.442951
0.37821
0.291814
0.186731
0.0658329
-0.068138
-0.212573
-0.365003
-0.523108
-0.68472
-0.84783
-1.01059
-1.17127
-1.32831
-1.48025
-1.62575
-1.76361
-1.89277
-2.01229
-2.12142
-2.21955
-2.30622
-2.38114
-2.44412
-2.49511
-2.53415
-2.56138
-2.57701
-2.58134
-2.57475
-2.55772
-2.53081
-2.49466
-2.44998
-2.39754
-2.33813
-2.27257
-2.20162
-2.12598
-2.04628
-1.963
-1.87652
-1.78708
-1.69491
-1.60022
-1.5033
-1.40454
-1.30443
-1.2036
-1.10274
-1.00259
-0.90386
-0.807185
-0.713085
-0.621976
-0.534103
-0.449783
-0.368824
-0.292165
-0.217575
-0.151243
-0.076927
-0.0412118
-30.4562
-28.5927
-28.2475
-26.5484
-24.0016
-21.4414
-19.0253
-16.751
-14.6593
-12.7889
-11.1436
-9.70478
-8.44851
-7.35242
-6.39722
-5.56692
-4.84807
-4.22849
-3.69701
-3.24162
-2.84844
-2.50082
-2.17912
-1.86434
-1.54588
-1.22668
-0.917905
-0.63045
-0.371507
-0.145068
0.0465905
0.202041
0.320884
0.403895
0.452565
0.468766
0.454839
0.413577
0.347973
0.261017
0.155615
0.0345669
-0.0994475
-0.243873
-0.396283
-0.554387
-0.716038
-0.879237
-1.04214
-1.20302
-1.36029
-1.51251
-1.65832
-1.79651
-1.92603
-2.04593
-2.15546
-2.25399
-2.34106
-2.41633
-2.47962
-2.53084
-2.56999
-2.5972
-2.61267
-2.61668
-2.60962
-2.59198
-2.56431
-2.52728
-2.4816
-2.42805
-2.36747
-2.30066
-2.22842
-2.1515
-2.07054
-1.98606
-1.89846
-1.80801
-1.71491
-1.61934
-1.52156
-1.4219
-1.32083
-1.21894
-1.11693
-1.01557
-0.915582
-0.817654
-0.722327
-0.630039
-0.541046
-0.455665
-0.373718
-0.296114
-0.220708
-0.153425
-0.0787565
-0.0409858
-30.3602
-28.3292
-28.0068
-26.2808
-23.7672
-21.2614
-18.8887
-16.6461
-14.5797
-12.73
-11.1013
-9.67554
-8.42942
-7.34117
-6.39213
-5.56688
-4.85269
-4.23763
-3.71033
-3.25958
-2.87183
-2.53016
-2.21396
-1.90269
-1.58463
-1.26314
-0.950707
-0.659386
-0.397056
-0.168104
0.0249811
0.180743
0.298935
0.380643
0.427744
0.442441
0.427268
0.385078
0.318847
0.231514
0.125923
0.00480986
-0.129204
-0.273608
-0.426013
-0.584154
-0.7459
-0.909262
-1.07239
-1.23357
-1.3912
-1.54382
-1.69008
-1.82877
-1.95882
-2.07928
-2.18939
-2.2885
-2.37614
-2.45194
-2.51568
-2.56724
-2.60662
-2.6339
-2.64927
-2.65302
-2.64554
-2.62731
-2.5989
-2.56098
-2.51429
-2.45963
-2.39782
-2.32972
-2.25615
-2.17786
-2.09555
-2.00978
-1.92096
-1.82939
-1.73528
-1.63878
-1.5401
-1.43953
-1.33749
-1.23455
-1.13139
-1.0288
-0.927558
-0.828367
-0.731802
-0.638318
-0.548185
-0.461722
-0.378763
-0.300187
-0.223937
-0.155676
-0.0806216
-0.0407781
-30.2174
-28.0497
-27.754
-26.0026
-23.5273
-21.0765
-18.746
-16.5347
-14.4939
-12.6654
-11.0538
-9.64142
-8.40565
-7.3254
-6.38265
-5.56254
-4.853
-4.24282
-3.72019
-3.2742
-2.89208
-2.55673
-2.24655
-1.9393
-1.62195
-1.29824
-0.982171
-0.687089
-0.421618
-0.19052
0.00363337
0.159502
0.277045
0.357612
0.403382
0.416832
0.40066
0.35776
0.291081
0.203507
0.0978199
-0.0233037
-0.157293
-0.30168
-0.454107
-0.612331
-0.774236
-0.93784
-1.10129
-1.26287
-1.42098
-1.57414
-1.72101
-1.86036
-1.99112
-2.11233
-2.2232
-2.32308
-2.41146
-2.48795
-2.55229
-2.60433
-2.64404
-2.67148
-2.68684
-2.69039
-2.68252
-2.66373
-2.6346
-2.5958
-2.5481
-2.4923