/*--------------------------------*- C++ -*----------------------------------*\
| =========                 |                                                 |
| \\      /  F ield         | OpenFOAM: The Open Source CFD Toolbox           |
|  \\    /   O peration     | Version:  4.1                                   |
|   \\  /    A nd           | Web:      www.OpenFOAM.org                      |
|    \\/     M anipulation  |                                                 |
\*---------------------------------------------------------------------------*/
FoamFile
{
    version     2.0;
    format      ascii;
    class       surfaceScalarField;
    location    "300";
    object      phi;
}
// * * * * * * * * * * * * * * * * * * * * * * * * * * * * * * * * * * * * * //

dimensions      [0 3 -1 0 0 0 0];

internalField   nonuniform List<scalar> 
52920
(
3175.24
-172.359
3285.08
-109.842
3347.01
-61.9303
3372.94
-25.9293
3376.62
-3.67356
3369.04
7.58002
3356.85
12.1881
3343.55
13.2962
3330.68
12.8722
3318.54
12.1393
3306.71
11.8253
3294.4
12.3163
3280.64
13.7596
3264.51
16.1306
3245.23
19.2793
3222.26
22.9691
3195.35
26.9109
3164.55
30.7977
3130.21
34.338
3092.93
37.2858
3053.47
39.4595
3012.72
40.746
2971.62
41.0945
2931.11
40.5095
2892.07
39.0476
2855.25
36.8127
2821.31
33.9471
2790.69
30.6156
2763.7
26.9903
2740.46
23.2365
2720.96
19.5034
2705.04
15.9184
2692.46
12.5848
2682.88
9.58159
2675.91
6.96174
2671.16
4.75039
2668.22
2.94133
2666.72
1.49915
2666.35
0.372241
2666.82
-0.472441
2667.83
-1.00555
2668.93
-1.10527
2669.47
-0.538792
2668.49
0.982927
2664.79
3.69522
2657.08
7.71042
2644.09
12.9943
2624.71
19.3736
2598.15
26.5654
2563.93
34.2136
2522.01
41.9251
2472.71
49.3014
2416.74
55.9684
2355.14
61.6016
2289.19
65.9467
2220.36
68.8317
2150.19
70.1708
2080.23
69.9606
2011.96
68.2718
1946.72
65.2377
1885.68
61.0422
1829.77
55.9082
1779.68
50.0849
1735.85
43.8368
1698.42
37.43
1667.3
31.1203
1642.15
25.1404
1622.46
19.6899
1607.54
14.9259
1596.58
10.9576
1588.74
7.8416
1583.16
5.58051
1579.04
4.12306
1575.67
3.36797
1572.5
3.17192
1569.13
3.36228
1565.38
3.75361
1561.21
4.16609
1556.77
4.44286
1552.31
4.46543
1548.14
4.16363
1544.62
3.51885
1542.06
2.56575
1540.67
1.38974
1540.55
0.11444
1541.68
-1.12232
1543.89
-2.21329
1546.98
-3.09505
1550.72
-3.73914
1554.87
-4.1474
1559.21
-4.34409
1563.58
-4.36462
1567.83
-4.24698
1571.84
-4.01478
1575.54
-3.70318
1578.82
-3.2751
1581.72
-2.90251
1583.87
-2.14737
1586.31
-2.44607
-0.287472
3257.23
-344.446
3368.63
-221.245
3432.22
-125.515
3459.11
-52.8202
3462.14
-6.70272
3452.42
17.2952
3437.24
27.369
3420.46
30.0735
3403.77
29.5683
3387.52
28.3887
3371.35
27.9895
3354.56
29.1061
3336.33
31.9946
3315.88
36.5807
3292.6
42.5573
3266.11
49.4587
3236.29
56.7263
3203.32
63.7744
3167.6
70.0581
3129.75
75.1313
3090.53
78.6799
3050.75
80.5243
3011.25
80.6015
2972.81
78.9474
2936.17
75.6885
2901.94
71.0352
2870.63
65.2642
2842.55
58.6909
2817.9
51.6397
2796.72
44.4187
2778.92
37.3028
2764.31
30.5236
2752.63
24.2661
2743.55
18.6675
2736.69
13.8144
2731.71
9.73404
2728.26
6.38691
2726.09
3.67067
2725
1.46272
2724.82
-0.288725
2725.24
-1.42757
2725.66
-1.52216
2725.06
0.0554652
2722.13
3.91083
2715.39
10.4428
2703.34
19.7567
2684.72
31.6105
2658.63
45.4661
2624.61
60.5907
2582.65
76.1642
2533.22
91.3634
2477.1
105.421
2415.4
117.667
2349.45
127.553
2280.71
134.679
2210.75
138.798
2141.1
139.821
2073.25
137.81
2008.56
132.962
1948.2
125.589
1893.14
116.105
1844.06
104.995
1801.34
92.7995
1765.1
80.0784
1735.15
67.3833
1711.04
55.2231
1692.15
44.0344
1677.68
34.1597
1666.77
25.8338
1658.55
19.1798
1652.18
14.2105
1646.93
10.8349
1642.18
8.86954
1637.49
8.05455
1632.59
8.07667
1627.35
8.59629
1621.83
9.27782
1616.18
9.8196
1610.64
9.98053
1605.5
9.60074
1601.05
8.61183
1597.54
7.03734
1595.12
4.98371
1593.89
2.62216
1593.83
0.169461
1594.85
-2.141
1596.76
-4.12393
1599.33
-5.66957
1602.33
-6.73985
1605.54
-7.35406
1608.77
-7.57039
1611.87
-7.46321
1614.73
-7.10583
1617.25
-6.54144
1619.38
-5.82857
1621.01
-4.90353
1622.15
-4.04976
1622.57
-2.56457
1622.85
-2.72844
1.04502
3277.05
-522.083
3395.22
-339.417
3465.57
-195.866
3498.14
-85.3845
3504.69
-13.2539
3496.25
25.733
3480.62
43.0049
3462.08
48.6096
3442.59
49.0538
3422.71
48.2679
3402.26
48.4479
3380.71
50.6513
3357.5
55.2051
3332.13
61.9554
3304.26
70.4272
3273.77
79.9394
3240.8
89.702
3205.66
98.9117
3168.87
106.847
3131.06
112.943
3092.91
116.829
3055.12
118.318
3018.35
117.372
2983.22
114.073
2950.29
108.619
2920.01
101.315
2892.71
92.5598
2868.6
82.8068
2847.72
72.5208
2829.99
62.142
2815.24
52.0588
2803.17
42.5914
2793.45
33.9858
2785.7
26.412
2779.56
19.9593
2774.67
14.6214
2770.77
10.2839
2767.71
6.73946
2765.39
3.77416
2763.76
1.34407
2762.52
-0.189011
2760.98
0.020592
2757.97
3.06137
2751.99
9.89745
2741.31
21.1143
2724.32
36.7493
2699.71
56.2195
2666.74
78.4418
2625.28
102.052
2575.81
125.627
2519.33
147.85
2457.15
167.599
2390.83
183.984
2322.03
196.351
2252.43
204.279
2183.66
207.576
2117.22
206.261
2054.47
200.557
1996.56
190.871
1944.38
177.774
1898.51
161.973
1859.23
144.274
1826.49
125.542
1799.92
106.641
1778.93
88.3806
1762.69
71.4638
1750.28
56.4426
1740.74
43.6954
1733.16
33.4195
1726.7
25.6373
1720.7
20.2133
1714.65
16.8781
1708.26
15.2586
1701.41
14.9128
1694.11
15.3671
1686.56
16.1551
1678.98
16.8539
1671.68
17.1168
1664.96
16.6991
1659.09
15.4747
1654.27
13.4365
1650.61
10.6912
1648.16
7.43248
1646.88
3.90308
1646.67
0.385038
1647.35
-2.82904
1648.74
-5.50685
1650.58
-7.51145
1652.65
-8.81051
1654.74
-9.44847
1656.69
-9.51855
1658.36
-9.13041
1659.64
-8.38615
1660.44
-7.34517
1660.69
-6.07978
1660.31
-4.521
1659.27
-3.00891
1657.48
-0.774474
1655.11
-0.359472
4.4724
3251.52
-706.558
3378.07
-465.975
3457.83
-275.62
3499.47
-127.03
3513.18
-26.9591
3509.34
29.5674
3496.11
56.2365
3478.22
66.4983
3457.96
69.3118
3436.15
70.085
3412.81
71.7836
3387.69
75.7768
3360.46
82.4318
3330.93
91.4828
3299.09
102.265
3265.15
113.885
3229.5
125.352
3192.7
135.71
3155.39
144.152
3118.25
150.091
3081.89
153.189
3046.89
153.316
3013.76
150.499
2982.95
144.887
2954.81
136.755
2929.61
126.51
2907.5
114.677
2888.45
101.85
2872.34
88.6327
2858.9
75.5853
2847.77
63.1851
2838.56
51.8044
2830.84
41.7044
2824.21
33.038
2818.33
25.8446
2812.92
20.0318
2807.84
15.3594
2803.1
11.4826
2798.75
8.11798
2794.76
5.33774
2790.73
3.84575
2785.78
4.9702
2778.58
10.2605
2767.47
21.0026
2750.71
37.8779
2726.74
60.7141
2694.52
88.4381
2653.67
119.293
2604.53
151.196
2548.07
182.088
2485.74
210.175
2419.3
234.046
2350.59
252.69
2281.48
265.462
2213.71
272.046
2148.87
272.416
2088.32
266.815
2033.14
255.729
1984.15
239.869
1941.78
220.139
1906.16
197.596
1877.04
173.387
1853.91
148.679
1835.97
124.579
1822.29
102.057
1811.87
81.8895
1803.69
64.621
1796.83
50.5504
1790.51
39.7388
1784.12
32.0327
1777.23
27.0993
1769.64
24.4691
1761.32
23.5836
1752.38
23.8452
1743.09
24.6647
1733.73
25.5059
1724.67
25.9226
1716.2
25.5869
1708.59
24.3074
1702.03
22.0331
1696.62
18.8422
1692.39
14.9264
1689.27
10.5467
1687.19
5.98876
1686.02
1.55632
1685.63
-2.44558
1685.88
-5.75258
1686.57
-8.19919
1687.5
-9.74734
1688.5
-10.4491
1689.4
-10.4125
1690.03
-9.76242
1690.26
-8.61383
1689.95
-7.03259
1688.96
-5.0977
1687.21
-2.76757
1684.63
-0.424019
1681.22
2.63412
1676.94
3.91602
9.57568
3194.14
-892.248
3326.38
-598.215
3415.25
-364.491
3467.48
-179.265
3490.84
-50.3182
3494.23
26.181
3485.74
64.7213
3470.56
81.6812
3451.39
88.4814
3429.4
92.0804
3404.91
96.2645
3377.96
102.734
3348.5
111.894
3316.62
123.355
3282.63
136.254
3247.03
149.491
3210.47
161.911
3173.71
172.471
3137.5
180.36
3102.53
185.062
3069.37
186.35
3038.47
184.214
3010.18
178.789
2984.74
170.323
2962.3
159.193
2942.89
145.928
2926.37
131.191
2912.51
115.714
2900.92
100.218
2891.17
85.3356
2882.78
71.5738
2875.3
59.2888
2868.31
48.6941
2861.48
39.8706
2854.56
32.7619
2847.45
27.1449
2840.18
22.6204
2832.95
18.7205
2825.87
15.1947
2818.82
12.3905
2811.18
11.481
2801.84
14.3111
2789.24
22.863
2771.59
38.6481
2747.22
62.25
2714.87
93.0617
2673.98
129.331
2624.75
168.525
2568.11
207.834
2505.56
244.635
2438.96
276.777
2370.31
302.694
2301.61
321.388
2234.72
332.351
2171.28
335.487
2112.65
331.052
2059.85
319.608
2013.59
301.997
1974.15
279.302
1941.5
252.794
1915.22
223.871
1894.65
193.961
1878.89
164.436
1866.95
136.518
1857.81
111.205
1850.47
89.2285
1844.06
71.0279
1837.85
56.7554
1831.3
46.2975
1824.02
39.3123
1815.84
35.2779
1806.76
33.5497
1796.92
33.4205
1786.58
34.1818
1776.07
35.178
1765.72
35.853
1755.86
35.7831
1746.75
34.696
1738.58
32.4776
1731.46
29.1598
1725.4
24.8998
1720.37
19.9517
1716.3
14.6167
1713.09
9.20257
1710.65
3.99743
1708.92
-0.714181
1707.81
-4.6506
1707.23
-7.61605
1707.03
-9.54164
1707.04
-10.4607
1707.09
-10.4679
1707.01
-9.6778
1706.59
-8.19505
1705.63
-6.07745
1703.96
-3.41899
1701.42
-0.235503
1697.96
3.04404
1693.59
6.99481
1688.23
9.28512
15.8106
3107.05
-1079.37
3244.44
-735.602
3340.33
-460.385
3401.26
-240.193
3434.01
-83.0711
3445.87
14.3165
3444.02
66.5795
3433.62
92.0737
3417.7
104.41
3397.73
112.043
3374.41
119.591
3348.03
129.107
3318.87
141.052
3287.31
154.919
3253.91
169.658
3219.41
183.985
3184.69
196.63
3150.63
206.534
3118.02
212.971
3087.5
215.583
3059.52
214.33
3034.35
209.379
3012.13
201.016
2992.83
189.616
2976.35
175.673
2962.44
159.84
2950.74
142.893
2940.8
125.656
2932.12
108.896
2924.2
93.2485
2916.61
79.1705
2908.95
66.943
2900.96
56.6918
2892.42
48.4041
2883.28
41.9084
2873.59
36.8308
2863.59
32.6239
2853.52
28.7822
2843.48
25.2354
2833.13
22.7469
2821.56
23.0464
2807.35
28.52
2788.7
41.5151
2763.76
63.584
2731.07
94.9478
2689.83
134.297
2640.15
179.013
2582.94
225.73
2519.79
270.987
2452.67
311.754
2383.73
345.715
2315.09
371.336
2248.68
387.794
2186.18
394.851
2128.93
392.745
2077.87
382.104
2033.59
363.888
1996.26
339.334
1965.66
309.899
1941.27
277.181
1922.32
242.825
1907.86
208.423
1896.88
175.416
1888.38
145.012
1881.45
118.142
1875.26
95.4185
1869.14
77.1413
1862.59
63.3036
1855.27
53.625
1846.98
47.5949
1837.73
44.5316
1827.63
43.6499
1816.92
44.1338
1805.89
45.2054
1794.89
46.1835
1784.21
46.5276
1774.13
45.8625
1764.84
43.9871
1756.45
40.8654
1749.01
36.6042
1742.49
31.4214
1736.83
25.6098
1731.95
19.4926
1727.78
13.3812
1724.23
7.54081
1721.3
2.22094
1718.96
-2.31749
1717.2
-5.85533
1715.93
-8.27359
1715.03
-9.56093
1714.34
-9.77079
1713.64
-8.97915
1712.7
-7.25717
1711.27
-4.64339
1709.11
-1.26367
1706.09
2.78904
1702.09
7.04311
1697.15
11.9374
1691.15
15.2813
22.8092
3033.14
-1265.33
3171.47
-873.935
3270.14
-559.054
3335.76
-305.805
3374.26
-121.577
3391.59
-3.00798
3394.19
63.9784
3387.28
98.9793
3374.01
117.68
3356.06
129.998
3334.28
141.363
3309.23
154.159
3281.41
168.879
3251.43
184.892
3220.12
200.97
3188.42
215.69
3157.3
227.746
3127.67
236.166
3100.23
240.41
3075.45
240.364
3053.55
236.229
3034.54
228.384
3018.29
217.273
3004.52
203.385
2992.88
187.306
2982.96
169.762
2974.27
151.586
2966.3
133.62
2958.59
116.61
2950.71
101.126
2942.35
87.5369
2933.26
76.0292
2923.31
66.6406
2912.45
59.2648
2900.75
53.6039
2888.45
49.1338
2875.86
45.2136
2863.22
41.4185
2850.45
38.007
2836.91
36.2886
2821.33
38.6232
2801.94
47.9137
2776.74
66.7138
2743.99
96.3371
2702.62
136.32
2652.52
184.389
2594.6
236.94
2530.51
289.815
2462.43
339.07
2392.68
381.499
2323.54
414.856
2257.04
437.843
2194.86
449.973
2138.31
451.4
2088.27
442.78
2045.21
425.168
2009.16
399.933
1979.81
368.682
1956.54
333.175
1938.49
295.227
1924.71
256.607
1914.2
218.937
1905.99
183.619
1899.23
151.774
1893.16
124.214
1887.16
101.42
1880.75
83.5511
1873.59
70.456
1865.51
61.7068
1856.46
56.6488
1846.52
54.4684
1835.9
54.2727
1824.86
55.1716
1813.71
56.353
1802.76
57.1414
1792.25
57.035
1782.39
55.7216
1773.3
53.0729
1765.04
49.1249
1757.6
44.0449
1750.93
38.094
1744.95
31.5872
1739.59
24.853
1734.78
18.1945
1730.46
11.8614
1726.62
6.06161
1723.29
1.01041
1720.51
-3.07707
1718.28
-6.03865
1716.51
-7.79179
1715.06
-8.32326
1713.72
-7.64155
1712.22
-5.75889
1710.29
-2.70607
1707.67
1.35418
1704.21
6.25302
1699.77
11.4753
1694.37
17.3404
1687.92
21.7317
30.3928
2957.76
-1448.96
3095.84
-1012.02
3196.19
-659.403
3265.53
-375.151
3309.23
-165.28
3331.87
-25.6477
3338.93
56.9161
3335.59
102.323
3325.18
128.094
3309.59
145.579
3289.93
161.025
3266.94
177.148
3241.35
194.469
3214.01
212.231
3185.93
229.057
3158.16
243.455
3131.72
254.184
3107.42
260.47
3085.77
262.059
3067
259.137
3051.05
252.177
3037.67
241.76
3026.48
228.461
3017.03
212.841
3008.81
195.52
3001.34
177.237
2994.11
158.815
2986.67
141.056
2978.65
124.634
2969.75
110.024
2959.79
97.4923
2948.68
87.1394
2936.4
78.9247
2923.02
72.6426
2908.77
67.8585
2893.98
63.9203
2879.01
60.178
2864.01
56.4278
2848.6
53.4169
2831.75
53.1289
2811.79
58.5889
2786.6
73.1034
2754.15
99.1606
2713.02
137.469
2662.8
186.542
2604.24
242.951
2539.07
302.107
2469.66
359.229
2398.58
410.15
2328.31
451.767
2261.02
482.144
2198.46
500.406
2141.9
506.527
2092.17
501.133
2049.62
485.334
2014.19
460.6
1985.46
428.66
1962.74
391.402
1945.14
350.776
1931.68
308.688
1921.37
266.913
1913.29
227.016
1906.61
190.296
1900.63
157.755
1894.77
130.076
1888.57
107.617
1881.72
90.4094
1874
78.1739
1865.35
70.3538
1855.83
66.172
1845.59
64.7089
1834.87
64.9931
1823.95
66.0917
1813.11
67.188
1802.62
67.6359
1792.66
66.9887
1783.38
65.0026
1774.83
61.6197
1767.02
56.9383
1759.89
51.1725
1753.38
44.611
1747.39
37.5779
1741.85
30.3935
1736.7
23.3445
1731.9
16.6611
1727.44
10.5189
1723.36
5.08445
1719.75
0.540754
1716.64
-2.93314
1714.03
-5.18193
1711.8
-6.0926
1709.74
-5.58144
1707.57
-3.59211
1705.02
-0.156101
1701.85
4.52566
1697.88
10.2223
1692.98
16.3808
1687.1
23.2177
1680.21
28.6218
38.4951
2880.63
-1628.28
3016.66
-1148.05
3117.67
-760.42
3190.21
-447.683
3238.87
-213.947
3266.92
-53.6939
3278.72
45.112
3279.31
101.738
3272.2
135.199
3259.55
158.228
3242.68
177.895
3222.56
197.267
3200.13
216.902
3176.42
235.944
3152.55
252.924
3129.63
266.371
3108.6
275.22
3090.07
278.994
3074.34
277.789
3061.36
272.123
3050.8
262.728
3042.21
250.359
3035
235.67
3028.6
219.238
3022.46
201.654
3016.09
183.608
3009.06
165.853
3001
149.107
2991.7
133.938
2981.01
120.713
2968.89
109.612
2955.36
100.668
2940.52
93.7701
2924.56
88.6036
2907.81
84.5991
2890.71
81.0247
2873.56
77.3314
2856.29
73.6957
2838.19
71.5169
2817.76
73.5552
2792.88
83.4666
2761.24
104.745
2720.96
139.44
2671.19
187.24
2612.39
245.34
2546.27
309.076
2475.35
373.023
2402.51
432.065
2330.53
482.137
2261.77
520.521
2198.11
545.806
2140.84
557.674
2090.74
556.635
2048.07
543.802
2012.69
520.712
1984.1
489.186
1961.55
451.214
1944.1
408.853
1930.75
364.122
1920.52
318.917
1912.5
274.937
1905.88
233.635
1899.99
196.185
1894.28
163.462
1888.33
136.032
1881.81
114.138
1874.52
97.6981
1866.37
86.3209
1857.39
79.3373
1847.69
75.8678
1837.49
74.9112
1827.04
75.4455
1816.6
76.5234
1806.44
77.3487
1796.76
77.3238
1787.68
76.0672
1779.27
73.4055
1771.55
69.3459
1764.45
64.0381
1757.89
57.7297
1751.78
50.7242
1746.01
43.3413
1740.52
35.884
1735.26
28.6117
1730.19
21.7265
1725.33
15.3783
1720.72
9.69328
1716.45
4.81764
1712.58
0.929002
1709.16
-1.76306
1706.11
-3.03621
1703.22
-2.69374
1700.25
-0.623475
1696.95
3.14492
1693.09
8.38451
1688.5
14.8164
1683.02
21.8636
1676.58
29.6487
1669.19
36.0164
47.1182
2796.77
-1797.31
2928.06
-1279.34
3028.71
-861.075
3104.56
-523.529
3159.27
-268.657
3194.28
-88.7075
3212.34
27.0553
3218.04
96.0358
3215.21
138.03
3206.36
167.08
3193.12
191.13
3176.74
213.654
3158.34
235.301
3139.11
255.173
3120.24
271.793
3102.79
283.819
3087.54
290.466
3074.9
291.636
3064.88
287.813
3057.16
279.841
3051.2
268.683
3046.35
255.21
3041.92
240.099
3037.29
223.868
3031.93
207.015
3025.42
190.115
3017.47
173.81
3007.88
158.699
2996.58
145.237
2983.59
133.7
2968.99
124.21
2952.9
116.756
2935.52
111.158
2917.13
106.99
2898.16
103.566
2879.04
100.15
2859.93
96.4335
2840.48
93.1453
2819.52
92.4861
2795.04
98.0323
2764.58
113.928
2725.8
143.517
2677.28
187.962
2618.98
245.54
2552.38
311.94
2480.1
381.355
2405.32
447.81
2331.16
506.224
2260.32
552.969
2194.88
585.964
2136.21
604.472
2085.09
608.796
2041.74
599.99
2005.93
579.612
1977.09
549.549
1954.4
511.873
1936.89
468.724
1923.53
422.214
1913.32
374.337
1905.33
326.904
1898.77
281.492
1892.99
239.42
1887.44
201.73
1881.73
169.178
1875.54
142.22
1868.68
120.999
1861.04
105.333
1852.63
94.7303
1843.54
88.4248
1833.96
85.4552
1824.1
84.7633
1814.25
85.3035
1804.63
86.1406
1795.46
86.5208
1786.87
85.9095
1778.94
83.9975
1771.67
80.6805
1764.99
76.0235
1758.81
70.216
1753.01
63.5259
1747.48
56.2574
1742.11
48.7148
1736.82
41.1731
1731.57
33.8567
1726.37
26.9301
1721.24
20.5092
1716.24
14.6919
1711.46
9.60144
1706.96
5.42391
1702.78
2.41806
1698.86
0.888018
1695.04
1.12028
1691.15
3.27309
1686.96
7.32899
1682.28
13.0625
1676.93
20.1692
1670.75
28.0487
1663.66
36.7376
1655.66
44.0099
56.2932
2705.89
-1964.44
2835.82
-1409.26
2934.67
-959.924
3009.74
-598.598
3066.02
-324.935
3105.28
-127.968
3129.16
3.17572
3140.94
84.2541
3144.04
134.922
3140.99
170.136
3133.52
198.601
3122.98
224.187
3110.62
247.661
3097.67
268.132
3085.27
284.186
3074.39
294.699
3065.61
299.248
3059.09
298.159
3054.59
292.308
3051.6
282.838
3049.39
270.886
3047.23
257.371
3044.42
242.916
3040.37
227.911
3034.69
212.694
3027.12
197.689
3017.53
183.402
3005.91
170.313
2992.36
158.787
2977.01
149.048
2960.03
141.189
2941.62
135.171
2922.03
130.742
2901.66
127.363
2880.95
124.276
2860.25
120.854
2839.48
117.2
2817.84
114.783
2793.62
116.706
2764.36
127.29
2727.42
150.869
2680.77
190.168
2623.74
244.991
2557.37
311.917
2484.16
385.15
2407.5
458.011
2330.93
524.382
2257.54
579.608
2189.72
620.793
2129.02
646.659
2076.29
657.211
2031.71
653.37
1995.02
636.677
1965.58
609.052
1942.51
572.627
1924.77
529.613
1911.29
482.197
1901.05
432.455
1893.1
382.288
1886.63
333.374
1880.97
287.148
1875.61
244.787
1870.13
207.207
1864.25
175.055
1857.78
148.689
1850.62
128.161
1842.76
113.201
1834.26
103.226
1825.29
97.3909
1816.08
94.6734
1806.86
93.9832
1797.88
94.2782
1789.36
94.6596
1781.45
94.4355
1774.21
93.1463
1767.65
90.5585
1761.7
86.6335
1756.24
81.4844
1751.12
75.3279
1746.21
68.4377
1741.36
61.1053
1736.47
53.6072
1731.46
46.1805
1726.32
39.0053
1721.04
32.2012
1715.71
25.8466
1710.38
20.016
1705.15
14.8316
1700.07
10.5042
1695.15
7.33802
1690.35
5.69017
1685.58
5.89397
1680.7
8.15049
1675.55
12.4761
1669.95
18.6644
1663.72
26.3985
1656.71
35.0543
1648.86
44.5885
1640.17
52.7
66.062
2633.17
-2128.33
2760.22
-1536.31
2856.83
-1056.54
2930.95
-672.717
2987.73
-381.711
3028.74
-168.988
3055.15
-23.2343
3069.91
69.5034
3076.46
128.366
3077.36
169.232
3074.41
201.558
3068.97
229.625
3062.27
254.36
3055.45
274.953
3049.48
290.153
3045.05
299.134
3042.42
301.875
3041.46
299.115
3041.7
292.072
3042.43
282.105
3042.88
270.436
3042.3
257.954
3040.06
245.152
3035.73
232.237
3029.07
219.354
3020.01
206.757
3008.58
194.824
2994.95
183.942
2979.32
174.423
2961.89
166.473
2942.9
160.184
2922.59
155.482
2901.3
152.028
2879.48
149.182
2857.56
146.196
2835.7
142.711
2813.45
139.459
2789.41
138.818
2761.3
144.817
2726.3
162.286
2681.9
195.275
2626.73
245.329
2561.25
310.476
2487.66
385.509
2409.41
463.393
2330.39
537.031
2254.15
600.624
2183.46
650.296
2120.17
684.081
2065.26
701.578
2018.95
703.514
1980.96
691.365
1950.58
667.059
1926.86
632.77
1908.72
590.764
1895.04
543.293
1884.74
492.5
1876.83
440.361
1870.48
388.639
1865
338.857
1859.85
292.3
1854.62
250.008
1849.05
212.78
1842.94
181.164
1836.2
155.432
1828.81
135.552
1820.84
121.173
1812.43
111.634
1803.79
106.027
1795.18
103.29
1786.83
102.326
1778.99
102.124
1771.8
101.846
1765.36
100.878
1759.66
98.8445
1754.63
95.5891
1750.13
91.1324
1745.99
85.6244
1742.02
79.2942
1738.05
72.4065
1733.93
65.2252
1729.55
57.9868
1724.86
50.8788
1719.83
44.029
1714.52
37.5097
1709.01
31.3654
1703.36
25.6584
1697.67
20.5203
1691.99
16.1872
1686.33
12.9972
1680.68
11.3445
1674.97
11.6001
1669.11
14.0079
1662.97
18.6224
1656.37
25.2599
1649.18
33.5931
1641.26
42.9756
1632.56
53.2881
1623.09
62.169
76.4591
2559.25
-2287.59
2682.57
-1659.63
2776.97
-1150.94
2850.77
-746.515
2909.06
-440.003
2953.22
-213.143
2983.65
-53.6649
3002.48
50.6656
3013.07
117.779
3018.08
164.219
3019.47
200.172
3018.74
230.36
3017.15
255.946
3015.78
276.32
3015.42
290.511
3016.47
298.083
3018.91
299.442
3022.32
295.703
3026.05
288.345
3029.3
278.851
3031.29
268.445
3031.33
257.915
3028.91
247.575
3023.73
237.411
3015.73
227.356
3004.99
217.499
2991.71
208.102
2976.16
199.493
2958.61
191.968
2939.34
185.744
2918.61
180.917
2896.73
177.361
2874.12
174.636
2851.26
172.041
2828.5
168.962
2805.69
165.52
2781.85
163.299
2754.95
165.721
2722.13
177.632
2680.45
203.968
2627.84
247.881
2564.02
309.157
2490.71
383.78
2411.31
464.907
2329.98
544.73
2250.72
616.285
2176.81
674.541
2110.44
716.659
2052.83
741.695
2004.3
750.101
1964.58
743.242
1932.91
723.033
1908.29
691.675
1889.58
651.482
1875.59
604.758
1865.18
553.704
1857.32
500.36
1851.12
446.557
1845.87
393.893
1840.99
343.735
1836.07
297.215
1830.83
255.25
1825.08
218.533
1818.72
187.522
1811.74
162.41
1804.21
143.087
1796.25
129.126
1788.09
119.8
1779.96
114.154
1772.14
111.111
1764.87
109.596
1758.34
108.654
1752.66
107.528
1747.84
105.699
1743.8
102.882
1740.39
98.9956
1737.41
94.1112
1734.64
88.4023
1731.84
82.095
1728.81
75.4283
1725.41
68.6236
1721.54
61.863
1717.14
55.2748
1712.24
48.9294
1706.9
42.8538
1701.2
37.066
1695.23
31.6229
1689.08
26.6685
1682.81
22.4617
1676.44
19.3695
1669.96
17.8189
1663.35
18.2167
1656.51
20.8459
1649.34
25.795
1641.7
32.8988
1633.47
41.8175
1624.57
51.8828
1614.95
62.8996
1604.65
72.4753
87.5047
2483.14
-2439.82
2601
-1777.48
2692.79
-1242.74
2766.72
-820.445
2827.22
-500.505
2875.17
-261.094
2910.39
-88.8855
2934.25
26.8147
2949.74
102.287
2959.6
154.356
2965.89
193.885
2970.18
226.069
2973.74
252.381
2977.56
272.502
2982.23
285.836
2987.93
292.384
2994.4
292.974
3001.06
289.044
3007.15
282.257
3011.85
274.145
3014.43
265.868
3014.28
258.062
3011.03
250.828
3004.53
243.908
2994.87
237.017
2982.29
230.081
2967.11
223.275
2949.7
216.902
2930.39
211.284
2909.46
206.669
2887.24
203.144
2864.09
200.511
2840.49
198.233
2816.91
195.619
2793.51
192.359
2769.75
189.287
2743.99
189.051
2713.56
196.154
2675.19
216.004
2626.08
253.075
2565.03
308.937
2493.04
381.14
2413.24
463.583
2329.96
548.184
2247.72
626.97
2170.33
693.672
2100.49
744.382
2039.71
777.44
1988.5
792.905
1946.62
791.982
1913.32
776.547
1887.53
748.823
1868.04
711.163
1853.6
665.919
1843.02
615.344
1835.19
561.532
1829.18
506.371
1824.21
451.524
1819.68
398.42
1815.15
348.267
1810.31
302.061
1804.95
260.603
1798.99
224.495
1792.4
194.111
1785.24
169.567
1777.65
150.678
1769.83
136.947
1762.04
127.593
1754.56
121.634
1747.67
117.999
1741.6
115.664
1736.5
113.753
1732.42
111.613
1729.29
108.83
1726.95
105.215
1725.19
100.758
1723.73
95.5705
1722.3
89.836
1720.63
83.7605
1718.52
77.5402
1715.81
71.3379
1712.4
65.2686
1708.28
59.393
1703.49
53.723
1698.1
48.2437
1692.21
42.9522
1685.93
37.9049
1679.34
33.2598
1672.5
29.2993
1665.45
26.4193
1658.19
25.079
1650.69
25.7189
1642.88
28.6556
1634.67
34.0032
1625.97
41.6065
1616.68
51.1073
1606.74
61.8151
1596.19
73.4564
1585.02
83.6465
99.1968
2401.11
-2580.13
2512.5
-1888.87
2601.1
-1331.34
2674.62
-893.965
2737.46
-563.344
2790.16
-313.789
2831.65
-130.384
2862.09
-3.61705
2883.73
80.643
2899.37
138.719
2911.21
182.045
2920.92
216.352
2929.77
243.53
2938.61
263.663
2947.85
276.597
2957.46
282.777
2967.02
283.41
2975.88
280.183
2983.28
274.863
2988.46
268.964
2990.79
263.539
2989.8
259.048
2985.27
255.364
2977.19
251.984
2965.8
248.405
2951.47
244.415
2934.61
240.133
2915.63
235.882
2894.88
232.034
2872.67
228.88
2849.33
226.478
2825.31
224.536
2801.1
222.446
2777.07
219.643
2753.11
216.322
2728.12
214.274
2699.82
217.354
2664.93
231.042
2620.08
260.858
2563.02
310.13
2493.75
378.21
2414.74
460.151
2330.3
548.017
2245.4
633.086
2164.49
707.876
2090.88
767.281
2026.53
808.739
1972.19
831.778
1927.74
837.357
1892.43
827.288
1865.17
803.806
1844.68
769.31
1829.65
726.198
1818.79
676.774
1810.96
623.178
1805.14
567.349
1800.51
511.002
1796.41
455.623
1792.36
402.475
1788.01
352.618
1783.14
306.927
1777.64
266.102
1771.48
230.656
1764.7
200.889
1757.43
176.838
1749.87
158.245
1742.27
144.548
1734.93
134.924
1728.19
128.381
1722.3
123.884
1717.49
120.479
1713.85
117.395
1711.36
114.099
1709.9
110.292
1709.23
105.884
1709.06
100.93
1709.05
95.5748
1708.89
89.9942
1708.3
84.3585
1707.03
78.8041
1704.95
73.4198
1701.98
68.2423
1698.11
63.2592
1693.41
58.4239
1687.97
53.6829
1681.91
49.017
1675.32
44.4852
1668.32
40.2632
1660.96
36.6599
1653.28
34.1022
1645.27
33.0823
1636.92
34.0718
1628.16
37.4137
1618.93
43.2361
1609.15
51.3824
1598.79
61.4681
1587.83
72.7785
1576.33
84.9588
1564.3
95.6763
111.509
2317.19
-2721.45
2427.51
-1999.2
2512.88
-1416.72
2582.82
-963.903
2643.17
-623.697
2695.72
-366.337
2740.17
-174.835
2776.1
-39.542
2804.38
52.3621
2826.96
116.133
2845.69
163.315
2862.03
200.018
2877.03
228.528
2891.36
249.336
2905.25
262.703
2918.57
269.46
2930.87
271.104
2941.56
269.494
2949.98
266.447
2955.51
263.433
2957.65
261.392
2956.08
260.621
2950.67
260.773
2941.55
261.108
2929.04
260.915
2913.59
259.861
2895.68
258.041
2875.74
255.826
2854.11
253.66
2831.13
251.858
2807.19
250.427
2782.74
248.98
2758.28
246.91
2733.97
243.95
2709.25
241.047
2682.37
241.152
2650.39
249.333
2609.71
271.717
2557.28
313.291
2491.9
375.509
2415.04
455.066
2330.59
544.6
2243.72
634.888
2159.53
717.282
2082.03
785.374
2013.77
835.536
1955.91
866.608
1908.48
879.208
1870.8
875.032
1841.76
856.325
1820.03
825.539
1804.21
785.128
1792.96
737.446
1785.06
684.681
1779.42
628.817
1775.15
571.615
1771.55
514.608
1768.06
459.107
1764.32
406.221
1760.05
356.879
1755.13
311.848
1749.5
271.739
1743.17
236.983
1736.25
207.803
1728.93
184.159
1721.46
165.72
1714.14
151.865
1707.32
141.742
1701.33
134.371
1696.45
128.769
1692.85
124.079
1690.59
119.653
1689.6
115.086
1689.69
110.207
1690.55
105.02
1691.84
99.6449
1693.17
94.247
1694.17
88.9855
1694.55
83.9792
1694.07
79.2893
1692.57
74.9176
1690
70.8127
1686.37
66.8851
1681.77
63.029
1676.3
59.1551
1670.08
55.2309
1663.25
51.3227
1655.88
47.6278
1648.05
44.4862
1639.8
42.3598
1631.1
41.7746
1621.95
43.2292
1612.28
47.0831
1602.05
53.4654
1591.23
62.204
1579.82
72.8789
1567.85
84.7496
1555.43
97.3766
1542.58
108.526
124.391
2246.87
-2859.74
2353.8
-2106.13
2436.22
-1499.14
2504.06
-1031.74
2563.03
-682.667
2615.02
-418.329
2660.11
-219.923
2698.02
-77.4538
2729.4
20.9864
2755.91
89.6173
2779.17
140.061
2800.33
178.851
2820.15
208.709
2838.96
230.523
2856.76
244.904
2873.26
252.958
2888
256.368
2900.41
257.084
2909.93
256.927
2916.05
257.31
2918.38
259.069
2916.65
262.343
2910.85
266.576
2901.17
270.788
2888.02
274.064
2871.92
275.963
2853.38
276.584
2832.84
276.367
2810.67
275.821
2787.27
275.264
2763.06
274.634
2738.55
273.491
2714.08
271.375
2689.46
268.569
2663.48
267.033
2633.64
270.985
2596.49
286.49
2548.49
319.716
2487.47
374.313
2413.74
449.233
2330.4
538.409
2242.46
632.537
2155.47
721.878
2074.18
798.572
2001.84
857.714
1940.1
897.272
1889.31
917.398
1848.9
919.617
1817.77
906.171
1794.52
879.57
1777.71
842.347
1765.92
796.919
1757.84
745.523
1752.34
690.189
1748.43
632.719
1745.36
574.686
1742.52
517.445
1739.49
462.145
1735.95
409.754
1731.74
361.09
1726.77
316.824
1721.02
277.484
1714.58
243.428
1707.58
214.797
1700.27
191.472
1692.94
173.051
1685.94
158.865
1679.64
148.044
1674.37
139.638
1670.4
132.738
1667.88
126.596
1666.84
120.699
1667.14
114.781
1668.56
108.793
1670.74
102.84
1673.28
97.1008
1675.77
91.7578
1677.81
86.9446
1679.07
82.7188
1679.3
79.0556
1678.36
75.8587
1676.19
72.9813
1672.83
70.2521
1668.35
67.5047
1662.89
64.6144
1656.58
61.5384
1649.55
58.3538
1641.9
55.285
1633.67
52.7084
1624.91
51.125
1615.59
51.0941
1605.68
53.1363
1595.15
57.6158
1583.97
64.647
1572.14
74.0282
1559.73
85.2937
1546.8
97.6763
1533.53
110.651
1519.93
122.129
137.771
2173.88
-2992.5
2275.97
-2208.22
2355.42
-1578.59
2422.23
-1098.54
2481.48
-741.926
2534.73
-471.579
2582.1
-267.29
2623.29
-118.644
2658.49
-14.2154
2688.93
59.18
2716.12
112.872
2741.16
153.812
2764.65
185.21
2786.79
208.383
2807.44
224.259
2826.23
234.162
2842.71
239.894
2856.34
243.449
2866.64
246.631
2873.16
250.791
2875.56
256.663
2873.67
264.236
2867.5
272.743
2857.34
280.954
2843.65
287.751
2827.01
292.602
2807.96
295.632
2786.97
297.359
2764.45
298.341
2740.85
298.869
2716.67
298.813
2692.38
297.781
2668.06
295.686
2642.97
293.663
2615.08
294.926
2581.14
304.918
2537.42
330.218
2480.94
376.189
2410.96
444.293
2329.61
530.59
2241.47
626.544
2152.3
721.71
2067.47
806.702
1991
875.049
1925.14
923.569
1870.65
951.764
1827.15
960.899
1793.58
953.184
1768.55
931.207
1750.52
897.597
1738.01
854.857
1729.63
805.292
1724.18
750.978
1720.61
693.758
1718.08
635.245
1715.94
576.827
1713.7
519.689
1711.01
464.837
1707.64
413.119
1703.48
365.252
1698.48
321.827
1692.66
283.297
1686.15
249.939
1679.13
221.816
1671.88
198.729
1664.72
180.209
1658.04
165.545
1652.21
153.871
1647.57
144.278
1644.36
135.946
1642.71
128.247
1642.61
120.802
1643.91
113.48
1646.35
106.358
1649.55
99.6373
1653.09
93.5557
1656.54
88.3136
1659.46
84.0193
1661.52
80.6668
1662.43
78.1397
1662.05
76.2372
1660.32
74.7105
1657.27
73.3006
1653
71.7772
1647.64
69.979
1641.32
67.8535
1634.18
65.4921
1626.32
63.1513
1617.78
61.249
1608.57
60.3281
1598.69
60.9801
1588.08
63.7394
1576.74
68.9614
1564.66
76.7298
1551.89
86.7984
1538.53
98.6474
1524.72
111.484
1510.68
124.698
1496.42
136.391
151.559
2097.85
-3116.8
2193.36
-2303.72
2269.35
-1654.59
2335.38
-1164.57
2395.67
-802.208
2451.06
-526.973
2501.45
-317.677
2546.55
-163.745
2586.29
-53.9623
2621.32
24.1538
2652.83
81.3621
2681.79
124.853
2708.7
158.298
2733.68
183.407
2756.55
201.384
2777
213.717
2794.6
222.293
2808.91
229.13
2819.53
236.012
2826.09
244.234
2828.31
254.442
2826.06
266.481
2819.44
279.371
2808.76
291.632
2794.57
301.942
2777.47
309.699
2758.03
315.072
2736.73
318.658
2714.04
321.033
2690.47
322.432
2666.59
322.696
2642.74
321.634
2618.61
319.819
2592.71
319.559
2562.16
325.478
2523.07
344.002
2471.8
381.495
2406.45
441.534
2328.09