/*--------------------------------*- C++ -*----------------------------------*\
| =========                 |                                                 |
| \\      /  F ield         | OpenFOAM: The Open Source CFD Toolbox           |
|  \\    /   O peration     | Version:  4.1                                   |
|   \\  /    A nd           | Web:      www.OpenFOAM.org                      |
|    \\/     M anipulation  |                                                 |
\*---------------------------------------------------------------------------*/
FoamFile
{
    version     2.0;
    format      ascii;
    class       volVectorField;
    location    "300";
    object      U;
}
// * * * * * * * * * * * * * * * * * * * * * * * * * * * * * * * * * * * * * //

dimensions      [0 1 -1 0 0 0 0];

internalField   nonuniform List<vector> 
26785
(
(-8.38469e-15 -0.0279038 25.3421)
(-7.63383e-15 -0.000579734 25.5001)
(-6.99105e-15 0.0179823 25.1969)
(-5.7365e-15 0.0306122 24.6016)
(-4.84471e-15 0.0376819 23.8513)
(-3.42127e-15 0.0405361 23.0432)
(-2.53857e-15 0.0409222 22.2395)
(-1.88601e-15 0.0400819 21.4705)
(-2.07415e-15 0.0387716 20.7473)
(-1.32013e-15 0.0374401 20.0709)
(-6.5155e-16 0.0363398 19.4366)
(-3.46111e-16 0.0355953 18.8367)
(-1.40494e-16 0.0352448 18.2633)
(2.06665e-17 0.0352645 17.709)
(1.35999e-16 0.0355867 17.1678)
(1.85608e-16 0.0361161 16.6353)
(1.58968e-16 0.0367429 16.1087)
(9.61082e-17 0.0373549 15.5872)
(-1.07025e-16 0.0378484 15.0715)
(-5.396e-18 0.0381371 14.5634)
(5.17795e-17 0.0381574 14.0656)
(-2.15476e-16 0.0378699 13.5812)
(-1.6598e-16 0.0372576 13.1136)
(-2.5822e-16 0.0363244 12.6657)
(-2.4291e-16 0.0350933 12.2403)
(-3.06566e-16 0.0336055 11.8395)
(-5.78342e-16 0.0319165 11.4646)
(-8.52583e-16 0.0300899 11.1165)
(-8.90019e-16 0.0281918 10.7951)
(-1.0407e-15 0.0262853 10.4998)
(-1.10184e-15 0.024427 10.2293)
(-1.32324e-15 0.0226641 9.98206)
(-1.7168e-15 0.021034 9.75608)
(-2.08972e-15 0.0195635 9.54924)
(-2.31518e-15 0.0182697 9.3593)
(-2.39594e-15 0.0171592 9.18404)
(-2.69252e-15 0.0162288 9.02137)
(-2.99522e-15 0.0154654 8.86937)
(-3.2932e-15 0.0148495 8.72644)
(-3.57579e-15 0.0143592 8.59119)
(-3.82569e-15 0.0139805 8.46241)
(-4.07642e-15 0.0137251 8.33874)
(-4.22367e-15 0.013653 8.21832)
(-4.44126e-15 0.0138616 8.09852)
(-4.5793e-15 0.0144443 7.97604)
(-4.76783e-15 0.0154586 7.8472)
(-4.86489e-15 0.0169136 7.70842)
(-4.89285e-15 0.0187686 7.55663)
(-4.8823e-15 0.0209396 7.38958)
(-4.88484e-15 0.0233093 7.20608)
(-4.70653e-15 0.0257402 7.00603)
(-4.53671e-15 0.0280869 6.79048)
(-4.43014e-15 0.0302091 6.56144)
(-4.29928e-15 0.031983 6.32179)
(-4.16691e-15 0.0333099 6.07503)
(-4.00685e-15 0.0341219 5.82503)
(-3.88406e-15 0.0343835 5.57582)
(-3.89634e-15 0.0340904 5.33134)
(-3.81023e-15 0.0332659 5.09523)
(-3.7161e-15 0.0319565 4.87073)
(-3.72909e-15 0.0302273 4.6605)
(-3.59391e-15 0.028157 4.4666)
(-3.48157e-15 0.0258336 4.29041)
(-3.53784e-15 0.0233504 4.13265)
(-3.67091e-15 0.0208017 3.99334)
(-3.55452e-15 0.0182793 3.87193)
(-3.47993e-15 0.015869 3.76731)
(-3.39407e-15 0.0136472 3.67792)
(-3.30419e-15 0.0116772 3.60187)
(-3.11617e-15 0.0100056 3.53708)
(-3.05033e-15 0.00865963 3.48133)
(-3.0645e-15 0.00764616 3.43247)
(-2.83607e-15 0.00695122 3.38849)
(-2.65705e-15 0.00654118 3.34761)
(-2.50624e-15 0.00636512 3.3084)
(-2.1906e-15 0.00635904 3.26983)
(-1.83725e-15 0.00645184 3.23126)
(-1.75687e-15 0.00657239 3.19249)
(-1.60393e-15 0.00665634 3.15364)
(-1.46016e-15 0.00665284 3.11513)
(-1.32412e-15 0.00652903 3.07755)
(-1.38223e-15 0.00627201 3.04154)
(-1.30889e-15 0.00589163 3.00772)
(-1.15958e-15 0.00542073 2.97656)
(-1.1885e-15 0.00491209 2.94832)
(-1.25604e-15 0.004421 2.92296)
(-1.23711e-15 0.00398616 2.90021)
(-1.25711e-15 0.00363008 2.87965)
(-1.16229e-15 0.00336311 2.8608)
(-1.17037e-15 0.00318477 2.84317)
(-1.16077e-15 0.00308616 2.82634)
(-1.16859e-15 0.00305374 2.80993)
(-1.18801e-15 0.00307263 2.79369)
(-1.22845e-15 0.00313304 2.77732)
(-1.24394e-15 0.00322117 2.76088)
(-1.3347e-15 0.00334962 2.74362)
(-1.42239e-15 0.00345232 2.72704)
(-1.47102e-15 0.00369515 2.70695)
(-1.49244e-15 0.00353097 2.69391)
(-1.5482e-15 0.00426495 2.663)
(-1.10352e-14 -0.0519164 26.0099)
(-9.75147e-15 0.018382 26.1499)
(-8.86486e-15 0.0676346 25.8358)
(-7.95666e-15 0.102238 25.2302)
(-8.07907e-15 0.122136 24.4606)
(-6.38598e-15 0.130145 23.6216)
(-6.12531e-15 0.130864 22.7816)
(-5.30687e-15 0.127903 21.9748)
(-3.91015e-15 0.123531 21.2138)
(-2.96673e-15 0.119087 20.4998)
(-2.28499e-15 0.115313 19.8286)
(-1.76267e-15 0.11257 19.1927)
(-1.31519e-15 0.110975 18.5847)
(-1.05734e-15 0.110467 17.9981)
(-5.9116e-16 0.110863 17.4275)
(-1.70387e-16 0.11189 16.869)
(-4.74939e-16 0.113228 16.3206)
(-5.91506e-16 0.114547 15.7816)
(-3.92939e-16 0.115539 15.2528)
(-7.87038e-16 0.115953 14.7361)
(-7.60621e-16 0.115612 14.2339)
(-8.96915e-16 0.114412 13.7488)
(-8.10586e-16 0.11232 13.2834)
(-7.93228e-16 0.109357 12.8401)
(-1.15841e-15 0.105598 12.4208)
(-1.12162e-15 0.101163 12.0268)
(-1.13321e-15 0.0962076 11.6591)
(-1.37792e-15 0.0909071 11.3177)
(-1.64516e-15 0.0854386 11.0021)
(-1.63762e-15 0.0799685 10.7115)
(-1.83278e-15 0.0746436 10.4443)
(-2.19702e-15 0.0695861 10.1989)
(-2.37466e-15 0.0648924 9.97315)
(-2.62112e-15 0.0606332 9.76508)
(-2.79111e-15 0.0568523 9.57254)
(-2.96573e-15 0.053564 9.39349)
(-3.2441e-15 0.0507496 9.22608)
(-3.48311e-15 0.048359 9.06874)
(-3.71328e-15 0.046332 8.92028)
(-3.92262e-15 0.0446352 8.77974)
(-4.12687e-15 0.0433123 8.64618)
(-4.26909e-15 0.042526 8.51797)
(-4.43708e-15 0.0425457 8.39237)
(-4.50423e-15 0.0436584 8.26561)
(-4.56721e-15 0.0460721 8.13341)
(-4.56967e-15 0.0498592 7.99149)
(-4.67033e-15 0.0549332 7.83611)
(-4.67686e-15 0.0610654 7.66461)
(-4.80943e-15 0.0679222 7.47568)
(-4.73043e-15 0.0751075 7.26942)
(-4.65671e-15 0.0822008 7.04715)
(-4.66754e-15 0.0887899 6.81125)
(-4.53962e-15 0.0944984 6.56485)
(-4.45955e-15 0.0990102 6.31163)
(-4.31243e-15 0.102088 6.05557)
(-4.07554e-15 0.103583 5.80072)
(-4.06071e-15 0.103437 5.55105)
(-4.13249e-15 0.10168 5.31025)
(-3.89308e-15 0.0984146 5.08159)
(-3.64291e-15 0.0938077 4.8678)
(-3.57239e-15 0.0880762 4.67098)
(-3.59933e-15 0.081474 4.49252)
(-3.72632e-15 0.0742788 4.33309)
(-3.58382e-15 0.0667789 4.19262)
(-3.39618e-15 0.0592593 4.07035)
(-3.3313e-15 0.0519874 3.96492)
(-3.22214e-15 0.0451995 3.87449)
(-3.03418e-15 0.0390902 3.79692)
(-3.06514e-15 0.0338044 3.72991)
(-3.24823e-15 0.0294336 3.67117)
(-2.95101e-15 0.0260132 3.61852)
(-2.8898e-15 0.0235227 3.57005)
(-2.86788e-15 0.0218872 3.52418)
(-2.6987e-15 0.0209828 3.47969)
(-2.31259e-15 0.0206463 3.43579)
(-1.766e-15 0.0206892 3.39206)
(-1.78525e-15 0.0209156 3.34842)
(-1.67859e-15 0.0211409 3.30511)
(-1.65905e-15 0.0212089 3.26253)
(-1.74691e-15 0.0210065 3.22121)
(-1.54067e-15 0.0204722 3.18171)
(-1.58671e-15 0.0195972 3.1445)
(-1.61534e-15 0.0184242 3.10993)
(-1.37471e-15 0.0170412 3.07819)
(-1.2321e-15 0.0155774 3.04925)
(-1.27257e-15 0.0141749 3.02293)
(-1.27282e-15 0.0129402 2.99891)
(-1.24346e-15 0.0119371 2.9767)
(-1.1276e-15 0.0111913 2.95584)
(-1.01597e-15 0.0106967 2.93585)
(-9.84336e-16 0.0104242 2.91636)
(-9.22437e-16 0.0103339 2.89705)
(-8.21126e-16 0.010385 2.87772)
(-9.39728e-16 0.0105525 2.85811)
(-1.06348e-15 0.0108025 2.83835)
(-1.09547e-15 0.0111701 2.81767)
(-1.22274e-15 0.0114908 2.79764)
(-1.32243e-15 0.012181 2.77382)
(-1.3691e-15 0.0118825 2.75776)
(-1.47784e-15 0.0138619 2.72114)
(-1.17997e-14 -0.0867724 26.1492)
(-1.22694e-14 0.0263388 26.3321)
(-1.16043e-14 0.109162 26.0638)
(-1.09505e-14 0.168852 25.4985)
(-1.03805e-14 0.204433 24.7533)
(-8.4717e-15 0.219729 23.92)
(-7.93377e-15 0.222108 23.0722)
(-7.39909e-15 0.217866 22.2488)
(-6.5122e-15 0.211029 21.465)
(-5.6205e-15 0.203944 20.7242)
(-4.78193e-15 0.197867 20.023)
(-4.04027e-15 0.193375 19.3557)
(-3.41514e-15 0.190624 18.716)
(-2.88539e-15 0.189496 18.0988)
(-2.55085e-15 0.189678 17.5002)
(-1.81936e-15 0.190737 16.9176)
(-1.95664e-15 0.192174 16.3498)
(-1.66687e-15 0.193482 15.797)
(-1.4903e-15 0.194204 15.2601)
(-1.3963e-15 0.193979 14.7409)
(-1.18083e-15 0.192566 14.2413)
(-1.68629e-15 0.189838 13.7631)
(-1.9902e-15 0.185769 13.308)
(-1.69165e-15 0.180412 12.8774)
(-1.67728e-15 0.173896 12.4723)
(-1.90317e-15 0.166412 12.0934)
(-1.73331e-15 0.158207 11.7406)
(-1.70745e-15 0.149552 11.4136)
(-1.99949e-15 0.140721 11.1115)
(-2.27275e-15 0.131971 10.8328)
(-2.50364e-15 0.123523 10.5757)
(-2.78637e-15 0.11556 10.3383)
(-3.03877e-15 0.108222 10.1184)
(-3.17119e-15 0.101606 9.91372)
(-3.41234e-15 0.0957637 9.72226)
(-3.68441e-15 0.0906941 9.54208)
(-3.87483e-15 0.0863365 9.37157)
(-4.05257e-15 0.0825757 9.20955)
(-4.22771e-15 0.0792875 9.05527)
(-4.39624e-15 0.0764315 8.90827)
(-4.55578e-15 0.0741766 8.76781)
(-4.7003e-15 0.0729539 8.6322)
(-4.82265e-15 0.0733397 8.49829)
(-4.91557e-15 0.0758524 8.36182)
(-4.97424e-15 0.0808029 8.21793)
(-4.99545e-15 0.0882069 8.06178)
(-4.98427e-15 0.0977542 7.88942)
(-4.93545e-15 0.108871 7.6985)
(-4.86721e-15 0.120832 7.48851)
(-4.76732e-15 0.132866 7.2608)
(-4.65395e-15 0.14424 7.01818)
(-4.53309e-15 0.154307 6.76447)
(-4.3983e-15 0.16253 6.50407)
(-4.28014e-15 0.168498 6.24155)
(-4.12027e-15 0.171933 5.98143)
(-4.10957e-15 0.172694 5.72792)
(-4.14534e-15 0.17077 5.48483)
(-3.89226e-15 0.166276 5.25546)
(-3.71554e-15 0.159437 5.04244)
(-3.63062e-15 0.150574 4.84774)
(-3.40525e-15 0.14009 4.67254)
(-3.3795e-15 0.128445 4.51719)
(-3.34066e-15 0.116134 4.38128)
(-3.2801e-15 0.103663 4.26362)
(-3.27114e-15 0.0915169 4.16243)
(-3.42078e-15 0.0801251 4.07547)
(-3.1897e-15 0.0698407 4.00023)
(-2.8665e-15 0.0609202 3.93416)
(-2.74416e-15 0.0535163 3.87481)
(-2.58407e-15 0.0476786 3.82)
(-2.4195e-15 0.0433592 3.76795)
(-2.29543e-15 0.0404242 3.71727)
(-2.07959e-15 0.038668 3.66707)
(-1.62208e-15 0.0378317 3.6169)
(-1.30128e-15 0.0376254 3.56666)
(-1.19828e-15 0.0377521 3.51659)
(-1.09161e-15 0.0379324 3.46713)
(-9.99146e-16 0.0379267 3.41884)
(-9.04393e-16 0.0375554 3.3723)
(-7.99346e-16 0.0367119 3.32805)
(-6.94897e-16 0.0353674 3.28648)
(-5.48181e-16 0.0335691 3.24785)
(-4.75243e-16 0.0314257 3.21222)
(-5.00603e-16 0.0290848 3.1795)
(-3.24383e-16 0.0267274 3.14946)
(-2.10425e-16 0.0245494 3.12178)
(-1.13057e-16 0.0226999 3.09606)
(-2.04063e-17 0.0212618 3.07182)
(1.03566e-16 0.0202549 3.04859)
(3.56497e-17 0.0196505 3.02594)
(5.21255e-17 0.0193889 3.00352)
(1.67312e-16 0.0193992 2.98105)
(1.30409e-16 0.0196151 2.95835)
(8.19255e-17 0.0199966 2.93519)
(7.93749e-17 0.020498 2.91167)
(6.66758e-17 0.0211664 2.88702)
(-6.42793e-17 0.0217934 2.86293)
(-1.87386e-16 0.0228899 2.83457)
(-2.42346e-16 0.0227837 2.81488)
(-4.03288e-16 0.0255162 2.77139)
(-1.1969e-14 -0.128346 25.9133)
(-1.25614e-14 0.0279617 26.1625)
(-1.29759e-14 0.144912 25.9689)
(-1.32218e-14 0.231071 25.478)
(-1.2326e-14 0.284384 24.7933)
(-1.19729e-14 0.308906 23.9982)
(-1.11528e-14 0.314384 23.1701)
(-9.50043e-15 0.309878 22.3527)
(-8.21457e-15 0.301295 21.5649)
(-7.19775e-15 0.292059 20.8126)
(-6.2415e-15 0.283965 20.0945)
(-5.41594e-15 0.27781 19.4063)
(-4.60517e-15 0.273793 18.7438)
(-4.32092e-15 0.271733 18.1034)
(-3.93493e-15 0.271206 17.4828)
(-3.51055e-15 0.271639 16.8811)
(-3.10235e-15 0.272391 16.2985)
(-3.09743e-15 0.272836 15.7361)
(-2.77795e-15 0.272428 15.1954)
(-2.48117e-15 0.270758 14.6781)
(-2.40551e-15 0.267573 14.1856)
(-2.61382e-15 0.262758 13.7191)
(-2.81431e-15 0.256311 13.2793)
(-2.79832e-15 0.248314 12.8666)
(-2.82186e-15 0.238935 12.4811)
(-2.87637e-15 0.228422 12.1226)
(-2.94969e-15 0.217095 11.7902)
(-3.05807e-15 0.205308 11.4828)
(-3.19277e-15 0.193423 11.1988)
(-3.32609e-15 0.181774 10.936)
(-3.49996e-15 0.17065 10.692)
(-3.78472e-15 0.160278 10.4646)
(-4.00608e-15 0.150823 10.2513)
(-4.1504e-15 0.142386 10.05)
(-4.13812e-15 0.135 9.85856)
(-4.21061e-15 0.128624 9.67558)
(-4.41315e-15 0.123127 9.49987)
(-4.45071e-15 0.118309 9.33088)
(-4.65146e-15 0.11398 9.16851)
(-4.81736e-15 0.110125 9.01266)
(-4.83836e-15 0.107098 8.86252)
(-4.93654e-15 0.105633 8.7159)
(-5.0094e-15 0.106623 8.56913)
(-5.09592e-15 0.110833 8.41754)
(-5.1281e-15 0.118688 8.25601)
(-5.14881e-15 0.130121 8.07988)
(-5.05242e-15 0.14453 7.8858)
(-4.88744e-15 0.160902 7.67236)
(-4.74672e-15 0.178018 7.44034)
(-4.70617e-15 0.194655 7.19241)
(-4.57548e-15 0.209735 6.93268)
(-4.60449e-15 0.222389 6.66609)
(-4.4548e-15 0.231977 6.39785)
(-4.0297e-15 0.238075 6.13302)
(-3.80409e-15 0.240455 5.87627)
(-3.65696e-15 0.239073 5.63162)
(-3.76071e-15 0.234046 5.40242)
(-3.61218e-15 0.225647 5.19125)
(-3.44219e-15 0.214286 4.99982)
(-3.26336e-15 0.200496 4.82901)
(-3.05636e-15 0.184906 4.67876)
(-2.92182e-15 0.168209 4.54821)
(-2.71414e-15 0.151126 4.43573)
(-2.71025e-15 0.134351 4.33909)
(-2.72256e-15 0.118513 4.25572)
(-2.55759e-15 0.104126 4.18287)
(-2.33035e-15 0.0915668 4.11785)
(-2.52621e-15 0.0810624 4.05818)
(-2.44557e-15 0.0726885 4.00174)
(-2.19965e-15 0.066383 3.94688)
(-1.97973e-15 0.0619654 3.8924)
(-1.88061e-15 0.0591604 3.83762)
(-1.8096e-15 0.0576272 3.78229)
(-1.41605e-15 0.0569885 3.72655)
(-1.39177e-15 0.0568612 3.67083)
(-1.25937e-15 0.0568846 3.61571)
(-9.80841e-16 0.0567471 3.56187)
(-8.22292e-16 0.0562069 3.50994)
(-6.31153e-16 0.0551085 3.46048)
(-6.66056e-16 0.0533892 3.41385)
(-5.64467e-16 0.051076 3.37027)
(-4.24001e-16 0.0482789 3.32977)
(-2.67784e-16 0.0451627 3.29221)
(-1.45689e-16 0.0419158 3.25737)
(-2.07071e-16 0.0387422 3.22493)
(-1.15421e-16 0.0358626 3.19463)
(8.65318e-18 0.0334572 3.16618)
(1.01547e-16 0.031625 3.13918)
(1.08398e-16 0.0303814 3.11325)
(1.36304e-16 0.029682 3.08801)
(2.70589e-16 0.0294457 3.06313)
(3.79021e-16 0.0295802 3.0383)
(2.37096e-16 0.0300004 3.0133)
(2.05986e-16 0.0306554 2.9878)
(2.11716e-16 0.0314952 2.96184)
(2.78435e-16 0.0325595 2.93453)
(2.85511e-16 0.0336171 2.90763)
(4.0754e-16 0.0351416 2.87596)
(4.56559e-16 0.0354762 2.85369)
(4.13157e-16 0.0386461 2.80504)
(-1.17542e-14 -0.178253 25.4335)
(-1.26047e-14 0.0192556 25.7264)
(-1.26379e-14 0.167958 25.6072)
(-1.30388e-14 0.279946 25.2058)
(-1.29547e-14 0.352363 24.6063)
(-1.08996e-14 0.388594 23.8755)
(-1.04945e-14 0.399581 23.0899)
(-9.80687e-15 0.396829 22.2979)
(-8.69559e-15 0.388148 21.5229)
(-7.64837e-15 0.378112 20.774)
(-6.5467e-15 0.369106 20.0526)
(-6.06663e-15 0.362165 19.3567)
(-5.43525e-15 0.357516 18.6838)
(-5.08237e-15 0.354904 18.0321)
(-4.6799e-15 0.353776 17.4011)
(-3.92461e-15 0.353426 16.7913)
(-3.36201e-15 0.353107 16.2042)
(-3.09259e-15 0.352126 15.6417)
(-2.89099e-15 0.349923 15.1059)
(-2.80994e-15 0.346119 14.5983)
(-2.71678e-15 0.340512 14.12)
(-2.74982e-15 0.333047 13.6714)
(-2.95387e-15 0.323772 13.2525)
(-3.10189e-15 0.312812 12.8625)
(-3.15043e-15 0.300384 12.5007)
(-3.26435e-15 0.286801 12.1657)
(-3.06618e-15 0.272458 11.8558)
(-3.18475e-15 0.257801 11.5689)
(-3.45906e-15 0.24327 11.3023)
(-3.53521e-15 0.229262 11.0534)
(-3.6651e-15 0.216099 10.8195)
(-3.79527e-15 0.204014 10.5981)
(-3.89018e-15 0.193154 10.3869)
(-4.10355e-15 0.18358 10.1841)
(-4.35363e-15 0.17527 9.98813)
(-4.40249e-15 0.168101 9.79812)
(-4.48918e-15 0.161844 9.61366)
(-4.59896e-15 0.156202 9.43491)
(-4.71771e-15 0.150966 9.26231)
(-4.83496e-15 0.146266 9.09577)
(-4.95496e-15 0.142744 8.93395)
(-5.048e-15 0.141484 8.7739)
(-5.17768e-15 0.143679 8.61128)
(-5.24053e-15 0.150267 8.44093)
(-5.27036e-15 0.16166 8.2577)
(-5.23859e-15 0.177558 8.05761)
(-5.16268e-15 0.196954 7.83857)
(-5.06277e-15 0.218337 7.60085)
(-4.89161e-15 0.239991 7.3469)
(-4.83528e-15 0.260286 7.08092)
(-4.6908e-15 0.277864 6.80816)
(-4.62807e-15 0.291718 6.53425)
(-4.53175e-15 0.301184 6.26474)
(-4.27463e-15 0.305907 6.00463)
(-4.11238e-15 0.305785 5.7582)
(-3.7901e-15 0.300938 5.52884)
(-3.50969e-15 0.29168 5.31901)
(-3.38323e-15 0.278501 5.13019)
(-3.37789e-15 0.262048 4.96286)
(-3.37836e-15 0.243099 4.81656)
(-3.37287e-15 0.222523 4.68997)
(-3.41653e-15 0.201232 4.58105)
(-3.2214e-15 0.180118 4.48729)
(-3.27436e-15 0.159994 4.40588)
(-3.16567e-15 0.141541 4.33399)
(-3.23522e-15 0.12527 4.26895)
(-3.42294e-15 0.111506 4.20838)
(-3.31998e-15 0.100381 4.1503)
(-3.31305e-15 0.0918509 4.09316)
(-3.24764e-15 0.0857177 4.03592)
(-3.26986e-15 0.0816591 3.97799)
(-3.08552e-15 0.0792661 3.91918)
(-2.81481e-15 0.0780805 3.85971)
(-2.59607e-15 0.0776334 3.80003)
(-2.46907e-15 0.0774817 3.74078)
(-2.37778e-15 0.0772385 3.68266)
(-2.42908e-15 0.0765981 3.62634)
(-2.25956e-15 0.0753519 3.57236)
(-1.93977e-15 0.0733968 3.52112)
(-1.56575e-15 0.0707316 3.47283)
(-1.30795e-15 0.0674445 3.42753)
(-1.29742e-15 0.0636991 3.3851)
(-1.45045e-15 0.059697 3.34535)
(-1.27734e-15 0.0556477 3.30803)
(-1.39154e-15 0.0517475 3.27284)
(-1.28932e-15 0.0482048 3.23962)
(-1.09085e-15 0.0452265 3.20821)
(-9.40669e-16 0.0429364 3.17839)
(-8.65051e-16 0.0413626 3.14989)
(-7.71113e-16 0.040464 3.12239)
(-7.0774e-16 0.0401575 3.09558)
(-7.05395e-16 0.0403458 3.06911)
(-7.59112e-16 0.0409406 3.04267)
(-7.94839e-16 0.0418898 3.01583)
(-7.79855e-16 0.0431389 2.98851)
(-7.16347e-16 0.0446937 2.95968)
(-5.77557e-16 0.0462933 2.93119)
(-4.32554e-16 0.0483042 2.8976)
(-5.31299e-16 0.0492327 2.87392)
(-3.13434e-16 0.0527875 2.82207)
(-1.15772e-14 -0.245253 24.7099)
(-1.23502e-14 -0.00312806 25.0591)
(-1.23311e-14 0.178072 25.0097)
(-1.27013e-14 0.316603 24.688)
(-1.29252e-14 0.409626 24.173)
(-1.20994e-14 0.459732 23.5201)
(-1.15757e-14 0.478367 22.7958)
(-1.13318e-14 0.479118 22.0489)
(-1.06326e-14 0.471678 21.3057)
(-8.96968e-15 0.461828 20.5784)
(-7.71528e-15 0.452604 19.8714)
(-7.1207e-15 0.445323 19.1849)
(-6.32065e-15 0.440286 18.5187)
(-5.50267e-15 0.437181 17.8725)
(-4.83969e-15 0.435349 17.2476)
(-4.28307e-15 0.43397 16.6457)
(-3.90189e-15 0.432215 16.0693)
(-3.29288e-15 0.429368 15.521)
(-2.92546e-15 0.424904 15.0031)
(-3.04989e-15 0.418519 14.5168)
(-3.38049e-15 0.410108 14.0625)
(-3.41541e-15 0.399707 13.6399)
(-3.46415e-15 0.387433 13.2478)
(-3.56936e-15 0.373476 12.8844)
(-3.49807e-15 0.358111 12.5479)
(-3.53909e-15 0.341724 12.2359)
(-3.5927e-15 0.324787 11.9457)
(-3.6052e-15 0.307814 11.6746)
(-3.69197e-15 0.291292 11.4194)
(-3.57374e-15 0.275633 11.1775)
(-3.61687e-15 0.261143 10.9462)
(-3.7358e-15 0.248015 10.7236)
(-3.77051e-15 0.236343 10.5079)
(-3.90276e-15 0.226128 10.298)
(-4.11501e-15 0.217276 10.0931)
(-4.31893e-15 0.209572 9.89295)
(-4.49803e-15 0.202679 9.69779)
(-4.66766e-15 0.196248 9.50839)
(-4.80472e-15 0.190149 9.32524)
(-4.92751e-15 0.184752 9.14779)
(-5.03385e-15 0.181044 8.9739)
(-5.14577e-15 0.180459 8.79968)
(-5.22329e-15 0.184456 8.61995)
(-5.33133e-15 0.194067 8.42911)
(-5.36097e-15 0.209544 8.22237)
(-5.34087e-15 0.230199 7.99688)
(-5.26044e-15 0.254495 7.75241)
(-5.14016e-15 0.280367 7.49129)
(-4.98775e-15 0.305635 7.21791)
(-4.84359e-15 0.328344 6.93791)
(-4.67686e-15 0.346973 6.65739)
(-4.51897e-15 0.360487 6.3823)
(-4.36797e-15 0.368307 6.11794)
(-4.23063e-15 0.370228 5.86876)
(-4.11405e-15 0.36635 5.63814)
(-3.95965e-15 0.357024 5.42838)
(-3.82186e-15 0.342813 5.24068)
(-3.6528e-15 0.324469 5.07517)
(-3.64935e-15 0.302896 4.93098)
(-3.7115e-15 0.279108 4.8064)
(-3.68453e-15 0.254175 4.69911)
(-3.55961e-15 0.229151 4.60636)
(-3.39916e-15 0.205009 4.52528)
(-3.40252e-15 0.182581 4.45305)
(-3.36822e-15 0.162517 4.38711)
(-3.52753e-15 0.145256 4.32522)
(-3.41732e-15 0.131027 4.26553)
(-3.40899e-15 0.119848 4.20662)
(-3.57592e-15 0.111554 4.14751)
(-3.51446e-15 0.105823 4.08763)
(-3.64153e-15 0.102215 4.02678)
(-3.34772e-15 0.100216 3.96514)
(-3.1661e-15 0.0992811 3.90312)
(-3.09992e-15 0.0988851 3.84133)
(-2.75695e-15 0.0985572 3.78043)
(-2.25091e-15 0.0979134 3.72108)
(-2.15169e-15 0.0966766 3.66385)
(-2.02963e-15 0.0946851 3.60913)
(-1.74467e-15 0.0918916 3.55717)
(-1.4579e-15 0.0883492 3.50804)
(-1.20985e-15 0.0841941 3.46165)
(-9.68197e-16 0.0796221 3.41785)
(-5.03578e-16 0.0748555 3.37641)
(-1.66164e-16 0.0701126 3.3371)
(1.35748e-16 0.0655741 3.2997)
(8.83782e-17 0.0614151 3.26405)
(7.23808e-17 0.0578449 3.23011)
(2.05899e-16 0.0550195 3.19784)
(3.20118e-16 0.0529989 3.16709)
(3.9954e-16 0.0517653 3.13765)
(3.56423e-16 0.0512547 3.10921)
(3.91594e-16 0.051384 3.08142)
(2.76537e-16 0.0520789 3.0539)
(1.19978e-16 0.0532982 3.02612)
(1.22697e-16 0.0549721 2.99789)
(1.00093e-16 0.057047 2.96812)
(-4.14698e-17 0.0592295 2.93872)
(-1.72853e-16 0.0617674 2.904)
(-1.76657e-16 0.0633511 2.87958)
(-5.08388e-17 0.0673673 2.82578)
(-1.16712e-14 -0.302299 24.1109)
(-1.18831e-14 -0.0273218 24.4789)
(-1.25507e-14 0.181449 24.4631)
(-1.33827e-14 0.34351 24.1894)
(-1.33806e-14 0.455534 23.7309)
(-1.18631e-14 0.519605 23.1329)
(-1.04391e-14 0.547053 22.4537)
(-9.46289e-15 0.552711 21.7425)
(-8.0168e-15 0.547848 21.0272)
(-6.46988e-15 0.539349 20.3218)
(-6.22618e-15 0.530871 19.632)
(-5.61767e-15 0.52401 18.96)
(-4.75803e-15 0.51913 18.3067)
(-4.07936e-15 0.515871 17.6737)
(-3.64957e-15 0.513474 17.0632)
(-2.8413e-15 0.51103 16.4782)
(-2.31091e-15 0.507677 15.9218)
(-2.47264e-15 0.502732 15.3968)
(-2.37754e-15 0.495768 14.9049)
(-2.5786e-15 0.486616 14.4466)
(-2.49045e-15 0.475307 14.0213)
(-2.2561e-15 0.461997 13.6273)
(-2.49775e-15 0.446893 13.2623)
(-2.66507e-15 0.430249 12.9236)
(-2.64351e-15 0.412401 12.6084)
(-2.76814e-15 0.393783 12.3135)
(-2.71541e-15 0.374916 12.0361)
(-2.50038e-15 0.356336 11.7731)
(-2.70802e-15 0.338531 11.5217)
(-2.92498e-15 0.321881 11.2797)
(-3.1182e-15 0.306643 11.0451)
(-3.40575e-15 0.292949 10.8165)
(-3.60917e-15 0.280835 10.593)
(-3.81952e-15 0.270245 10.3739)
(-4.01012e-15 0.26101 10.159)
(-4.31809e-15 0.252818 9.94873)
(-4.5618e-15 0.245253 9.7438)
(-4.6931e-15 0.237985 9.54512)
(-4.83769e-15 0.231063 9.35287)
(-4.95528e-15 0.225181 9.16571)
(-5.09388e-15 0.221721 8.98039)
(-5.15955e-15 0.222468 8.79188)
(-5.28112e-15 0.22907 8.59419)
(-5.31688e-15 0.242478 8.38167)
(-5.33054e-15 0.26258 8.15045)
(-5.28441e-15 0.288115 7.89951)
(-5.2145e-15 0.31692 7.63089)
(-5.024e-15 0.346391 7.34923)
(-4.78921e-15 0.373979 7.06072)
(-4.38685e-15 0.397558 6.77212)
(-3.97325e-15 0.415597 6.48992)
(-3.59762e-15 0.427175 6.21978)
(-3.47834e-15 0.431897 5.96631)
(-3.48633e-15 0.429794 5.73285)
(-3.43829e-15 0.421226 5.52153)
(-3.39297e-15 0.406816 5.33325)
(-3.36671e-15 0.3874 5.16779)
(-3.2439e-15 0.363986 5.02393)
(-3.18419e-15 0.337704 4.89968)
(-3.30648e-15 0.309744 4.79246)
(-3.20484e-15 0.281286 4.69941)
(-3.10483e-15 0.253436 4.61763)
(-3.064e-15 0.227162 4.54435)
(-2.88486e-15 0.203248 4.47711)
(-2.67122e-15 0.18227 4.4138)
(-2.4858e-15 0.164578 4.3527)
(-2.29745e-15 0.150301 4.29246)
(-2.43411e-15 0.139355 4.23215)
(-2.47211e-15 0.131468 4.17116)
(-2.21678e-15 0.126212 4.10927)
(-1.99789e-15 0.123047 4.04656)
(-1.6178e-15 0.121375 3.98337)
(-1.51189e-15 0.12059 3.92024)
(-1.28829e-15 0.120133 3.8578)
(-9.26444e-16 0.119527 3.79667)
(-8.72488e-16 0.118411 3.73742)
(-4.02779e-16 0.116547 3.68045)
(1.41895e-16 0.113825 3.62604)
(3.154e-16 0.11025 3.57429)
(4.20493e-16 0.105923 3.52515)
(6.37773e-16 0.101015 3.47847)
(8.7948e-16 0.0957403 3.43406)
(1.03171e-15 0.0903313 3.39169)
(1.36004e-15 0.0850033 3.35117)
(1.68092e-15 0.0799272 3.31232)
(1.77577e-15 0.0752459 3.27499)
(1.84961e-15 0.0711279 3.23916)
(1.82831e-15 0.0677486 3.20491)
(1.8986e-15 0.0652127 3.17226)
(1.9961e-15 0.0635458 3.14109)
(2.0924e-15 0.062721 3.11116)
(2.17878e-15 0.0626933 3.08213)
(2.06796e-15 0.063421 3.05357)
(1.97082e-15 0.0648747 3.02486)
(1.85107e-15 0.0669569 2.99579)
(1.82908e-15 0.0695424 2.96523)
(1.76357e-15 0.0723153 2.93515)
(1.73749e-15 0.0754106 2.89961)
(1.57578e-15 0.077662 2.87468)
(1.41584e-15 0.0822384 2.81955)
(-1.20952e-14 -0.367776 23.5046)
(-1.26466e-14 -0.0588987 23.8819)
(-1.31044e-14 0.179059 23.892)
(-1.3949e-14 0.365184 23.6593)
(-1.39154e-14 0.496428 23.2524)
(-1.30399e-14 0.574978 22.7088)
(-1.21786e-14 0.611939 22.0756)
(-1.03926e-14 0.623069 21.4014)
(-9.01348e-15 0.621209 20.7158)
(-7.93501e-15 0.614364 20.0348)
(-6.91155e-15 0.606817 19.366)
(-5.91998e-15 0.600436 18.7129)
(-5.00113e-15 0.595643 18.0778)
(-4.21429e-15 0.592028 17.4636)
(-3.47052e-15 0.58875 16.8737)
(-3.16886e-15 0.584856 16.3117)
(-2.88658e-15 0.579508 15.781)
(-2.59369e-15 0.572127 15.284)
(-2.39203e-15 0.562439 14.8216)
(-2.30703e-15 0.550446 14.3931)
(-2.27871e-15 0.536332 13.9967)
(-2.26732e-15 0.520363 13.6294)
(-2.44615e-15 0.502822 13.2881)
(-2.79266e-15 0.484002 12.9692)
(-2.99595e-15 0.464258 12.6694)
(-3.1247e-15 0.444044 12.3855)
(-3.05806e-15 0.423882 12.1145)
(-3.13728e-15 0.4043 11.8539)
(-3.45857e-15 0.38575 11.6013)
(-3.67852e-15 0.368562 11.3552)
(-3.85063e-15 0.352932 11.1142)
(-4.00681e-15 0.338936 10.8776)
(-4.16423e-15 0.326564 10.645)
(-4.32744e-15 0.315704 10.4162)
(-4.47898e-15 0.306103 10.1916)
(-4.60742e-15 0.29736 9.972)
(-4.80196e-15 0.28903 9.75848)
(-4.9574e-15 0.280888 9.5518)
(-5.07891e-15 0.273254 9.35149)
(-5.17452e-15 0.267226 9.1551)
(-5.25085e-15 0.264609 8.95803)
(-5.2875e-15 0.267486 8.75404)
(-5.38669e-15 0.277541 8.53666)
(-5.40797e-15 0.295435 8.3008)
(-5.37687e-15 0.320478 8.04432)
(-5.29194e-15 0.350695 7.76863)
(-5.16968e-15 0.383268 7.47839)
(-5.03944e-15 0.415134 7.18038)
(-4.7856e-15 0.443533 6.88219)
(-4.34875e-15 0.466345 6.59108)
(-3.97715e-15 0.482192 6.31327)
(-3.63604e-15 0.490393 6.0536)
(-3.31644e-15 0.490835 5.81545)
(-3.1308e-15 0.483842 5.60078)
(-2.99718e-15 0.470065 5.4102)
(-2.86361e-15 0.450407 5.24319)
(-2.92747e-15 0.425955 5.09821)
(-2.90385e-15 0.397927 4.97301)
(-2.75485e-15 0.367603 4.86484)
(-2.67273e-15 0.336263 4.77071)
(-2.51931e-15 0.305116 4.68771)
(-2.56435e-15 0.275245 4.6131)
(-2.58145e-15 0.247558 4.54449)
(-2.5724e-15 0.222764 4.47986)
(-2.55958e-15 0.20135 4.41757)
(-2.50207e-15 0.183578 4.35634)
(-2.31542e-15 0.169488 4.29525)
(-2.45478e-15 0.158902 4.23368)
(-2.56024e-15 0.151458 4.17136)
(-2.40642e-15 0.146636 4.10828)
(-2.2572e-15 0.143819 4.0447)
(-1.902e-15 0.142346 3.98108)
(-1.67855e-15 0.141573 3.918)
(-1.56621e-15 0.14093 3.85605)
(-1.28754e-15 0.139954 3.79579)
(-9.6086e-16 0.138316 3.73763)
(-7.35818e-16 0.135825 3.68186)
(-4.92679e-16 0.13242 3.6286)
(-3.77721e-16 0.12815 3.57784)
(-3.18745e-16 0.123153 3.52944)
(-1.90271e-16 0.117621 3.4832)
(-3.31979e-16 0.111779 3.43889)
(-1.76059e-16 0.105856 3.39629)
(-1.75082e-16 0.100057 3.35523)
(-2.16076e-16 0.0945461 3.31557)
(-1.50689e-16 0.0894452 3.27721)
(-2.27299e-16 0.0848741 3.24011)
(-2.8049e-16 0.0809844 3.20437)
(-3.39352e-16 0.0779184 3.17012)
(-3.00561e-16 0.0757615 3.13739)
(-1.94513e-16 0.074546 3.10603)
(-1.44213e-16 0.0742853 3.0757)
(-1.29787e-16 0.074988 3.04597)
(4.36525e-17 0.0766266 3.01618)
(3.91382e-16 0.0790659 2.98615)
(7.15356e-16 0.0821219 2.95475)
(1.03469e-15 0.085463 2.92395)
(1.25573e-15 0.0891205 2.88763)
(1.45105e-15 0.0920194 2.86219)
(1.61869e-15 0.0972288 2.80596)
(-1.1972e-14 -0.434337 22.8926)
(-1.23826e-14 -0.0938441 23.2622)
(-1.31461e-14 0.170726 23.2888)
(-1.35632e-14 0.378865 23.0935)
(-1.35076e-14 0.528207 22.7363)
(-1.3192e-14 0.621277 22.2481)
(-1.31358e-14 0.668693 21.6636)
(-1.23947e-14 0.686325 21.0296)
(-1.10912e-14 0.68834 20.3772)
(-1.04576e-14 0.683838 19.7245)
(-9.32995e-15 0.677749 19.0808)
(-8.1585e-15 0.672228 18.4513)
(-7.1245e-15 0.667762 17.8397)
(-6.14594e-15 0.66389 17.2498)
(-5.25685e-15 0.659713 16.6859)
(-4.53527e-15 0.654278 16.1519)
(-4.0445e-15 0.646835 15.651)
(-3.50014e-15 0.636974 15.1848)
(-2.80348e-15 0.624625 14.753)
(-2.73781e-15 0.609984 14.3538)
(-2.82159e-15 0.59339 13.984)
(-2.69173e-15 0.575209 13.6401)
(-2.99504e-15 0.555768 13.3178)
(-2.90922e-15 0.53537 13.0135)
(-3.01039e-15 0.514361 12.7236)
(-3.1198e-15 0.493173 12.4452)
(-3.36804e-15 0.472303 12.1756)
(-3.64119e-15 0.452237 11.9128)
(-3.64769e-15 0.433375 11.6553)
(-3.81222e-15 0.415985 11.4021)
(-3.70818e-15 0.400205 11.1527)
(-3.74107e-15 0.386073 10.9069)
(-3.9156e-15 0.373533 10.6646)
(-3.8843e-15 0.362411 10.4263)
(-3.97366e-15 0.352372 10.1925)
(-4.27484e-15 0.342949 9.9646)
(-4.54642e-15 0.333732 9.74365)
(-4.70458e-15 0.3247 9.53002)
(-4.8827e-15 0.316554 9.32228)
(-5.03532e-15 0.310866 9.11659)
(-5.15377e-15 0.309857 8.90686)
(-5.21753e-15 0.315788 8.68586)
(-5.29716e-15 0.330157 8.44714)
(-5.29152e-15 0.353069 8.18694)
(-5.25433e-15 0.383049 7.90556)
(-5.16886e-15 0.417338 7.60732)
(-5.0453e-15 0.452531 7.29946)
(-4.90222e-15 0.485282 6.99051)
(-4.72377e-15 0.512828 6.68877)
(-4.4739e-15 0.533241 6.40127)
(-4.1967e-15 0.545449 6.13335)
(-3.89207e-15 0.549108 5.88852)
(-3.6071e-15 0.544442 5.66865)
(-3.35636e-15 0.532089 5.47412)
(-3.16811e-15 0.512985 5.30411)
(-2.97808e-15 0.488276 5.15681)
(-3.0088e-15 0.459243 5.02971)
(-3.05038e-15 0.427237 4.91988)
(-3.06049e-15 0.393608 4.82425)
(-3.20422e-15 0.359648 4.73981)
(-3.37649e-15 0.32653 4.66382)
(-3.50226e-15 0.295271 4.59391)
(-3.49115e-15 0.266699 4.5281)
(-3.43739e-15 0.241435 4.46481)
(-3.49606e-15 0.219887 4.40281)
(-3.57238e-15 0.202238 4.3412)
(-3.50066e-15 0.188447 4.27935)
(-3.62567e-15 0.178259 4.21694)
(-3.53272e-15 0.17123 4.15389)
(-3.29286e-15 0.166766 4.0904)
(-3.24136e-15 0.164186 4.02685)
(-2.79677e-15 0.162785 3.96375)
(-2.50615e-15 0.161902 3.90167)
(-2.3454e-15 0.160971 3.84114)
(-2.29904e-15 0.159558 3.78261)
(-2.29767e-15 0.157375 3.72636)
(-1.80284e-15 0.154277 3.67254)
(-1.48184e-15 0.150249 3.62113)
(-1.34652e-15 0.14538 3.57201)
(-1.13728e-15 0.13983 3.52496)
(-1.18942e-15 0.133808 3.47973)
(-1.30315e-15 0.127536 3.43608)
(-1.45484e-15 0.121233 3.39379)
(-1.33151e-15 0.115088 3.35268)
(-1.34925e-15 0.109251 3.31267)
(-1.51568e-15 0.103829 3.27371)
(-1.70233e-15 0.0989142 3.2358)
(-1.85904e-15 0.0946147 3.19902)
(-1.94348e-15 0.0910701 3.1635)
(-1.96594e-15 0.0884224 3.12939)
(-1.90587e-15 0.0867904 3.09662)
(-1.90021e-15 0.0862676 3.06489)
(-1.87024e-15 0.0869107 3.03379)
(-1.62359e-15 0.088684 3.0027)
(-1.33708e-15 0.0914205 2.97152)
(-9.15515e-16 0.094896 2.9391)
(-4.01357e-16 0.0987673 2.90742)
(-4.13818e-17 0.10297 2.87021)
(3.56731e-16 0.106479 2.84418)
(8.31116e-16 0.112345 2.78687)
(-1.10789e-14 -0.50042 22.2404)
(-1.13288e-14 -0.131577 22.5745)
(-1.15138e-14 0.156333 22.608)
(-1.17365e-14 0.384127 22.4498)
(-1.09134e-14 0.55048 22.15)
(-1.06786e-14 0.658495 21.7293)
(-9.67413e-15 0.717788 21.2065)
(-8.90252e-15 0.743335 20.6225)
(-8.25371e-15 0.750269 20.0109)