/*--------------------------------*- C++ -*----------------------------------*\
| =========                 |                                                 |
| \\      /  F ield         | OpenFOAM: The Open Source CFD Toolbox           |
|  \\    /   O peration     | Version:  4.1                                   |
|   \\  /    A nd           | Web:      www.OpenFOAM.org                      |
|    \\/     M anipulation  |                                                 |
\*---------------------------------------------------------------------------*/
FoamFile
{
    version     2.0;
    format      ascii;
    class       volScalarField;
    location    "1600";
    object      nut;
}
// * * * * * * * * * * * * * * * * * * * * * * * * * * * * * * * * * * * * * //

dimensions      [0 2 -1 0 0 0 0];

internalField   uniform 1.85252e-05;

boundaryField
{
    courseFace
    {
        type            calculated;
        value           uniform 1.85252e-05;
    }
    courseCyclicBoundary
    {
        type            cyclicAMI;
        value           nonuniform List<scalar> 
200
(
1.85252e-05
1.85252e-05
1.85252e-05
1.85252e-05
1.85252e-05
1.85252e-05
1.85252e-05
1.85252e-05
1.85252e-05
1.85252e-05
1.85252e-05
1.85252e-05
1.85252e-05
1.85252e-05
1.85252e-05
1.85252e-05
1.85252e-05
1.85252e-05
1.85252e-05
1.85252e-05
1.85252e-05
1.85252e-05
1.85252e-05
1.85252e-05
1.85252e-05
1.85252e-05
1.85252e-05
1.85252e-05
1.85252e-05
1.85252e-05
1.85252e-05
1.85252e-05
1.85252e-05
1.85252e-05
1.85252e-05
1.85252e-05
1.85252e-05
1.85252e-05
1.85252e-05
1.85252e-05
1.85252e-05
1.85252e-05
1.85252e-05
1.85252e-05
1.85252e-05
1.85252e-05
1.85252e-05
1.85252e-05
1.85252e-05
1.85252e-05
1.85252e-05
1.85252e-05
1.85252e-05
1.85252e-05
1.85252e-05
1.85252e-05
1.85252e-05
1.85252e-05
1.85252e-05
1.85252e-05
1.85252e-05
1.85252e-05
1.85252e-05
1.85252e-05
1.85252e-05
1.85252e-05
1.85252e-05
1.85252e-05
1.85252e-05
1.85252e-05
1.85252e-05
1.85252e-05
1.85252e-05
1.85252e-05
1.85252e-05
1.85252e-05
1.85252e-05
1.85252e-05
1.85252e-05
1.85252e-05
1.85252e-05
1.85252e-05
1.85252e-05
1.85252e-05
1.85252e-05
1.85252e-05
1.85252e-05
1.85252e-05
1.85252e-05
1.85252e-05
1.85252e-05
1.85252e-05
1.85252e-05
1.85252e-05
1.85252e-05
1.85252e-05
1.85252e-05
1.85252e-05
1.85252e-05
1.85252e-05
1.85252e-05
1.85252e-05
1.85252e-05
1.85252e-05
1.85252e-05
1.85252e-05
1.85252e-05
1.85252e-05
1.85252e-05
1.85252e-05
1.85252e-05
1.85252e-05
1.85252e-05
1.85252e-05
1.85252e-05
1.85252e-05
1.85252e-05
1.85252e-05
1.85252e-05
1.85252e-05
1.85252e-05
1.85252e-05
1.85252e-05
1.85252e-05
1.85252e-05
1.85252e-05
1.85252e-05
1.85252e-05
1.85252e-05
1.85252e-05
1.85252e-05
1.85252e-05
1.85252e-05
1.85252e-05
1.85252e-05
1.85252e-05
1.85252e-05
1.85252e-05
1.85252e-05
1.85252e-05
1.85252e-05
1.85252e-05
1.85252e-05
1.85252e-05
1.85252e-05
1.85252e-05
1.85252e-05
1.85252e-05
1.85252e-05
1.85252e-05
1.85252e-05
1.85252e-05
1.85252e-05
1.85252e-05
1.85252e-05
1.85252e-05
1.85252e-05
1.85252e-05
1.85252e-05
1.85252e-05
1.85252e-05
1.85252e-05
1.85252e-05
1.85252e-05
1.85252e-05
1.85252e-05
1.85252e-05
1.85252e-05
1.85252e-05
1.85252e-05
1.85252e-05
1.85252e-05
1.85252e-05
1.85252e-05
1.85252e-05
1.85252e-05
1.85252e-05
1.85252e-05
1.85252e-05
1.85252e-05
1.85252e-05
1.85252e-05
1.85252e-05
1.85252e-05
1.85252e-05
1.85252e-05
1.85252e-05
1.85252e-05
1.85252e-05
1.85252e-05
1.85252e-05
1.85252e-05
1.85252e-05
1.85252e-05
1.85252e-05
1.85252e-05
1.85252e-05
1.85252e-05
1.85252e-05
1.85252e-05
)
;
    }
    courseWalls
    {
        type            nutkWallFunction;
        Cmu             0.09;
        kappa           0.41;
        E               9.8;
        value           nonuniform List<scalar> 
100
(
0.273595
0.282617
0.291612
0.30058
0.309522
0.318438
0.32733
0.336197
0.345041
0.353861
0.362659
0.371436
0.380191
0.388924
0.397638
0.406331
0.415005
0.423659
0.432295
0.440912
0.449511
0.458093
0.466657
0.475204
0.483734
0.492248
0.500746
0.509227
0.517694
0.526145
0.534581
0.543002
0.551409
0.559802
0.56818
0.576545
0.584896
0.593233
0.601558
0.609869
0.618168
0.626454
0.634728
0.642989
0.651239
0.659476
0.667702
0.675916
0.684119
0.692311
0.700491
0.708661
0.71682
0.724968
0.733105
0.741233
0.74935
0.757456
0.765553
0.77364
0.781717
0.789785
0.797843
0.805891
0.81393
0.82196
0.829981
0.837993
0.845996
0.85399
0.861976
0.869952
0.877921
0.885881
0.893832
0.901776
0.909711
0.917638
0.925557
0.933468
0.941371
0.949267
0.957155
0.965035
0.972908
0.980773
0.988631
0.996481
1.00432
1.01216
1.01999
1.02781
1.03563
1.04343
1.05124
1.05903
1.06682
1.0746
1.08237
1.09014
)
;
    }
    freeBoundaryCourse
    {
        type            calculated;
        value           uniform 1.85252e-05;
    }
    courseSymmetryWalls
    {
        type            symmetryPlane;
    }
    fineSymmetryWall
    {
        type            symmetryPlane;
    }
    fineWalls
    {
        type            nutkWallFunction;
        Cmu             0.09;
        kappa           0.41;
        E               9.8;
        value           nonuniform List<scalar> 
160
(
0.203608
0.401732
0.401716
0.203608
0.401716
0.203608
0.401716
0.401732
0.203608
0.401732
0.401716
0.203608
0.401716
0.203608
0.401716
0.401732
0.203608
0.401732
0.203608
0.401732
0.401716
0.203608
0.401716
0.401732
0.203608
0.401732
0.203608
0.401732
0.401716
0.203608
0.401716
0.203608
0.401716
0.401732
0.203608
0.401732
0.401716
0.203608
0.401716
0.203608
0.401716
0.401732
0.203608
0.401732
0.203608
0.401732
0.401716
0.203608
0.401716
0.401732
0.203608
0.401732
0.203608
0.401732
0.401716
0.203608
0.401716
0.203608
0.401716
0.401732
0.203608
0.401732
0.401716
0.203608
0.401716
0.203608
0.401716
0.401732
0.203608
0.401732
0.203608
0.401732
0.401716
0.203608
0.401716
0.401732
0.203608
0.401716
0.203608
0.401716
0.203608
0.452349
0.203608
0.203608
0.203608
0.452349
0.203608
0.203608
0.203608
0.452349
0.203608
0.203608
0.452349
0.203608
0.203608
0.203608
0.452349
0.203608
0.203608
0.452349
0.203608
0.203608
0.203608
0.452349
0.203608
0.203608
0.203608
0.452349
0.203608
0.203608
0.452349
0.203608
0.203608
0.203608
0.452349
0.203608
0.203608
0.452349
0.203608
0.203608
0.203608
0.452349
0.203608
0.203608
0.203608
0.452349
0.203608
0.203608
0.452349
0.203608
0.203608
0.203608
0.452349
0.203608
0.203608
0.203608
0.452349
0.203608
0.203608
0.452349
0.203608
0.203608
0.203608
0.452349
0.203608
0.203608
0.452349
0.203608
0.203608
0.203608
0.452349
0.203608
0.203608
0.203608
0.452349
0.203608
0.203608
0.452349
0.203608
0.203608
)
;
    }
    fineCyclicBoundary
    {
        type            cyclicAMI;
        value           uniform 1.85252e-05;
    }
    fineplug
    {
        type            cyclicAMI;
        value           uniform 1.85252e-05;
    }
    faceFine
    {
        type            calculated;
        value           uniform 1.85252e-05;
    }
    inletFace
    {
        type            calculated;
        value           uniform 1.85252e-05;
    }
    inlet
    {
        type            calculated;
        value           uniform 1.85252e-05;
    }
    inletWalls
    {
        type            nutkWallFunction;
        Cmu             0.09;
        kappa           0.41;
        E               9.8;
        value           uniform 0;
    }
    outletInlet
    {
        type            cyclicAMI;
        value           nonuniform List<scalar> 
15
(
1.85252e-05
1.85252e-05
1.85252e-05
1.85252e-05
1.85252e-05
1.85252e-05
1.85252e-05
1.85252e-05
1.85252e-05
1.85252e-05
1.85252e-05
1.85252e-05
1.85252e-05
1.85252e-05
1.85252e-05
)
;
    }
}


// ************************************************************************* //
