/*--------------------------------*- C++ -*----------------------------------*\
| =========                 |                                                 |
| \\      /  F ield         | OpenFOAM: The Open Source CFD Toolbox           |
|  \\    /   O peration     | Version:  4.1                                   |
|   \\  /    A nd           | Web:      www.OpenFOAM.org                      |
|    \\/     M anipulation  |                                                 |
\*---------------------------------------------------------------------------*/
FoamFile
{
    version     2.0;
    format      ascii;
    class       volScalarField;
    location    "1600";
    object      p;
}
// * * * * * * * * * * * * * * * * * * * * * * * * * * * * * * * * * * * * * //

dimensions      [0 2 -2 0 0 0 0];

internalField   nonuniform List<scalar> 
26785
(
2238.8
2242.33
2244.01
2244.06
2243.62
2242.91
2241.82
2240.73
2240.29
2240.98
2243.07
2246.48
2251.03
2256.73
2263.37
2270.43
2277.36
2283.6
2288.67
2292.09
2293.75
2294.31
2294.49
2294.17
2292.59
2288.89
2282.5
2273.1
2260.72
2245.71
2228.72
2210.6
2192.25
2174.6
2158.57
2145
2134.72
2128.5
2127.12
2131.27
2141.57
2158.34
2181.5
2210.23
2243.02
2277.92
2313
2346.7
2378.04
2406.54
2431.87
2453.6
2471.14
2484.1
2492.32
2495.81
2494.72
2489.43
2480.57
2469.01
2455.76
2441.82
2427.96
2414.46
2400.96
2386.18
2368.81
2347.41
2320.02
2285.29
2243.16
2194.22
2139.02
2078.14
2012.28
1942.12
1868.26
1791.32
1711.97
1630.94
1548.9
1466.38
1383.79
1301.46
1219.58
1138.22
1057.31
976.683
896.137
815.512
734.707
653.648
572.247
490.624
409.284
329.444
252.338
177.655
105.114
34.1402
2238.78
2242.34
2244.01
2244.05
2243.61
2242.89
2241.8
2240.71
2240.26
2240.96
2243.05
2246.45
2251
2256.71
2263.35
2270.42
2277.36
2283.62
2288.7
2292.12
2293.78
2294.33
2294.52
2294.22
2292.66
2288.99
2282.61
2273.21
2260.8
2245.76
2228.74
2210.56
2192.17
2174.48
2158.4
2144.79
2134.47
2128.23
2126.81
2130.94
2141.21
2157.99
2181.18
2209.98
2242.86
2277.86
2313.02
2346.77
2378.14
2406.66
2432.02
2453.77
2471.33
2484.31
2492.54
2496.03
2494.92
2489.6
2480.7
2469.09
2455.8
2441.82
2427.95
2414.52
2401.13
2386.48
2369.29
2348.09
2320.85
2286.18
2244.08
2195.14
2139.92
2079.02
2013.13
1942.93
1869.04
1792.04
1712.64
1631.56
1549.47
1466.91
1384.29
1301.92
1220.02
1138.66
1057.76
977.128
896.579
815.948
735.133
654.061
572.613
490.88
409.362
329.376
252.237
177.552
104.928
34.0869
2238.77
2242.35
2244.01
2244.03
2243.59
2242.87
2241.77
2240.67
2240.22
2240.91
2243
2246.41
2250.95
2256.66
2263.31
2270.4
2277.37
2283.66
2288.76
2292.19
2293.83
2294.37
2294.56
2294.3
2292.79
2289.16
2282.81
2273.4
2260.96
2245.86
2228.75
2210.5
2192.01
2174.23
2158.08
2144.39
2134
2127.69
2126.21
2130.29
2140.53
2157.33
2180.59
2209.52
2242.58
2277.76
2313.06
2346.89
2378.31
2406.86
2432.28
2454.09
2471.7
2484.71
2492.97
2496.46
2495.34
2489.97
2480.99
2469.29
2455.9
2441.86
2427.99
2414.67
2401.5
2387.11
2370.27
2349.47
2322.49
2287.94
2245.9
2196.97
2141.72
2080.76
2014.81
1944.56
1870.58
1793.49
1713.98
1632.79
1550.61
1467.97
1385.28
1302.86
1220.93
1139.56
1058.66
978.034
897.477
816.84
736.009
654.907
573.371
491.43
409.56
329.271
252.05
177.348
104.635
33.9068
2238.74
2242.37
2244.01
2244.01
2243.56
2242.84
2241.73
2240.63
2240.17
2240.86
2242.94
2246.35
2250.89
2256.59
2263.25
2270.36
2277.38
2283.71
2288.84
2292.29
2293.9
2294.41
2294.63
2294.43
2292.98
2289.42
2283.1
2273.68
2261.18
2245.99
2228.77
2210.39
2191.77
2173.87
2157.59
2143.79
2133.3
2126.88
2125.31
2129.31
2139.51
2156.32
2179.68
2208.83
2242.15
2277.6
2313.11
2347.07
2378.56
2407.16
2432.66
2454.57
2472.25
2485.31
2493.6
2497.11
2495.96
2490.52
2481.44
2469.6
2456.08
2441.95
2428.08
2414.92
2402.05
2388.05
2371.76
2351.54
2324.94
2290.58
2248.63
2199.71
2144.39
2083.35
2017.33
1946.98
1872.89
1795.65
1715.98
1634.64
1552.32
1469.57
1386.79
1304.29
1222.31
1140.93
1060.05
979.432
898.869
818.225
737.384
656.256
574.609
492.349
409.961
329.277
251.837
177.011
104.304
33.5663
2238.72
2242.4
2244.01
2243.97
2243.52
2242.8
2241.69
2240.57
2240.11
2240.79
2242.87
2246.27
2250.81
2256.52
2263.18
2270.32
2277.39
2283.78
2288.95
2292.41
2293.99
2294.47
2294.72
2294.59
2293.23
2289.74
2283.46
2274.04
2261.47
2246.16
2228.79
2210.24
2191.45
2173.38
2156.93
2142.98
2132.34
2125.79
2124.09
2127.99
2138.13
2154.95
2178.46
2207.89
2241.58
2277.39
2313.19
2347.33
2378.89
2407.55
2433.17
2455.2
2472.97
2486.1
2494.45
2497.98
2496.8
2491.28
2482.05
2470.04
2456.33
2442.08
2428.22
2415.26
2402.77
2389.29
2373.76
2354.3
2328.21
2294.1
2252.25
2203.34
2147.94
2086.79
2020.66
1950.2
1875.96
1798.53
1718.65
1637.11
1554.63
1471.74
1388.83
1306.23
1224.2
1142.81
1061.95
981.35
900.782
820.122
739.281
658.139
576.358
493.652
410.632
329.587
251.847
176.518
103.868
33.1398
2238.67
2242.42
2244.01
2243.93
2243.48
2242.76
2241.64
2240.51
2240.05
2240.72
2242.79
2246.19
2250.73
2256.43
2263.1
2270.28
2277.41
2283.86
2289.08
2292.56
2294.1
2294.55
2294.82
2294.77
2293.52
2290.13
2283.91
2274.47
2261.81
2246.36
2228.81
2210.04
2191.03
2172.74
2156.09
2141.96
2131.14
2124.42
2122.57
2126.33
2136.39
2153.23
2176.91
2206.7
2240.87
2277.15
2313.31
2347.66
2379.31
2408.05
2433.81
2456
2473.88
2487.09
2495.51
2499.08
2497.87
2492.24
2482.84
2470.6
2456.67
2442.27
2428.4
2415.71
2403.66
2390.84
2376.28
2357.78
2332.3
2298.5
2256.8
2207.87
2152.36
2091.07
2024.8
1954.21
1879.8
1802.13
1721.99
1640.22
1557.55
1474.49
1391.43
1308.72
1226.61
1145.22
1064.39
983.821
903.253
822.574
741.754
660.602
578.62
495.297
411.552
330.244
252.374
176.308
103.341
32.5671
2238.61
2242.43
2244.01
2243.87
2243.43
2242.72
2241.58
2240.45
2239.98
2240.64
2242.7
2246.1
2250.63
2256.34
2263.02
2270.23
2277.44
2283.96
2289.23
2292.73
2294.23
2294.63
2294.94
2294.99
2293.86
2290.58
2284.43
2274.98
2262.22
2246.58
2228.8
2209.78
2190.5
2171.95
2155.06
2140.71
2129.68
2122.77
2120.73
2124.32
2134.28
2151.13
2175.02
2205.25
2240
2276.87
2313.48
2348.08
2379.84
2408.66
2434.59
2456.97
2474.98
2488.3
2496.81
2500.42
2499.17
2493.42
2483.82
2471.32
2457.11
2442.52
2428.64
2416.25
2404.71
2392.68
2379.31
2361.97
2337.23
2303.81
2262.26
2213.3
2157.64
2096.18
2029.76
1959.02
1884.4
1806.46
1726.03
1644
1561.1
1477.86
1394.63
1311.77
1229.58
1148.2
1067.42
986.876
906.309
825.612
744.856
663.707
581.386
497.187
412.583
331.108
253.361
176.791
103.114
32.0502
2238.56
2242.44
2244
2243.81
2243.38
2242.67
2241.53
2240.38
2239.9
2240.55
2242.61
2246.01
2250.53
2256.25
2262.95
2270.19
2277.48
2284.08
2289.4
2292.92
2294.37
2294.72
2295.07
2295.23
2294.25
2291.1
2285.02
2275.55
2262.67
2246.83
2228.78
2209.46
2189.86
2171.01
2153.85
2139.24
2127.97
2120.83
2118.57
2121.97
2131.8
2148.64
2172.79
2203.54
2239
2276.58
2313.72
2348.6
2380.47
2409.38
2435.51
2458.11
2476.27
2489.72
2498.34
2502.01
2500.73
2494.84
2485.01
2472.2
2457.66
2442.84
2428.92
2416.88
2405.89
2394.82
2382.88
2366.9
2343.02
2310.05
2268.67
2219.65
2163.79
2102.11
2035.52
1964.61
1889.78
1811.53
1730.77
1648.44
1565.31
1481.87
1398.46
1315.43
1233.15
1151.78
1071.06
990.545
909.97
829.251
748.646
667.53
584.669
499.239
413.62
332.067
254.597
177.811
103.441
31.8849
2238.5
2242.44
2243.98
2243.74
2243.33
2242.63
2241.47
2240.32
2239.82
2240.46
2242.5
2245.9
2250.43
2256.15
2262.87
2270.16
2277.52
2284.21
2289.59
2293.14
2294.53
2294.81
2295.21
2295.5
2294.67
2291.67
2285.68
2276.2
2263.17
2247.09
2228.73
2209.05
2189.1
2169.91
2152.44
2137.55
2126.02
2118.62
2116.11
2119.28
2128.95
2145.78
2170.2
2201.56
2237.87
2276.29
2314.04
2349.22
2381.19
2410.19
2436.57
2459.41
2477.73
2491.34
2500.11
2503.85
2502.55
2496.52
2486.42
2473.25
2458.32
2443.22
2429.24
2417.58
2407.17
2397.24
2386.97
2372.58
2349.69
2317.24
2276.05
2226.91
2170.79
2108.86
2042.08
1971.01
1895.93
1817.35
1736.22
1653.58
1570.2
1486.55
1402.93
1319.72
1237.32
1155.98
1075.34
994.849
914.245
833.497
753.192
672.109
588.417
501.355
414.625
333.115
255.931
179.085
104.137
32.0299
2238.43
2242.44
2243.96
2243.66
2243.27
2242.59
2241.42
2240.25
2239.75
2240.36
2242.4
2245.79
2250.31
2256.05
2262.79
2270.14
2277.59
2284.36
2289.8
2293.38
2294.7
2294.92
2295.36
2295.78
2295.13
2292.3
2286.41
2276.9
2263.71
2247.35
2228.64
2208.57
2188.22
2168.66
2150.86
2135.66
2123.84
2116.15
2113.35
2116.26
2125.73
2142.53
2167.25
2199.33
2236.63
2276.01
2314.45
2349.95
2382
2411.09
2437.75
2460.86
2479.36
2493.17
2502.12
2505.97
2504.65
2498.46
2488.07
2474.49
2459.11
2443.67
2429.57
2418.33
2408.52
2399.92
2391.6
2379.03
2357.29
2325.41
2284.39
2235.09
2178.63
2116.4
2049.41
1978.19
1902.87
1823.92
1742.38
1659.42
1575.79
1491.93
1408.09
1324.65
1242.12
1160.83
1080.29
999.804
919.129
838.356
758.58
677.438
592.479
503.416
415.594
334.307
257.351
180.436
105.03
32.3713
2238.34
2242.42
2243.94
2243.58
2243.21
2242.55
2241.37
2240.18
2239.67
2240.27
2242.28
2245.66
2250.2
2255.95
2262.73
2270.12
2277.66
2284.53
2290.03
2293.65
2294.89
2295.03
2295.52
2296.09
2295.63
2292.98
2287.2
2277.65
2264.28
2247.61
2228.51
2208
2187.22
2167.27
2149.11
2133.58
2121.44
2113.43
2110.3
2112.9
2122.14
2138.87
2163.92
2196.81
2235.26
2275.79
2314.99
2350.8
2382.88
2412.05
2439.04
2462.44
2481.14
2495.19
2504.37
2508.35
2507.03
2500.68
2489.97
2475.93
2460.03
2444.18
2429.93
2419.12
2409.91
2402.86
2396.79
2386.29
2365.82
2334.57
2293.71
2244.15
2187.28
2124.69
2057.5
1986.16
1910.6
1831.23
1749.27
1665.96
1582.09
1498.02
1413.95
1330.25
1247.56
1166.33
1085.91
1005.42
924.584
843.866
764.903
683.409
596.612
505.308
416.55
335.69
258.901
181.906
106.124
32.8134
2238.23
2242.4
2243.92
2243.49
2243.16
2242.51
2241.33
2240.12
2239.59
2240.16
2242.15
2245.53
2250.07
2255.85
2262.66
2270.12
2277.75
2284.71
2290.28
2293.94
2295.09
2295.14
2295.69
2296.41
2296.15
2293.7
2288.05
2278.46
2264.88
2247.86
2228.32
2207.34
2186.1
2165.73
2147.19
2131.31
2118.81
2110.44
2106.95
2109.19
2118.15
2134.78
2160.19
2193.99
2233.8
2275.65
2315.68
2351.77
2383.83
2413.04
2440.41
2464.12
2483.05
2497.4
2506.86
2511
2509.7
2503.2
2492.14
2477.61
2461.11
2444.8
2430.33
2419.98
2411.35
2406.05
2402.57
2394.36
2375.3
2344.72
2303.97
2254.08
2196.68
2133.68
2066.32
1994.9
1919.09
1839.28
1756.87
1673.22
1589.11
1504.84
1420.52
1336.51
1253.63
1172.5
1092.23
1011.69
930.534
850.134
772.207
689.773
600.533
506.961
417.537
337.3
260.641
183.656
107.562
33.3412
2238.11
2242.37
2243.89
2243.4
2243.11
2242.48
2241.29
2240.07
2239.51
2240.06
2242.02
2245.39
2249.94
2255.75
2262.61
2270.12
2277.86
2284.9
2290.55
2294.25
2295.3
2295.26
2295.87
2296.74
2296.7
2294.48
2288.95
2279.32
2265.5
2248.1
2228.09
2206.6
2184.87
2164.06
2145.12
2128.84
2115.96
2107.19
2103.28
2105.11
2113.75
2130.22
2156.01
2190.86
2232.24
2275.62
2316.54
2352.85
2384.81
2414.05
2441.84
2465.87
2485.07
2499.78
2509.57
2513.91
2512.66
2506.03
2494.62
2479.55
2462.4
2445.54
2430.81
2420.92
2412.83
2409.51
2408.98
2403.28
2385.72
2355.83
2315.15
2264.81
2206.77
2143.31
2075.81
2004.39
1928.35
1848.06
1765.17
1681.18
1596.84
1512.38
1427.82
1343.45
1260.32
1179.34
1099.24
1018.63
936.872
857.39
780.375
696.037
604.027
508.486
418.572
339.044
262.546
185.856
109.558
34.0127
2237.99
2242.33
2243.86
2243.3
2243.06
2242.46
2241.26
2240.01
2239.44
2239.95
2241.89
2245.24
2249.79
2255.65
2262.55
2270.14
2277.98
2285.12
2290.83
2294.59
2295.52
2295.37
2296.06
2297.08
2297.28
2295.29
2289.91
2280.22
2266.14
2248.33
2227.8
2205.78
2183.54
2162.26
2142.88
2126.19
2112.88
2103.67
2099.3
2100.66
2108.92
2125.18
2151.36
2187.37
2230.61
2275.74
2317.58
2354.03
2385.77
2415.01
2443.27
2467.63
2487.14
2502.31
2512.48
2517.09
2515.94
2509.18
2497.43
2481.79
2463.93
2446.45
2431.38
2421.95
2414.37
2413.27
2416.04
2413.04
2397.07
2367.86
2327.18
2276.29
2217.45
2153.47
2085.92
2014.6
1938.34
1857.54
1774.17
1689.84
1605.28
1520.66
1435.86
1351.07
1267.61
1186.84
1106.94
1026.2
943.457
866.054
789.025
701.46
606.924
510.199
419.814
341.004
264.816
188.753
112.219
34.8749
2237.85
2242.3
2243.84
2243.21
2243.02
2242.45
2241.23
2239.97
2239.37
2239.84
2241.74
2245.07
2249.64
2255.55
2262.51
2270.18
2278.12
2285.35
2291.14
2294.96
2295.76
2295.49
2296.25
2297.43
2297.88
2296.16
2290.93
2281.17
2266.81
2248.54
2227.47
2204.88
2182.11
2160.33
2140.49
2123.34
2109.57
2099.87
2095
2095.83
2103.65
2119.62
2146.21
2183.51
2228.9
2276.07
2318.82
2355.27
2386.66
2415.88
2444.66
2469.34
2489.25
2504.97
2515.59
2520.51
2519.51
2512.67
2500.59
2484.36
2465.74
2447.56
2432.08
2423.08
2415.95
2417.31
2423.79
2423.69
2409.36
2380.78
2340.05
2288.45
2228.62
2164.07
2096.58
2025.49
1949.01
1867.68
1783.84
1699.18
1614.41
1529.67
1444.64
1359.36
1275.48
1194.99
1115.34
1034.33
950.216
876.575
797.92
705.019
609.305
512.311
420.995
342.825
267.386
192.527
115.839
36.0133
2237.69
2242.26
2243.81
2243.11
2242.99
2242.45
2241.21
2239.93
2239.3
2239.73
2241.58
2244.89
2249.47
2255.44
2262.47
2270.23
2278.28
2285.59
2291.45
2295.36
2296.01
2295.61
2296.44
2297.78
2298.5
2297.08
2292
2282.17
2267.48
2248.74
2227.09
2203.9
2180.57
2158.27
2137.94
2120.3
2106.03
2095.81
2090.39
2090.62
2097.94
2113.54
2140.54
2179.23
2227.14
2276.66
2320.24
2356.53
2387.41
2416.58
2445.91
2470.92
2491.33
2507.72
2518.86
2524.18
2523.38
2516.5
2504.14
2487.33
2467.89
2448.93
2432.96
2424.34
2417.58
2421.67
2432.27
2435.24
2422.62
2394.61
2353.73
2301.26
2240.18
2175
2107.74
2037
1960.31
1878.45
1794.17
1709.18
1624.2
1539.38
1454.18
1368.33
1283.9
1203.77
1124.45
1042.77
957.22
888.148
807.388
706.619
611.015
514.873
422.772
345.479
270.915
197.176
119.8
37.0463
2237.52
2242.22
2243.79
2243.01
2242.97
2242.46
2241.2
2239.89
2239.23
2239.62
2241.42
2244.69
2249.3
2255.33
2262.44
2270.3
2278.46
2285.85
2291.78
2295.78
2296.26
2295.72
2296.64
2298.13
2299.15
2298.04
2293.14
2283.21
2268.18
2248.92
2226.66
2202.85
2178.93
2156.09
2135.24
2117.08
2102.26
2091.48
2085.46
2085.05
2091.81
2106.93
2134.31
2174.46
2225.32
2277.56
2321.85
2357.72
2387.93
2417.04
2446.92
2472.27
2493.35
2510.53
2522.27
2528.05
2527.54
2520.69
2508.1
2490.72
2470.44
2450.63
2434.09
2425.79
2419.29
2426.42
2441.54
2447.77
2436.91
2409.35
2368.26
2314.72
2252.05
2186.18
2119.37
2049.08
1972.16
1889.8
1805.12
1719.81
1634.61
1549.78
1464.47
1377.99
1292.86
1213.17
1134.33
1051.31
964.959
899.314
817.808
707.343
611.257
516.474
423.688
348.392
275.776
203.581
125.565
39.1807
2237.36
2242.19
2243.77
2242.91
2242.96
2242.47
2241.2
2239.86
2239.16
2239.5
2241.25
2244.48
2249.11
2255.22
2262.42
2270.38
2278.65
2286.12
2292.13
2296.24
2296.53
2295.83
2296.84
2298.48
2299.81
2299.05
2294.34
2284.29
2268.88
2249.08
2226.18
2201.72
2177.19
2153.79
2132.39
2113.68
2098.29
2086.91
2080.26
2079.13
2085.26
2099.8
2127.48
2169.12
2223.42
2278.81
2323.64
2358.74
2388.13
2417.22
2447.62
2473.38
2495.31
2513.38
2525.78
2532.12
2531.96
2525.21
2512.46
2494.55
2473.4
2452.65
2435.47
2427.46
2421.09
2431.69
2451.69
2461.34
2452.28
2425.02
2383.7
2328.84
2264.09
2197.53
2131.49
2061.72
1984.51
1901.69
1816.69
1731.03
1645.6
1560.81
1475.53
1388.38
1302.36
1223.08
1144.84
1059.23
973.648
908.821
826.015
707.202
608.701
518.868
428.095
353.721
281.382
208.513
128.553
39.6
2237.2
2242.16
2243.75
2242.82
2242.96
2242.5
2241.21
2239.84
2239.1
2239.39
2241.07
2244.26
2248.91
2255.11
2262.41
2270.49
2278.87
2286.41
2292.48
2296.72
2296.8
2295.93
2297.04
2298.82
2300.48
2300.11
2295.58
2285.4
2269.6
2249.22
2225.66
2200.53
2175.36
2151.37
2129.4
2110.11
2094.13
2082.11
2074.79
2072.88
2078.3
2092.14
2119.98
2163.08
2221.4
2280.32
2325.64
2359.56
2388.03
2417.23
2448.09
2474.28
2497.23
2516.25
2529.36
2536.34
2536.61
2530.05
2517.21
2498.77
2476.7
2454.89
2437.01
2429.24
2422.92
2437.55
2462.78
2475.99
2468.79
2441.62
2400.12
2343.63
2276.23
2208.95
2144.04
2074.88
1997.34
1914.13
1828.87
1742.82
1657.11
1572.43
1487.35
1399.64
1312.64
1233.74
1156.36
1067.76
984.066
918.763
829.452
704.425
599.366
512.507
431.538
364.042
293.252
218.699
135.726
42.6845
2237.04
2242.14
2243.73
2242.72
2242.97
2242.54
2241.23
2239.83
2239.05
2239.27
2240.88
2244.01
2248.69
2254.99
2262.4
2270.63
2279.11
2286.71
2292.83
2297.24
2297.07
2296.02
2297.24
2299.17
2301.15
2301.21
2296.88
2286.54
2270.32
2249.34
2225.09
2199.26
2173.44
2148.85
2126.28
2106.39
2089.78
2077.11
2069.07
2066.31
2070.92
2083.95
2111.71
2156.34
2219.23
2282.02
2327.75
2360.34
2387.85
2417.27
2448.41
2475.07
2499.14
2519.13
2533
2540.7
2541.48
2535.18
2522.31
2503.35
2480.28
2457.28
2438.63
2431.01
2424.7
2444
2474.79
2491.74
2486.39
2459.05
2417.53
2358.99
2288.35
2220.48
2157.03
2088.51
2010.63
1927.16
1841.71
1755.18
1669.05
1584.46
1499.78
1411.75
1323.61
1243.88
1165.41
1071.97
991.077
933.316
840.912
711.324
600.517
510.652
440.074
376.823
297.298
219.335
140.632
49.3186
2236.88
2242.11
2243.71
2242.63
2243
2242.59
2241.26
2239.82
2239
2239.14
2240.67
2243.75
2248.46
2254.88
2262.4
2270.79
2279.38
2287.02
2293.19
2297.78
2297.34
2296.11
2297.43
2299.51
2301.81
2302.34
2298.21
2287.71
2271.04
2249.43
2224.47
2197.92
2171.45
2146.23
2123.05
2102.54
2085.28
2071.91
2063.12
2059.42
2063.08
2075.19
2102.44
2149.06
2216.94
2283.77
2329.82
2361.28
2387.81
2417.51
2448.71
2475.82
2501.07
2522.01
2536.72
2545.23
2546.59
2540.64
2527.81
2508.31
2484.17
2459.84
2440.32
2432.68
2426.49
2451.02
2487.71
2508.59
2504.99
2477.12
2435.87
2374.64
2300.25
2232.33
2170.71
2102.76
2024.5
1940.89
1855.26
1768.16
1681.5
1596.9
1512.88
1425.92
1340.27
1263.09
1181.76
1082.28
994.206
931.607
841.564
721.252
618.654
530.137
456.533
387.454
305.35
222.152
141.097
48.1129
2236.74
2242.1
2243.69
2242.54
2243.04
2242.66
2241.3
2239.83
2238.95
2239.02
2240.45
2243.46
2248.21
2254.76
2262.4
2270.97
2279.66
2287.33
2293.54
2298.35
2297.6
2296.19
2297.62
2299.85
2302.46
2303.5
2299.59
2288.9
2271.75
2249.49
2223.79
2196.53
2169.38
2143.52
2119.73
2098.57
2080.64
2066.54
2056.94
2052.2
2054.71
2065.81
2091.9
2141.25
2214.62
2285.26
2331.61
2362.31
2387.89
2417.92
2449
2476.59
2503.02
2524.88
2540.53
2549.94
2551.97
2546.46
2533.73
2513.73
2488.44
2462.64
2442.14
2434.2
2428.54
2458.56
2501.44
2526.46
2524.31
2495.52
2454.97
2390.17
2311.46
2244.02
2184.76
2117.61
2039.14
1955.5
1869.65
1781.72
1694.35
1609.61
1525.72
1438.75
1353.29
1274.85
1194.42
1099.02
1010.98
937.987
844.542
732.561
631.918
543.041
466.897
392.439
310.127
226.091
143.314
48.2974
2236.61
2242.09
2243.68
2242.45
2243.09
2242.73
2241.35
2239.84
2238.9
2238.88
2240.21
2243.13
2247.94
2254.61
2262.39
2271.18
2279.96
2287.65
2293.89
2298.93
2297.85
2296.27
2297.81
2300.19
2303.09
2304.69
2300.99
2290.09
2272.44
2249.51
2223.07
2195.07
2167.24
2140.75
2116.32
2094.51
2075.87
2061
2050.52
2044.64
2045.75
2055.78
2079.95
2132.67
2212.33
2286.25
2332.74
2362.82
2387.79
2418.32
2449.18
2477.29
2504.86
2527.68
2544.41
2554.84
2557.63
2552.66
2540.12
2519.63
2493.16
2465.77
2444.16
2435.52
2431.26
2466.77
2515.9
2545.22
2543.98
2513.95
2474.4
2404.85
2322.29
2255.8
2199.02
2133.02
2054.77
1971.23
1885.52
1797.39
1709.49
1624.73
1540.63
1451.81
1364.12
1283.71
1199.97
1106.02
1019.01
942.567
848.309
745.389
648.743
557.163
477.673
399.223
315.173
230.621
147.069
50.0043
2236.49
2242.09
2243.67
2242.37
2243.15
2242.82
2241.4
2239.85
2238.85
2238.73
2239.93
2242.78
2247.63
2254.43
2262.37
2271.4
2280.29
2287.97
2294.25
2299.53
2298.1
2296.35
2297.98
2300.52
2303.72
2305.89
2302.41
2291.26
2273.09
2249.48
2222.29
2193.55
2165.05
2137.93
2112.86
2090.36
2070.98
2055.29
2043.86
2036.74
2036.19
2045.09
2066.61
2123.26
2209.97
2286.71
2332.83
2362.33
2387.68
2418.61
2449.06
2477.79
2506.5
2530.37
2548.29
2559.85
2563.53
2559.24
2547
2526.07
2498.41
2469.44
2446.57
2436.59
2435.19
2475.91
2530.98
2564.56
2563.28
2531.97
2492.72
2417.71
2333.24
2268.52
2213.92
2149.12
2071.51
1988.42
1902.82
1814.57
1726.94
1642.96
1559.84
1470.65
1380.69
1297.18
1209.52
1114.89
1027.35
948.41
854.281
756.061
663.049
570.888
488.93
407.483
321.038
234.414
148.952
50.9203
2236.38
2242.09
2243.66
2242.29
2243.23
2242.92
2241.47
2239.87
2238.79
2238.55
2239.61
2242.38
2247.29
2254.21
2262.34
2271.64
2280.62
2288.29
2294.61
2300.11
2298.32
2296.44
2298.16
2300.83
2304.36
2307.09
2303.84
2292.41
2273.7
2249.41
2221.46
2191.99
2162.82
2135.07
2109.36
2086.16
2065.98
2049.41
2037
2028.57
2026.16
2033.91
2052.24
2113.1
2207.4
2286.6
2331.7
2361.22
2389.18
2419.1
2448.63
2478.08
2507.97
2532.98
2552.18
2564.92
2569.63
2566.18
2554.37
2533.08
2504.34
2473.95
2449.46
2436.38
2441.32
2486.44
2546.65
2584.02
2581.44
2550.01
2508.23
2429.23
2343.91
2281.16
2229.84
2166.71
2089.63
2006.91
1921.57
1832.87
1744.02
1658.89
1576.07
1489.27
1400.96
1315.14
1223.5
1126.86
1037.94
956.785
863.857
767.799
675.628
583.351
499.016
414.849
326.412
237.481
149.402
51.1886
2236.27
2242.1
2243.66
2242.22
2243.33
2243.02
2241.54
2239.88
2238.72
2238.35
2239.25
2241.94
2246.91
2253.95
2262.29
2271.89
2280.97
2288.6
2295
2300.68
2298.53
2296.53
2298.33
2301.14
2304.98
2308.27
2305.24
2293.52
2274.27
2249.29
2220.59
2190.4
2160.58
2132.22
2105.85
2081.9
2060.89
2043.42
2030
2020.31
2015.98
2022.7
2037.97
2102.32
2204.39
2285.7
2329.12
2359.88
2390.72
2419.14
2447.89
2478.15
2509.25
2535.53
2556.17
2570.16
2575.94
2573.42
2562.19
2540.68
2511.14
2479.67
2453.03
2434.58
2449.6
2498.4
2562.89
2603.65
2598.27
2567.6
2515.51
2442.34
2357.91
2292.48
2245.2
2185.62
2109.23
2026.72
1941.52
1852.35
1762.31
1674.92
1590.4
1504.3
1417.29
1330.83
1238.02
1140.1
1049.41
965.839
874.267
780.081
687.963
595.812
508.993
421.946
331.693
240.778
150.369
51.5021
2236.19
2242.11
2243.65
2242.16
2243.44
2243.14
2241.61
2239.89
2238.64
2238.12
2238.84
2241.45
2246.48
2253.64
2262.24
2272.14
2281.34
2288.88
2295.42
2301.21
2298.73
2296.62
2298.49
2301.45
2305.61
2309.4
2306.63
2294.58
2274.79
2249.13
2219.69
2188.8
2158.36
2129.39
2102.35
2077.62
2055.74
2037.36
2023.02
2012.22
2006.3
2012.24
2025.7
2091.61
2200.55
2283.68
2327.22
2358.69
2385.9
2416.96
2446.66
2477.94
2510.44
2538.12
2560.29
2575.72
2582.71
2581.17
2570.57
2549.03
2519.2
2487.06
2457.9
2433.76
2460.01
2512.69
2582.03
2625.48
2615.19
2585.75
2513.81
2450.97
2378.72
2305.9
2259.66
2204.53
2129.52
2047.58
1962.95
1873.51
1782.6
1693.97
1608.49
1522.5
1435.46
1347.72
1253.88
1154.83
1062.12
975.983
884.769
791.734
699.67
607.559
518.601
428.954
336.993
244.386
152.166
52.0162
2236.12
2242.13
2243.65
2242.1
2243.57
2243.26
2241.68
2239.89
2238.54
2237.85
2238.37
2240.92
2246.01
2253.3
2262.18
2272.4
2281.73
2289.15
2295.92
2301.71
2298.9
2296.73
2298.66
2301.76
2306.26
2310.47
2308.01
2295.59
2275.26
2248.94
2218.76
2187.2
2156.17
2126.62
2098.89
2073.33
2050.59
2031.4
2016.3
2004.69
1997.72
2002.28
2017.05
2082.12
2195.24
2278.41
2323.43
2356.58
2381.5
2413.9
2445.29
2477.64
2511.62
2540.87
2564.69
2581.58
2590
2589.73
2579.88
2558.5
2528.91
2496.3
2464.61
2437.13
2473.47
2531.14
2605.36
2646.73
2625.88
2598.5
2512.23
2450.98
2396.26
2321.99
2276.86
2224.97
2150.78
2069.96
1986.17
1896.77
1805.45
1715.8
1629.2
1542.76
1455.26
1366.16
1271.18
1171.32
1076.65
987.735
895.65
802.588
710.355
618.074
527.347
435.631
342.225
248.164
154.428
52.6546
2236.06
2242.15
2243.65
2242.06
2243.71
2243.38
2241.75
2239.88
2238.42
2237.55
2237.86
2240.35
2245.49
2252.92
2262.14
2272.66
2282.14
2289.39
2296.52
2302.17
2299.08
2296.86
2298.83
2302.08
2306.92
2311.48
2309.36
2296.56
2275.69
2248.71
2217.83
2185.65
2154.07
2123.94
2095.49
2069.12
2045.58
2025.73
2010.03
1997.8
1989.92
1990.94
2010.9
2074.8
2189.1
2272.22
2319.92
2351.51
2377.32
2410.33
2443.57
2477.21
2512.82
2543.85
2569.42
2587.88
2597.79
2598.82
2589.92
2569.08
2539.96
2507.32
2475.21
2449.45
2490.45
2554.93
2632.75
2670.4
2639.69
2606.1
2517.58
2450.91
2401.61
2331.57
2291.98
2245.22
2172.97
2094.54
2011.8
1922.33
1830.71
1739.85
1651.4
1563.67
1475.13
1384.73
1289.1
1189.07
1092.69
1000.75
906.892
813.058
720.403
627.703
535.447
442.059
347.405
252.041
156.892
53.3398
2236
2242.17
2243.64
2242.02
2243.86
2243.5
2241.8
2239.86
2238.28
2237.21
2237.3
2239.73
2244.93
2252.51
2262.12
2272.92
2282.56
2289.59
2297.19
2302.6
2299.29
2297.02
2299.02
2302.44
2307.62
2312.41
2310.7
2297.48
2276.08
2248.46
2216.92
2184.16
2152.09
2121.39
2092.23
2065.07
2040.82
2020.37
2004.05
1991.3
1982.76
1981.26
2007.63
2069.45
2182.17
2266.46
2316.44
2345.85
2373.12
2406.34
2441.45
2476.62
2514.02
2547.07
2574.66
2594.91
2606.34
2608.72
2600.96
2581.08
2553.16
2521.87
2489.51
2473.43
2513.97
2583.4
2664.82
2700.78
2669.48
2618.14
2531.08
2456.41
2409.37
2347.3
2311.28
2266.17
2196.26
2121.29
2039.68
1950.32
1858.51
1766.34
1675.42
1585.76
1495.59
1403.77
1307.62
1207.51
1109.43
1014.46
918.591
823.716
730.383
636.941
543.25
448.391
352.558
255.956
159.425
54.0369
2235.95
2242.19
2243.64
2242
2244.02
2243.62
2241.86
2239.82
2238.13
2236.85
2236.69
2239.08
2244.33
2252.09
2262.12
2273.18
2283.01
2289.75
2297.85
2302.99
2299.57
2297.24
2299.22
2302.83
2308.37
2313.24
2312.01
2298.35
2276.45
2248.21
2216.05
2182.79
2150.29
2119.05
2089.18
2061.25
2036.29
2015.2
1998.25
1985.13
1976.05
1973.98
2007.02
2066.68
2174.64
2260.76
2311.27
2339.18
2368.29
2401.93
2438.93
2475.86
2515.21
2550.49
2580.37
2602.75
2616.1
2620.2
2613.91
2595.59
2570.09
2541.56
2505.1
2503.32
2545.15
2618.11
2701.41
2734.48
2706.73
2639.92
2550.99
2468.15
2423.85
2373.27
2339.11
2293.54
2224.24
2151.39
2070.02
1980.88
1889.12
1795.67
1701.88
1610
1517.88
1424.5
1327.49
1226.84
1127.02
1029.24
931.353
835.157
740.719
646.148
551.006
454.736
357.713
259.884
161.985
54.7466
2235.91
2242.21
2243.63
2241.99
2244.18
2243.73
2241.9
2239.78
2237.97
2236.47
2236.05
2238.4
2243.68
2251.65
2262.15
2273.45
2283.46
2289.9
2298.44
2303.32
2299.88
2297.52
2299.43
2303.27
2309.2
2313.99
2313.24
2299.18
2276.8
2247.96
2215.25
2181.6
2148.73
2116.97
2086.34
2057.52
2031.74
2009.97
1992.42
1978.93
1969.28
1966.78
2005.1
2063.82
2166.76
2254.5
2304.2
2331.79
2362.75
2397.1
2435.97
2474.87
2516.34
2554.12
2586.56
2611.4
2627.03
2633.28
2629.03
2613
2590.83
2565.86
2522.31
2536.25
2582.07
2658.55
2740.94
2768.91
2745.61
2670.42
2578.46
2488.51
2441.18
2396.62
2363.19
2320.86
2254.69
2184.09
2103.08
2014.39
1922.77
1827.75
1730.93
1636.87
1542.82
1447.83
1349.54
1247.83
1146.06
1045.55
945.531
847.651
751.627
655.57
558.886
461.18
362.913
263.838
164.584
55.48
2235.87
2242.23
2243.62
2241.98
2244.34
2243.84
2241.95
2239.74
2237.81
2236.06
2235.36
2237.68
2242.99
2251.18
2262.2
2273.72
2283.92
2290.03
2298.91
2303.47
2300.16
2297.85
2299.62
2303.76
2310.11
2314.73
2314.37
2299.96
2277.13
2247.75
2214.59
2180.65
2147.45
2115.01
2083.45
2053.64
2026.97
2004.46
1986.25
1972.3
1962.53
1959.26
2000.86
2059.87
2158.8
2247.42
2295.58
2323.55
2356.46
2391.82
2432.55
2473.65
2517.42
2557.92
2593.22
2620.86
2639.17
2648
2646.26
2633.23
2614.97
2593.35
2547.26
2572.66
2622.78
2702.84
2782.44
2804.98
2784.93
2706.36
2612.8
2517.91
2464.92
2424.86
2389.45
2349.68
2287.17
2219.31
2139.37
2051.16
1959.3
1862.11
1762.56
1666.33
1570.34
1473.52
1373.57
1270.33
1166.42
1063.29
961.069
861.198
763.202
665.375
567.02
467.801
368.206
267.836
167.215
56.2346
2235.83
2242.25
2243.6
2241.99
2244.51
2243.95
2241.98
2239.69
2237.64
2235.63
2234.64
2236.92
2242.27
2250.71
2262.28
2273.99
2284.38
2290.14
2299.17
2303.43
2300.42
2298.25
2299.8
2304.33
2311.13
2315.49
2315.41
2300.7
2277.45
2247.61
2214.13
2179.98
2146.3
2112.98
2080.36
2049.53
2021.93
1998.63
1979.76
1965.35
1955.94
1952.84
1994.92
2055.04
2150.82
2239.21
2285.56
2314.43
2349.42
2386.06
2428.69
2472.17
2518.42
2561.88
2600.32
2631.11
2652.49
2664.32
2665.56
2656.3
2642.24
2621.93
2581.94
2614.25
2667.66
2750.13
2826.03
2843.55
2824.53
2746.15
2653.55
2556.51
2497.02
2461.78
2423.53
2384.83
2324.84
2258.6
2179.44
2091.3
1998.45
1898.65
1796.67
1698.05
1599.86
1500.88
1398.94
1293.9
1187.84
1082.25
977.807
875.726
775.503
675.684
575.508
474.666
373.637
271.891
169.832
56.9892
2235.79
2242.27
2243.58
2242
2244.68
2244.05
2242.02
2239.65
2237.48
2235.18
2233.87
2236.13
2241.52
2250.25
2262.38
2274.27
2284.82
2290.26
2299.25
2303.28
2300.77
2298.73
2299.96
2305
2312.26
2316.24
2316.38
2301.41
2277.79
2247.57
2213.89
2179.48
2145.12
2110.82
2077.11
2045.2
2016.66
1992.58
1973.04
1958.09
1949.01
1948.19
1988.43
2049.37
2142.43
2229.52
2274.3
2304.45
2341.61
2379.79
2424.4
2470.43
2519.35
2565.98
2607.83
2642.12
2666.98
2682.2
2686.85
2682.12
2672.53
2649.91
2623.13
2661.14
2717.44
2800.55
2872.04
2884.66
2864.68
2789.67
2699.93
2603.53
2537.76
2505.93
2464.88
2426.24
2367.97
2302.28
2223.5
2134.89
2040.17
1937.54
1833.13
1731.8
1631.08
1529.6
1425.44
1318.43
1210.23
1102.32
995.624
891.187
788.574
686.579
584.427
481.826
379.243
276.009
172.383
57.7204
2235.74
2242.29
2243.55
2242.02
2244.84
2244.15
2242.06
2239.61
2237.31
2234.69
2233.07
2235.29
2240.76
2249.81
2262.5
2274.55
2285.26
2290.42
2299.24
2303.12
2301.29
2299.28
2300.14
2305.78
2313.5
2316.91
2317.3
2302.08
2278.16
2247.68
2213.83
2179.03
2143.89
2108.56
2073.71
2040.69
2011.21
1986.34
1966.12
1950.61
1941.34
1945.18
1982.05
2042.72
2133.11
2218.11
2262.1
2293.66
2333.04
2372.99
2419.67
2468.41
2520.18
2570.19
2615.74
2653.85
2682.56
2701.57
2710
2710.44
2705.31
2677.47
2668.65
2711.5
2771.2
2853.85
2920.47
2928.24
2905.95
2836.4
2750.97
2657.27
2586.58
2556.64
2513.16
2473.65
2416.38
2350.55
2271.75
2181.96
2084.55
1978.9
1871.78
1767.48
1663.91
1559.69
1453.12
1343.99
1233.65
1123.45
1014.46
907.56
802.44
698.112
593.829
489.326
385.057
280.206
174.866
58.4209
2235.7
2242.31
2243.52
2242.04
2245.01
2244.25
2242.09
2239.58
2237.15
2234.18
2232.22
2234.4
2239.97
2249.41
2262.65
2274.84
2285.68
2290.63
2299.16
2303.12
2301.96
2299.86
2300.36
2306.71
2314.82
2317.43
2318.12
2302.74
2278.59
2247.91
2213.87
2178.59
2142.62
2106.2
2070.18
2036.05
2005.59
1979.9
1959.02
1943.01
1932.81
1942.68
1976.04
2035.38
2122.75
2204.95
2249.28
2282.19
2323.74
2365.66
2414.54
2466.1
2520.91
2574.5
2623.99
2666.24
2699.17
2722.33
2734.9
2740.75
2739.51
2707.83
2717.3
2763.83
2827.52
2909.35
2971.1
2974.4
2949.27
2885.92
2805.81
2715.6
2642.39
2613.18
2567.94
2527.05
2470.17
2403.62
2324.13
2232.33
2131.55
2022.62
1912.5
1805.03
1698.38
1591.24
1482.09
1370.71
1258.16
1145.66
1034.29
924.839
817.112
710.314
603.756
497.208