/*--------------------------------*- C++ -*----------------------------------*\
| =========                 |                                                 |
| \\      /  F ield         | OpenFOAM: The Open Source CFD Toolbox           |
|  \\    /   O peration     | Version:  4.1                                   |
|   \\  /    A nd           | Web:      www.OpenFOAM.org                      |
|    \\/     M anipulation  |                                                 |
\*---------------------------------------------------------------------------*/
FoamFile
{
    version     2.0;
    format      ascii;
    class       surfaceScalarField;
    location    "1600";
    object      phi;
}
// * * * * * * * * * * * * * * * * * * * * * * * * * * * * * * * * * * * * * //

dimensions      [0 3 -1 0 0 0 0];

internalField   nonuniform List<scalar> 
52920
(
1840.04
-119.829
2019.35
-179.314
2240.84
-221.504
2482.12
-241.292
2732.95
-250.847
2984.02
-251.083
3223.45
-239.448
3439.59
-216.149
3623.87
-184.291
3771.81
-147.95
3883.24
-111.439
3960.24
-77.0204
4005.24
-45.0051
4022.61
-17.3861
4017.27
5.33434
3993.97
23.2816
3961.53
32.437
3935.39
26.1222
3933.96
1.42039
3964.5
-30.5514
4015.07
-50.5817
4069.63
-54.5777
4123.79
-54.1729
4184.7
-60.922
4263.72
-79.0217
4370.26
-106.55
4509.87
-139.621
4684.39
-174.531
4893.41
-209.032
5135.66
-242.258
5409.09
-273.442
5710.35
-301.267
6034.63
-324.293
6376.17
-341.545
6728.83
-352.666
7086.49
-357.667
7443.01
-356.531
7791.96
-348.956
8126.25
-334.301
8438.33
-312.089
8720.92
-282.6
8968.83
-247.918
9181.64
-212.811
9365.23
-183.601
9531.66
-166.439
9698
-166.345
9883.84
-185.852
10107.5
-223.639
10383
-275.573
10718.9
-335.819
11117.1
-398.249
11572.8
-455.71
12074.3
-501.521
12606.8
-532.464
13155.4
-548.6
13706.6
-551.221
14248
-541.397
14767.5
-519.51
15253
-485.453
15692.1
-439.104
16073
-380.976
16385.9
-312.871
16624.2
-238.335
16787.1
-162.852
16880.3
-93.2066
16911.8
-31.4732
16895.7
16.045
16852.6
43.1894
16800.3
52.2169
16748.5
51.8769
16697.5
50.9122
16641.6
55.9368
16570.4
71.238
16472.5
97.8822
16338.8
133.68
16164.8
173.986
15951.6
213.244
15705
246.57
15434.5
270.466
15151.6
282.966
14867.9
283.695
14594.1
273.757
14338.9
255.258
14108.4
230.512
13907.2
201.198
13739
168.155
13607
131.986
13513.9
93.1403
13460.9
53.015
13447.6
13.2466
13469.3
-21.6377
13513.5
-44.243
13568.9
-55.3981
13628.9
-59.9919
13672.7
-43.8322
13682.1
-9.39335
13672.8
9.31214
13684.3
-11.4532
13725.7
-41.4899
-50.5582
1868.55
-252.559
2060.26
-371.036
2289.84
-451.093
2535.05
-486.514
2786.18
-501.996
3034.47
-499.377
3269.22
-474.218
3480.45
-427.389
3661.01
-364.86
3807.1
-294.047
3918.66
-223.012
3997.83
-156.205
4046.31
-93.5022
4066.56
-37.6467
4062.07
9.8078
4038.17
47.1729
4004.55
66.0434
3975.37
55.2944
3966.9
9.8805
3986.51
-50.1783
4024.16
-88.2473
4065.14
-95.5626
4105.33
-94.3766
4151.71
-107.317
4215.55
-142.874
4306.47
-197.478
4430.27
-263.431
4588.73
-333.001
4780.83
-401.14
5004.19
-465.63
5255.48
-524.74
5530.25
-576.048
5823.22
-617.267
6128.86
-647.2
6441.95
-665.767
6757.61
-673.334
7071
-669.924
7376.86
-654.83
7669.17
-626.617
7941.32
-584.248
8187
-528.286
8402.05
-462.98
8587.29
-398.057
8749.93
-346.246
8903.09
-319.613
9064.37
-327.632
9253.13
-374.618
9486.65
-457.163
9777.69
-566.619
10133.2
-691.385
10554.5
-819.479
11035.3
-936.561
11562.9
-1029.1
12121.2
-1090.77
12694.6
-1121.99
13269.1
-1125.7
13832
-1104.37
14371.5
-1058.97
14875.4
-989.403
15331.8
-895.418
15728.7
-777.965
16056.4
-640.576
16308.3
-490.191
16483.3
-337.798
16585.8
-195.798
16622.5
-68.1709
16609.1
29.4826
16567.3
85.0267
16515.3
104.18
16462.4
104.816
16408.9
104.344
16348.9
115.989
16271.9
148.179
16167
202.782
16025.5
275.175
15843.6
355.889
15623.1
433.763
15370.5
499.171
15095.6
545.369
14809.9
568.711
14524.8
568.746
14250.6
547.947
13995.2
510.74
13763.8
461.891
13560.2
404.805
13387.2
341.091
13247.1
272.151
13141.2
199.011
13070
124.236
13033.1
50.1722
13026.7
-15.244
13037.3
-54.9211
13050.9
-68.9211
13061.6
-70.7657
13051
-33.2464
12995.4
46.2818
12913.2
91.5127
12856.3
45.4664
12864
-49.2821
-94.8946
1882.18
-391.505
2073.33
-562.197
2294.52
-672.287
2526.92
-718.926
2763.52
-738.621
2997.49
-733.353
3219.86
-696.596
3422.02
-629.561
3597.63
-540.485
3742.99
-439.409
3857.62
-337.657
3943.23
-241.83
4000.55
-150.831
4030
-67.1082
4032.87
6.91934
4013.32
66.7127
3981.02
98.3372
3949.48
86.821
3934.22
25.1339
3943.37
-59.3393
3968.49
-113.387
3995.92
-123.001
4021.67
-120.141
4052.31
-137.968
4098.72
-189.29
4170.43
-269.205
4273.49
-366.498
4409.89
-469.408
4578.7
-569.962
4777.76
-664.697
5004.37
-751.362
5255.29
-826.982
5526.66
-888.64
5813.97
-934.525
6112.15
-963.954
6415.47
-976.656
6717.48
-971.947
7011.06
-948.412
7288.4
-903.971
7541.68
-837.537
7764.06
-750.668
7951.69
-650.622
8106.78
-553.15
8238.94
-478.413
8364.32
-445.004
8503.56
-466.884
8678.46
-549.526
8907.46
-686.17
9203.11
-862.27
9570.99
-1059.27
10010.1
-1258.63
10511.8
-1438.24
11060.5
-1577.77
11638.4
-1668.75
12229.5
-1713.09
12820
-1716.19
13397.9
-1682.22
13951.6
-1612.68
14469.3
-1507.14
14938.8
-1364.87
15347.8
-1186.96
15685.8
-978.614
15945.7
-750.045
16126.1
-518.223
16230.3
-299.961
16262.9
-100.837
16242.1
50.2767
16192
135.199
16131.5
164.611
16070.1
166.211
16008.2
166.241
15939.5
184.747
15853.4
234.238
15739.1
317.134
15588.1
426.176
15397.1
546.869
15168.5
662.355
14909.3
758.37
14629.6
825.125
14340.7
857.518
14054.2
855.271
13779.7
822.485
13524.3
766.142
13292.6
693.593
13087.4
609.934
12911.3
517.267
12765.9
417.541
12651.9
312.95
12569.3
206.881
12517.7
101.798
12496.4
5.99499
12495.5
-54.0201
12495.2
-68.5724
12478.8
-54.356
12425.3
20.1875
12315.7
155.926
12144.6
262.656
11963.7
226.321
11881.9
32.4862
-101.413
1867.81
-523.197
2043.59
-737.984
2246.04
-874.751
2460.84
-933.734
2682.08
-959.879
2902.52
-953.805
3113.11
-907.189
3305.77
-822.235
3474.97
-709.699
3617.6
-582.051
3733.48
-453.551
3824.69
-333.049
3891.92
-218.071
3933.99
-109.199
3949.22
-8.32248
3938.97
76.9538
3911.94
125.355
3881.29
117.46
3862.15
44.2592
3863.65
-60.8557
3878.86
-128.605
3895.07
-139.23
3908.48
-133.557
3925.36
-154.868
3956.65
-220.585
4012.45
-325.019
4099.79
-453.853
4221.57
-591.193
4377.54
-725.94
4566.45
-853.619
4786.95
-971.873
5036.9
-1076.94
5312.35
-1164.1
5607.2
-1229.38
5913.7
-1270.47
6223.36
-1286.32
6527.56
-1276.16
6817.91
-1238.77
7086.17
-1172.24
7324.65
-1076.03
7526.95
-952.976
7689.84
-813.523
7816.65
-679.965
7918.85
-580.62
8015.06
-541.221
8128.61
-580.448
8283.66
-704.581
8499.83
-902.347
8789.46
-1151.91
9156.84
-1426.66
9599.5
-1701.3
10107.1
-1945.85
10662.9
-2133.58
11248.9
-2254.74
11849.2
-2313.38
12450.4
-2317.37
13040.3
-2272.19
13607
-2179.32
14137.4
-2037.6
14618.3
-1845.7
15036.3
-1604.95
15380.2
-1322.55
15642.3
-1012.12
15821.5
-697.429
15919.5
-397.961
15939.6
-120.927
15902.9
86.9794
15836.5
201.533
15761.2
239.927
15686.6
240.788
15613
239.835
15533.4
264.432
15436.4
331.172
15310.9
442.704
15148.2
588.818
14945.5
749.591
14705.7
902.166
14436.4
1027.61
14148.4
1113.21
13853.3
1152.59
13562.7
1145.89
13286
1099.2
13029.7
1022.37
12797.8
925.567
12592.2
815.51
12414.9
694.503
12267.9
564.615
12151.5
429.326
12064.7
293.647
12005.4
161.116
11975.8
35.6347
11971.2
-49.4502
11972.4
-69.7969
11949.5
-31.3809
11873
96.6225
11740.1
288.804
11538.4
464.385
11230.5
534.197
10964.5
298.509
0.744507
1822.91
-636.763
1981.55
-896.626
2172.28
-1065.49
2379.66
-1141.12
2594.26
-1174.5
2806.4
-1165.95
3006.83
-1107.63
3188.73
-1004.14
3348.02
-869.006
3482.74
-716.773
3593.39
-564.224
3682.94
-422.611
3753.22
-288.358
3803.14
-159.136
3828.94
-34.1335
3828.34
77.5454
3807.64
146.042
3779.46
145.635
3759.1
64.6005
3756.92
-58.6885
3766.93
-138.623
3776.97
-149.29
3783.38
-139.972
3792.46
-163.963
3815.59
-243.723
3863.74
-373.184
3944.91
-535.035
4062.6
-708.889
4217.08
-880.429
4408.01
-1044.56
4634.7
-1198.58
4894.28
-1336.53
5180.42
-1450.25
5484.02
-1532.99
5795.01
-1581.46
6103.82
-1595.15
6402.03
-1574.38
6682.12
-1518.86
6936.94
-1427.07
7159.65
-1298.75
7344.25
-1137.59
7487.46
-956.737
7592.74
-785.255
7672.36
-660.245
7746.34
-615.202
7839.71
-673.827
7978.18
-843.061
8182.17
-1106.34
8464.14
-1433.89
8828.47
-1790.99
9273.22
-2146.06
9787.95
-2460.59
10354.7
-2700.39
10954.1
-2854.14
11568.8
-2928.04
12183.9
-2932.49
12786.2
-2874.42
13362.4
-2755.59
13899.3
-2574.49
14383.3
-2329.65
14801.2
-2022.84
15142.1
-1663.51
15398.4
-1268.41
15569.7
-868.704
15655.5
-483.739
15657.8
-123.254
15601.4
143.367
15516.6
286.314
15425.8
330.798
15338.9
327.64
15255.7
323.017
15167.8
352.398
15062.4
436.515
14927.3
577.803
14753.5
762.627
14538.1
964.971
14284.9
1155.39
14002.4
1310.08
13702.3
1413.35
13397.2
1457.69
13099.1
1443.96
12817.7
1380.65
12559
1281.03
12326.1
1158.44
12120.5
1021.18
11943.6
871.322
11797.4
710.874
11682.5
544.173
11597.8
378.397
11539.3
219.573
11510.3
64.6585
11509.3
-48.3997
11519.8
-80.3404
11502.4
-13.9798
11419.3
179.723
11277.8
430.263
11111.4
630.806
10849.8
795.807
10460.6
687.727
279.463
1761.33
-740.783
1917.8
-1053.1
2109.44
-1257.15
2316.18
-1347.87
2525.84
-1384.18
2728.68
-1368.79
2917.27
-1296.23
3086.8
-1173.69
3234.62
-1016.83
3359.5
-841.671
3462.31
-667.048
3546.34
-506.653
3614.24
-356.268
3665.37
-210.285
3695.29
-64.0609
3699.52
73.2967
3682.55
163.006
3656.73
171.438
3637.62
83.6913
3636.15
-57.2241
3645.93
-148.419
3654.61
-157.983
3658.65
-144.036
3664.66
-169.98
3684.63
-263.713
3730.45
-419.015
3810.92
-615.516
3929.97
-827.946
4088.22
-1038.69
4285.46
-1241.81
4520.09
-1433.21
4787.18
-1603.64
5078.28
-1741.35
5382.93
-1837.64
5690.77
-1889.3
5992.83
-1897.21
6281.69
-1863.24
6550.96
-1788.14
6794.38
-1670.49
7005.44
-1509.82
7177.93
-1310.08
7307.72
-1086.54
7397.81
-875.348
7460.76
-723.202
7517.68
-672.136
7595.12
-751.272
7720.32
-968.275
7914.99
-1301.02
8192.88
-1711.79
8559.68
-2157.79
9014.31
-2600.68
9544.44
-2990.72
10128.2
-3284.14
10742.4
-3468.32
11367.4
-3553.04
11987.7
-3552.78
12590.3
-3477.1
13163.4
-3328.67
13694.8
-3105.87
14172
-2806.86
14582.5
-2433.39
14915.8
-1996.79
15163.6
-1516.23
15325.9
-1030.92
15398.6
-556.44
15382.8
-107.51
15307.6
218.627
15206.2
387.627
15102.8
434.226
15007.7
422.798
14919.5
411.159
14828.1
443.835
14718.9
545.744
14578.1
718.568
14396
944.723
14169.7
1191.28
13903.6
1421.45
13607.5
1606.21
13294.1
1726.73
12977.5
1774.33
12670.5
1750.92
12383.3
1667.87
12121.8
1542.55
11888.2
1392.04
11683.2
1226.17
11508.4
1046.1
11365.5
853.74
11255.4
654.325
11177
456.776
11126.3
270.264
11108.5
82.4796
11123.3
-63.1686
11149.1
-106.168
11137.2
-2.0765
11046.8
270.085
10890.6
586.465
10723.2
798.229
10566.4
952.581
10271.3
982.89
612.695
1713.87
-843.565
1872.29
-1211.52
2064.47
-1449.34
2267.11
-1550.51
2467.73
-1584.81
2658.26
-1559.34
2833.43
-1471.41
2989.99
-1330.25
3126.16
-1153.02
3241.21
-956.735
3336.25
-762.097
3414.96
-585.374
3480.79
-422.108
3532.97
-262.486
3565.76
-96.8536
3572.88
66.1635
3558.04
177.829
3534.19
195.275
3516.87
101.007
3517.03
-57.4058
3527.6
-158.995
3535.93
-166.331
3538.84
-146.953
3543.26
-174.421
3561.96
-282.425
3607.51
-464.571
3689.23
-697.245
3811.19
-949.918
3973.72
-1201.23
4175.73
-1443.83
4414.55
-1672.04
4684.5
-1873.6
4976.51
-2033.37
5279.49
-2140.64
5582.71
-2192.52
5877.43
-2191.95
6157.16
-2142.97
6416.61
-2047.6
6650.36
-1904.25
6852.19
-1711.65
7015.36
-1473.26
7134.54
-1205.73
7211.94
-952.752
7260.32
-771.596
7302.02
-713.838
7365.28
-814.544
7479.44
-1082.45
7668.26
-1489.84
7947.2
-1990.74
8322.35
-2532.94
8791.02
-3069.36
9336.28
-3535.99
9931.13
-3879
10549.9
-4087.1
11173.3
-4176.43
11787.7
-4167.15
12382.5
-4071.94
12947.8
-3893.99
13472.7
-3630.77
13945.1
-3279.23
14352
-2840.28
14682
-2326.82
14925.6
-1759.79
15082.4
-1187.74
15143.9
-617.92
15110.7
-74.3632
15017.1
312.233
14900.1
504.644
14785.6
548.703
14684.4
524.046
14593.9
501.609
14501.7
536.03
14391.1
656.363
14246.8
862.849
14058.2
1133.4
13822.2
1427.23
13544.2
1699.48
13234.9
1915.5
12908.5
2053.11
12580.5
2102.36
12265
2066.45
11972.6
1960.21
11709.3
1805.86
11476.4
1624.98
11273.7
1428.88
11103
1216.76
10966.4
990.345
10864.2
756.502
10795.5
525.533
10755.4
310.315
10757.4
80.5032
10803.7
-109.47
10855.7
-158.195
10846.2
7.4348
10740.1
376.172
10562.9
763.691
10369.5
991.605
10208.4
1113.73
10013.1
1178.17
887.444
1672.09
-948.95
1833.97
-1373.4
2025.74
-1641.11
2222.43
-1747.22
2412.83
-1775.23
2590.88
-1737.39
2752.94
-1633.48
2896.76
-1474.08
3021.06
-1277.33
3125.41
-1061.1
3211.22
-847.923
3282.8
-656.972
3345.04
-484.363
3397.9
-315.355
3434.35
-133.32
3445.52
54.9777
3433.39
189.944
3411.28
217.371
3395.24
117.04
3396.99
-59.1733
3408.83
-170.858
3417.71
-175.22
3420.61
-149.874
3424.71
-178.533
3443.19
-300.922
3488.87
-510.26
3571.4
-779.783
3694.9
-1073.43
3859.22
-1365.56
4063.05
-1647.66
4304.22
-1913.21
4576.89
-2146.28
4870.1
-2326.59
5170.43
-2440.98
5466.31
-2488.41
5750.05
-2475.7
6017.15
-2410.08
6264.24
-2294.69
6486.97
-2127
6679.21
-1903.9
6833.4
-1627.46
6942.46
-1314.8
7007.58
-1017.87
7041.82
-805.853
7069.23
-741.25
7120.35
-865.679
7227
-1189.1
7414.7
-1677.55
7699.02
-2275.07
8083.77
-2917.7
8563.21
-3548.81
9116.3
-4089.07
9713.45
-4476.17
10329.5
-4703.19
10947.5
-4794.39
11556.2
-4775.88
12147.1
-4662.76
12710.8
-4457.78
13236.6
-4156.57
13711.7
-3754.27
14121.8
-3250.43
14454.5
-2659.52
14698.4
-2003.67
14853.3
-1342.63
14904.5
-669.132
14853.1
-23.0111
14739.8
425.606
14605.6
638.827
14479.1
675.202
14371.4
631.711
14278.8
594.262
14185.9
628.862
14073.8
768.527
13925.5
1011.12
13729.5
1329.38
13483.1
1673.62
13192.5
1990.1
12869.7
2238.36
12530.2
2392.55
12191.1
2441.43
11867.9
2389.74
11571.7
2256.33
11308.4
2069.15
11078.2
1855.24
10879.8
1627.28
10715.5
1381.02
10588
1117.89
10497
847.516
10440.4
582.072
10411.8
338.946
10441.3
51.0406
10533.6
-201.769
10620.6
-245.199
10610
18.0077
10479
507.118
10276.4
966.299
10056.2
1211.86
9874.61
1295.3
9682.02
1370.75
1154.83
1636.52
-1059.99
1802.1
-1538.99
1991.95
-1830.97
2181.22
-1936.49
2360.93
-1954.96
2527.02
-1903.48
2677.08
-1783.56
2809.41
-1606.41
2922.82
-1390.75
3016.83
-1155.12
3092.84
-923.949
3155.58
-719.719
3211.55
-540.345
3262.31
-366.128
3300.42
-171.449
3314.71
40.6824
3304.97
199.672
3284.25
238.075
3269.34
131.934
3273.32
-63.1608
3287.73
-185.289
3298.57
-186.076
3302.78
-154.09
3307.33
-183.106
3325.46
-319.06
3369.98
-554.794
3451.25
-861.059
3573.86
-1196.05
3738.07
-1529.78
3943.94
-1853.54
4189.67
-2158.95
4466.35
-2422.97
4758.44
-2618.68
5050.39
-2732.94
5332.14
-2770.16
5599.4
-2742.97
5850.81
-2661.5
6084.88
-2528.76
6297.73
-2339.86
6482.54
-2088.71
6630.23
-1775.15
6731.26
-1415.84
6785.49
-1072.12
6806.46
-826.837
6820.6
-755.396
6861.29
-906.376
6962.47
-1290.29
7150.16
-1865.24
7438.04
-2562.96
7827.07
-3306.73
8310.29
-4032.04
8865.31
-4644.09
9461.97
-5072.83
10076.2
-5317.43
10692.5
-5410.66
11300.9
-5384.31
11893.5
-5255.31
12461
-5025.29
12992.1
-4687.68
13473.4
-4235.56
13889.7
-3666.75
14227.5
-2997.32
14473.7
-2249.86
14628.6
-1497.56
14669.7
-710.227
14599.1
47.6233
14464.4
560.256
14311.7
791.541
14172.3
814.66
14057.8
746.22
13962.9
689.158
13869.4
722.355
13755.4
882.546
13602.4
1164.03
13398.1
1533.67
13140.2
1931.56
12836
2294.31
12498.9
2575.47
12146.2
2745.29
11796.4
2791.17
11466.4
2719.78
11168.1
2554.57
10907
2330.24
10681.8
2080.49
10489.8
1819.27
10334.2
1536.59
10218.4
1233.74
10141.5
924.42
10098.5
625.051
10082.5
354.897
10151.2
-17.6423
10302.6
-353.186
10425
-367.514
10405.4
37.5655
10241
671.496
10006.1
1201.22
9763.62
1454.33
9569.87
1489.06
9394.65
1545.97
1394.32
1605.79
-1177.78
1774.18
-1707.38
1959.82
-2016.62
2139.68
-2116.36
2307.89
-2123.18
2462.34
-2057.94
2601.55
-1922.79
2723.99
-1728.86
2828.37
-1495.14
2913.94
-1240.71
2981.77
-991.797
3036.51
-774.473
3085.48
-589.33
3131.46
-412.116
3167.42
-207.425
3181.43
26.6533
3172.02
209.071
3151.77
258.309
3138.2
145.484
3145.87
-70.8457
3164.78
-204.217
3179.07
-200.384
3185.37
-160.401
3190.21
-187.971
3206.78
-335.641
3248.31
-596.339
3326.48
-939.241
3447.13
-1316.71
3612.26
-1694.92
3823.18
-2064.47
4075.01
-2410.79
4352.44
-2700.41
4636.16
-2902.42
4912.35
-3009.14
5175.65
-3033.47
5426.1
-2993.43
5664.66
-2900.07
5890.3
-2754.42
6098.46
-2548.02
6280.73
-2270.99
6426.03
-1920.46
6521.71
-1511.52
6566.02
-1116.44
6573.03
-833.85
6572.21
-754.585
6600.05
-934.229
6692.06
-1382.31
6874.05
-2047.23
7157.98
-2846.9
7543.68
-3692.42
8025.67
-4514.04
8580.99
-5199.41
9178.12
-5669.96
9792.69
-5932
10409.4
-6027.36
11018.8
-5993.71
11613.2
-5849.76
12183.7
-5595.76
12718.9
-5222.86
13205.2
-4721.83
13626.7
-4088.3
13969.2
-3339.79
14217.8
-2498.44
14373.9
-1653.68
14405.2
-741.533
14315
137.783
14158.6
716.687
13987.5
962.614
13836
966.18
13716.1
866.07
13621
784.269
13529
814.357
13415.1
996.531
13259
1320.08
13047.4
1745.29
12778.5
2200.5
12460.9
2611.85
12109.7
2926.65
11744.2
3110.87
11384.7
3150.65
11049.4
3055.08
10751.2
2852.79
10495
2586.44
10277.4
2298.04
10094
2002.64
9949.5
1681.13
9848.03
1335.21
9788.6
983.85
9757.62
656.035
9759.42
353.098
9889.32
-147.547
10110.6
-574.448
10256.2
-513.087
10211.1
82.616
10006.4
876.185
9733.63
1474.01
9467.78
1720.18
9274.73
1682.11
9136.64
1684.07
1595.33
1578.61
-1307.8
1747.84
-1876.61
1925.63
-2194.42
2094
-2284.74
2250.43
-2279.62
2394
-2201.52
2523.45
-2052.25
2637.14
-1842.55
2733.64
-1591.65
2812.09
-1319.17
2873.42
-1053.14
2922.34
-823.409
2966.5
-633.498
3008.43
-454.063
3040.54
-239.547
3051.13
16.0485
3039.47
220.719
3018.63
279.144
3006.78
157.311
3019.46
-83.5382
3043.9
-228.67
3061.76
-218.266
3069.54
-168.19
3073.41
-191.859
3087.04
-349.28
3124.57
-633.89
3199.29
-1013.96
3318.96
-1436.39
3487.69
-1863.65
3705.16
-2281.95
3959.75
-2665.38
4230.56
-2971.24
4499.27
-3171.13
4757.44
-3267.32
5004.84
-3280.87
5244.01
-3232.6
5476.11
-3132.18
5699.2
-2977.51
5907.33
-2756.16
6090.39
-2454.06
6235.23
-2065.31
6325.62
-1601.92
6358
-1148.83
6346.89
-822.746
6325.61
-733.318
6334.2
-942.823
6409.52
-1457.64
6577.76
-2215.48
6850.24
-3119.38
7227.07
-4069.25
7705.06
-4992.05
8259.44
-5753.78
8855.89
-6266.42
9469.03
-6545.14
10083.4
-6641.77
10690.3
-6600.54
11282.6
-6442.1
11852
-6165.18
12387.6
-5758.44
12875.7
-5209.97
13300
-4512.57
13645.3
-3685.08
13895.1
-2748.22
14052.6
-1811.21
14073.9
-762.805
13963.8
247.858
13785.4
895.075
13597
1150.99
13435.9
1127.28
13314.3
987.701
13223.4
875.154
13137.7
900.056
13028.5
1105.79
12873.8
1474.78
12658.9
1960.2
12382.2
2477.13
12053.8
2940.31
11690.2
3290.19
11313.3
3487.77
10945.8
3518.14
10607.5
3393.46
10312
3148.21
10064.1
2834.39
9857.49
2504.64
9685.18
2174.94
9554.42
1811.89
9470.57
1419.06
9433.8
1020.62
9409.8
680.036
9442.94
319.96
9670.4
-375.011
9964.62
-868.662
10104.4
-652.914
10011.5
175.516
9761.2
1126.53
9447.46
1787.75
9160.8
2006.84
8989.14
1853.77
8912.42
1760.79
1753.99
1556.53
-1441.49
1719.23
-2039.31
1886.14
-2361.34
2043.25
-2441.87
2189.52
-2425.9
2323.91
-2335.91
2444.84
-2173.19
2550.51
-1948.23
2639.45
-1680.6
2710.77
-1390.5
2765.45
-1107.84
2808.73
-866.695
2849.25
-674.036
2889.31
-494.144
2919.55
-269.805
2927.46
8.12381
2913.42
234.747
2891.7
300.851
2881.18
167.815
2898.27
-100.65
2927.33
-257.748
2947.66
-238.611
2955.79
-176.346
2957.72
-193.805
2968.19
-359.764
3002.14
-667.851
3074.25
-1086.09
3194.69
-1556.84
3368.16
-2037.13
3589.33
-2503.13
3839.92
-2915.98
4098.26
-3229.59
4351.04
-3423.92
4595.24
-3511.52
4833.11
-3518.75
5067.12
-3466.62
5297.31
-3362.38
5520.54
-3200.75
5729.83
-2965.45
5913.69
-2637.92
6057.15
-2208.78
6139.87
-1684.65
6156.13
-1165.1
6120.66
-787.284
6071.79
-684.457
6053.91
-924.957
6105.17
-1508.91
6252.85
-2363.17
6507.82
-3374.36
6870.5
-4431.93
7339.98
-5461.53
7888.84
-6302.64
8480
-6857.59
9087.2
-7152.34
9694.91
-7249.48
10295
-7200.63
10881.5
-7028.58
11446.6
-6730.25
11979.8
-6291.65
12467.5
-5697.67
12892.6
-4937.71
13239.2
-4031.63
13488.7
-2997.8
13647.2
-1969.72
13656.2
-771.777
13523.5
380.563
13321.1
1097.44
13115.1
1357.07
12946.2
1296.13
12826.4
1107.48
12744.9
956.704
12671.4
973.549
12573
1204.17
12426.3
1621.49
12215
2171.53
11937
2755.06
11602.8
3274.59
11230.5
3662.43
10845.1
3873.17
10472.2
3891.05
10133.5
3732.17
9844.26
3437.46
9608.68
3069.97
9417.03
2696.29
9258.7
2333.28
9145.25
1925.34
9083.29
1481.02
9077.07
1026.84
9051.47
705.642
9149.75
221.674
9525.08
-750.332
9868.46
-1212.05
9956.31
-740.756
9798.43
333.396
9497.71
1427.24
9137.56
2147.9
8838.57
2305.84
8725.1
1967.23
8737.63
1748.27
1877.34
1531.83
-1574.3
1685.26
-2192.75
1841.82
-2517.9
1989.66
-2589.72
2127.69
-2563.94
2254.35
-2462.58
2367.94
-2286.79
2466.63
-2046.93
2548.82
-1762.81
2613.4
-1455.09
2661.17
-1155.62
2697.75
-903.289
2733.26
-709.558
2770.73
-531.636
2799.94
-299.023
2807.03
1.01659
2792.04
249.731
2769.47
323.405
2759.08
178.189
2779.58
-121.172
2813.03
-291.214
2836.01
-261.603
2844.88
-185.23
2845.41
-194.354
2853.79
-368.159
2885.07
-699.143
2955.33
-1156.35
3076.97
-1678.5
3252.96
-2213.13
3472.07
-2722.24
3713.32
-3157.23
3958.59
-3474.87
4199.6
-3664.93
4435.7
-3747.62
4668.87
-3751.93
4900.42
-3698.18
5129.46
-3591.42
5352.31
-3423.61
5561.59
-3174.73
5744.73
-2821.07
5885.02
-2349.07
5957.19
-1756.83
5952.83
-1160.75
5886.35
-720.809
5802.72
-600.839
5751.81
-874.056
5772.23
-1529.34
5892.56
-2483.51
6122.55
-3604.35
6462.85
-4772.23
6915.99
-5914.67
7452.81
-6839.47
8034.12
-7438.91
8632.36
-7750.58
9231.04
-7848.16
9822.4
-7791.99
10401.3
-7607.47
10960.5
-7289.51
11490.5
-6821.57
11977.7
-6184.89
12404.7
-5364.67
12754
-4380.95
13004.8
-3248.59
13165.5
-2130.44
13159.1
-765.419
12998.6
541.078
12767
1329.05
12539.3
1584.83
12361.2
1474.21
12244
1224.65
12174.6
1026.09
12117.3
1030.88
12034.1
1287.33
11901.3
1754.33
11701.3
2371.52
11430.7
3025.65
11098.3
3607.02
10723.2
4037.51
10333.7
4262.68
9958.94
4265.79
9623.29
4067.82
9344.15
3716.6
9125.89
3288.23
8954.09
2868.09
8813.23
2474.14
8721.79
2016.77
8687.9
1514.91
8721.48
993.257
8680.59
746.533
8930.78
-28.5149
9506.76
-1326.31
9803.92
-1509.2
9784.56
-721.402
9566.48
551.484
9209.93
1783.79
8798.1
2559.73
8508.15
2595.78
8494.15
1981.23
8615.05
1627.37
1978.79
1504.11
-1702.08
1647.19
-2335.85
1794.62
-2665.34
1934.3
-2729.4
2064.63
-2694.29
2184.11
-2582.06
2291.26
-2393.96
2384.22
-2139.89
2461.11
-1839.71
2520.37
-1514.37
2562.33
-1197.59
2592.69
-933.673
2622.63
-739.512
2655.79
-564.808
2681.99
-325.244
2687.34
-4.35255
2671.29
265.771
2647.35
347.325
2636.34
189.179
2661.02
-145.868
2700.92
-331.138
2728.57
-289.273
2739.76
-196.44
2740.05
-194.662
2747.19
-375.315
2775.82
-727.787
2843.72
-1224.27
2964.78
-1799.56
3138.78
-2387.14
3350.94
-2934.41
3581.81
-3388.11
3817.32
-3710.39
4051.2
-3898.83
4282.42
-3978.84
4511.91
-3981.43
4740.37
-3926.65
4966.79
-3817.85
5187.56
-3644.38
5395.16
-3382.34
5575.92
-3001.83
5711.36
-2484.52
5770.27
-1815.74
5740.93
-1131.42
5636.43
-616.319
5510.7
-475.122
5420.33
-783.697
5402.35
-1511.37
5486.83
-2568
5681.65
-3799.18
5988.92
-5079.5
6417.7
-6343.46
6938.34
-7360.11
7508.59
-8009.17
8097.15
-8339.13
8685.05
-8436.06
9264.99
-8371.94
9833.3
-8175.78
10384.5
-7840.71
10910.8
-7347.91
11400
-6674.06
11834.1
-5798.77
12193.4
-4740.25
12453.2
-3508.37
12623.7
-2300.94
12603.4
-745.204
12411.9
732.667
12145.3
1595.64
11889.8
1840.35
11698
1665.93
11580.7
1341.94
11522.7
1084.09
11481.4
1072.24
11412.7
1356.01
11294.9
1872.16
11111.2
2555.23
10855.9
3280.88
10534
3928.97
10163.5
4407.99
9775.82
4650.37
9403.9
4637.71
9075.37
4396.35
8810.89
3981.08
8615.82
3483.31
8469.87
3014.04
8350.85
2593.16
8287.68
2079.94
8292.34
1510.26
8367.28
918.316
8298.81
814.999
8825.95
-555.65
9567.64
-2068
9676.44
-1618
9559.59
-604.557
9301.32
809.757
8880.39
2204.72
8430.52
3009.6
8192.18
2834.12
8313.61
1859.81
8543.75
1397.22
2073.5
1473.18
-1821.28
1606.29
-2468.96
1745.24
-2804.3
1876.6
-2860.76
1999.07
-2816.77
2111.64
-2694.64
2213.05
-2495.38
2301.19
-2228.04
2373.76
-1912.3
2428.78
-1569.39
2466.15
-1234.97
2491.84
-959.372
2517.58
-765.272
2546.27
-593.509
2567.37
-346.363
2568.47
-5.45915
2549.78
284.45
2523.59
373.496
2512.19
200.558
2543.69
-177.379
2593.63
-381.095
2628.56
-324.218
2643.57
-211.467
2643.94
-195.051
2649.29
-380.687
2673.96
-752.47
2737.8
-1288.11
2855.11
-1916.89
3023
-2555.05
3226.49
-3137.9
3448.91
-3610.55
3677.77
-3939.25
3906.18
-4127.24
4132.17
-4204.84
4356.44
-4205.7
4579.89
-4150.11
4801.8
-4039.77
5018.67
-3861.26
5222.79
-3586.47
5399.27
-3178.32
5527.98
-2613.24
5570.72
-1858.49
5511.84
-1072.54
5361.38
-465.865
5185.5
-299.254
5049.15
-647.356
4984.03
-1446.27
5022.77
-2606.75
5171.4
-3947.81
5436.5
-5344.61
5837.13
-6744.09
6341.61
-7864.59
6900.17
-8567.73
7474.25
-8913.22
8042.72
-9004.54
8601.35
-8930.56
9150.75
-8725.19
9689.28
-8379.24
10212.4
-7871.04
10709
-7170.61
11160
-6249.76
11541.8
-5122.08
11824.7
-3791.27
12020.9
-2497.14
11997.9
-722.241
11781
949.629
11480.2
1896.41
11194.6
2125.9
10986.6
1873.96
10866.3
1462.25
10817.7
1132.68
10789.3
1100.63
10728.7
1416.65
10620
1980.86
10450.9
2724.29
10214.5
3517.34
9909.38
4234.07
9550.57
4766.8
9171.22
5029.72
8807.57
5001.37
8490.82
4713.1
8246.18
4225.72
8081.28
3648.21
7968.64
3126.67
7877.27
2684.54
7850.69
2106.52
7914.07
1446.87
8020.9
811.494
7962.92
872.974
8638.3
-1231.03
9387.26
-2816.96
9446.96
-1677.7
9314.02
-471.62
9007.25
1116.53
8506.53
2705.44
8050.23
3465.9
7913.6
2970.75
8194.2
1579.21
8523.55
1067.87
2174.04
1440.01
-1933.77
1563.56
-2592.52
1693.65
-2934.39
1816.71
-2983.83
1931.87
-2931.94
2038.3
-2801.07
2134.69
-2591.79
2218.45
-2311.81
2286.81
-1980.66
2337.35
-1619.95
2369.88
-1267.53
2391.28
-980.787
2414.29
-788.296
2439.98
-619.217
2456.09
-362.499
2451.85
-1.22944
2429.44
306.839
2400.46
402.464
2389.4
211.6
2430.64
-218.643
2493.76
-444.238
2537.65
-368.124
2556.88
-230.723
2556.2
-194.393
2557.94
-382.443
2576.78
-771.324
2634.59
-1345.93
2745.38
-2027.68
2905.1
-2714.78
3100.41
-3333.22
3316.04
-3826.18
3538.64
-4161.87
3760.33
-4348.94
3979.09
-4423.61
4196.11
-4422.73
4412.69
-4366.69
4628.2
-4255.29
4839.03
-4072.1
5037.33
-3784.77
5207.09
-3348.09
5326.93
-2733.09
5350.71
-1882.27
5257.87
-979.714
5052.5
-260.505
4817.59
-64.3527
4629.09
-458.871
4507.37
-1324.56
4491.35
-2590.74
4586.42
-4042.89
4806.73
-5564.92
5181.16
-7118.53
5669.24
-8352.67
6207.19
-9105.7
6749.13
-9455.15
7277.59
-9533
7798.16
-9451.12
8319.62
-9246.66
8844.89
-8904.51
9371.23
-8397.39
9886.05
-7685.43
10367.1
-6730.81
10785
-5539.96
11104.4
-4110.74
11343.2
-2735.93
11333.5
-712.514
11106.4
1176.7
10783.1
2219.77
10474.7
2434.34
10255.1
2093.48
10133.8
1583.62
10096
1170.41
10078.7
1117.92
10016.8
1478.61
9905.49
2092.15
9741.67
2888.11
9519.38
3739.63
9231.5
4521.94
8888.35
5109.95
8522.89
5395.18
8172.95
5351.31
7873.03
5013.01
7653.97
4444.78
7527.36
3774.82
7457.36
3196.67
7402.22
2739.68
7424.09
2084.65
7581.19
1289.77
7706.08
686.609
7786.37
792.683
8434.52
-1879.18
8984.21
-3366.66
9171.8
-1865.29
9090.73
-390.545
8666.17
1541.08
8071.28
3300.33
7667.99
3869.19
7718.51
2920.24
8187.59
1110.13
8556.02
699.444
2331.66
1406.9
-2034.82
1518.56
-2704.19
1640.16
-3056
1756.22
-3099.9
1865.25
-3040.97
1966.49
-2902.32
2058.58
-2683.89
2138.27
-2391.5
2202.15
-2044.56
2247.37
-1665.18
2273.74
-1293.91
2289.56
-996.614
2309.42
-808.176
2332.88
-642.685
2345.6
-375.235
2337.62
6.73382
2312.39
332.057
2280.58
434.253
2270.01
222.16
2322.82
-271.477
2400.85
-522.28
2453.99
-421.281
2476.75
-253.508
2472.88
-190.534
2468.96
-378.539
2480.79
-783.172
2531.57
-1396.73
2634.39
-2130.52
2785.4
-2865.8
2972.94
-3520.76
3181.4
-4034.64
3396.12
-4376.59
3609.06
-4561.88
3818.82
-4633.38
4027
-4630.91
4234.87
-4574.57
4441.66
-4462.08
4643.68
-4274.13
4833.34
-3974.43
4994.1
-3508.86
5103.93
-2842.92
5107.52
-1885.88
4978.05
-850.244
4707.94
9.59015
4404.29
239.288
4160.53
-215.123
3975.01
-1139.06
3901.11
-2516.84
3943.95
-4085.74
4125.23
-5746.2
4477.79
-7471.1
4941.67
-8816.55
5435.88
-9599.92
5916.21
-9935.48
6382.42
-9999.22
6857.57
-9926.28
7357.92
-9747
7885.44
-9432.03
8433.29
-8945.24
8982.89
-8235.03
9506.3
-7254.22
9966.53
-6000.19
10323.6
-4467.79
10606.7
-3019.01
10611.6
-717.486
10385.1
1403.27
10054.6
2550.22
9738.92
2750.03
9521.99
2310.4
9408.76
1696.85
9390
1189.17
9386.38
1121.54
9314.06
1550.94
9187.07
2219.14
9014.44
3060.74
8793.5
3960.57
8514.96
4800.48
8185.89
5439.03
7837.16
5743.9
7505.52
5682.95
7227.56
5290.98
7040.24
4632.1
6960.88
3854.19
6945.03
3212.52
6940.64
2744.07
7030.51
1994.77
7332.13
988.158
7453.38
565.359
7925.4
320.657
8528.25
-2482.03
8589.33
-3427.73
8904.08
-2180.05
8933.71
-420.174
8304.42
2170.38
7582.72
4022.03
7301.51
4150.41
7710.3
2511.44
8350.33
470.107
8587.27
462.506
2546.81
1370.98
-2122.34
1471.47
-2804.68
1586.33
-3170.88
1696.31
-3209.88
1799.62
-3144.29
1896.19
-2998.9
1984.49
-2772.19
2060.33
-2467.36
2119.7
-2103.94
2159.29
-1704.79
2178.87
-1313.5
2188.4
-1006.17
2204.09
-823.878
2224
-662.617
2233.52
-384.775
2223.96
16.2752
2197.86
358.142
2163.29
468.803
2152.76
232.671
2218.21
-336.953
2311.6
-615.687
2373.07
-482.777
2397.8
-278.258
2388.46
-181.215
2378.01
-368.118
2383.27
-788.442
2427.3
-1440.77
2521.54
-2224.76
2663.24
-3007.51
2842.21
-3699.74
3041.96
-4234.4
3247.16
-4581.8
3450.14
-4764.87
3649.84
-4833.08
3847.66
-4828.74
4044.58
-4771.49
4239.76
-4657.27
4430.02
-4464.39
4609
-4153.42
4760.55
-3660.42
4862.22
-2944.59
4848.04
-1871.71
4682.9
-685.106
4332.78
359.699
3950.2
621.851
3663.99
71.0765
3421.02
-896.11
3295.51
-2391.35
3293.64
-4083.88
3446.71
-5899.27
3780.48
-7804.88
4202.95
-9239.01
4622.37
-10019.3
5018.37
-10331.5
5423.44
-10404.3
5875.81
-10378.6
6386.43
-10257.6
6944.78
-9990.38
7534.23
-9534.69
8128.81
-8829.6
8695.67
-7821.08
9189.81
-6494.32
9568.4
-4846.39
9875.27
-3325.87
9866.52
-708.741
9627.84
1641.95
9294.32
2883.74
8986.75
3057.59
8792.07
2505.08
8702.45
1786.48
8717.84
1173.78
8736.33
1103.05
8649
1638.27
8497.43
2370.71
8301.31
3256.86
8062.8
4199.08
7778.02
5085.25
7455.42
5761.63
7122.8
6076.53
6812.88
5992.87
6562.36
5541.5
6413.32
4781.14
6390.07
3877.44
6442.25
3160.34
6517.89
2668.43