/*--------------------------------*- C++ -*----------------------------------*\
| =========                 |                                                 |
| \\      /  F ield         | OpenFOAM: The Open Source CFD Toolbox           |
|  \\    /   O peration     | Version:  4.1                                   |
|   \\  /    A nd           | Web:      www.OpenFOAM.org                      |
|    \\/     M anipulation  |                                                 |
\*---------------------------------------------------------------------------*/
FoamFile
{
    version     2.0;
    format      ascii;
    class       volVectorField;
    location    "1600";
    object      U;
}
// * * * * * * * * * * * * * * * * * * * * * * * * * * * * * * * * * * * * * //

dimensions      [0 1 -1 0 0 0 0];

internalField   nonuniform List<vector> 
26785
(
(-9.39938e-16 -0.0170071 14.4272)
(1.39637e-15 -0.0366096 15.1128)
(1.01084e-15 -0.0502248 16.1551)
(-3.71678e-14 -0.0557531 17.3313)
(-9.55693e-15 -0.0575558 18.5165)
(-4.02834e-14 -0.0562702 19.6505)
(-1.96993e-14 -0.0508968 20.6739)
(-1.24094e-14 -0.0413709 21.5196)
(8.54784e-15 -0.028888 22.1361)
(-3.30158e-14 -0.0150854 22.5034)
(-5.01438e-15 -0.00157804 22.6319)
(-3.40633e-15 0.0109575 22.5486)
(7.80486e-15 0.0222823 22.2828)
(1.21262e-14 0.0314906 21.8708)
(1.14091e-14 0.0387249 21.3499)
(8.50195e-15 0.0444251 20.744)
(4.91339e-15 0.0470983 20.0804)
(2.87882e-15 0.0437803 19.4223)
(-1.33281e-15 0.0336364 18.8691)
(-1.77974e-14 0.0212944 18.4922)
(9.97453e-15 0.0136862 18.2647)
(7.7489e-15 0.0121027 18.0954)
(1.70532e-14 0.0123056 17.9223)
(4.76957e-14 0.0101206 17.7514)
(2.02417e-14 0.00399902 17.6298)
(3.67367e-14 -0.00558461 17.606)
(2.90953e-14 -0.0174579 17.7121)
(1.67481e-14 -0.030394 17.9614)
(2.47734e-14 -0.0435395 18.3538)
(6.0157e-14 -0.056474 18.8814)
(1.77022e-14 -0.0688469 19.5315)
(1.73089e-15 -0.0801209 20.2861)
(-5.46705e-14 -0.0896578 21.1218)
(-8.43813e-14 -0.0969191 22.0119)
(-6.5675e-14 -0.101567 22.9291)
(1.52354e-15 -0.103422 23.8476)
(-8.05573e-16 -0.102357 24.7441)
(3.65403e-15 -0.0982224 25.5962)
(5.92243e-15 -0.090842 26.3818)
(1.54068e-14 -0.0801944 27.0783)
(3.36454e-14 -0.0666079 27.6644)
(1.06085e-14 -0.0511135 28.1238)
(5.68088e-15 -0.0356669 28.4527)
(-1.36094e-14 -0.0227854 28.666)
(-1.61765e-15 -0.0149147 28.7994)
(-9.57207e-15 -0.0139027 28.906)
(2.07568e-14 -0.0203122 29.0468)
(2.02732e-14 -0.0330783 29.2774)
(1.71316e-14 -0.050142 29.6366)
(1.44527e-14 -0.0690923 30.1429)
(2.67759e-14 -0.0877904 30.7959)
(-8.07198e-15 -0.104073 31.5796)
(-3.14411e-15 -0.116039 32.4635)
(-5.13992e-15 -0.122885 33.4077)
(-3.76727e-15 -0.124821 34.3718)
(-3.85294e-15 -0.122381 35.3202)
(-1.51892e-14 -0.115949 36.2231)
(1.42205e-14 -0.105645 37.0537)
(1.16007e-14 -0.0914222 37.7863)
(1.50669e-14 -0.0732303 38.3954)
(2.27821e-14 -0.0512391 38.8566)
(1.27704e-14 -0.0260579 39.1483)
(8.2578e-15 0.00107529 39.2562)
(-2.2161e-15 0.0282999 39.1762)
(2.60518e-14 0.0531545 38.9195)
(2.11869e-14 0.0746284 38.5085)
(2.30656e-14 0.0908417 37.9749)
(2.42155e-14 0.0998162 37.3606)
(2.45751e-14 0.102581 36.7144)
(2.13511e-14 0.102535 36.0707)
(3.2429e-15 0.10264 35.4372)
(1.66904e-14 0.104869 34.802)
(2.20143e-14 0.110336 34.1466)
(2.38905e-14 0.119027 33.4517)
(2.66326e-14 0.129854 32.7014)
(2.603e-14 0.141067 31.889)
(1.09634e-14 0.150862 31.02)
(2.23085e-14 0.157865 30.1098)
(2.30747e-14 0.161262 29.1794)
(2.21746e-14 0.160749 28.2518)
(2.08587e-14 0.156492 27.3485)
(3.36494e-14 0.149046 26.4885)
(3.9461e-14 0.139186 25.6858)
(3.09921e-14 0.127638 24.9498)
(2.92938e-14 0.114861 24.2858)
(2.76927e-14 0.101049 23.6969)
(2.13928e-14 0.0863531 23.1854)
(1.48634e-14 0.0710516 22.7526)
(7.35102e-15 0.0558179 22.3987)
(1.92159e-14 0.0415542 22.1173)
(1.80151e-14 0.0299865 21.8986)
(1.62447e-14 0.0217617 21.7236)
(1.45983e-14 0.0156907 21.5744)
(1.45837e-14 0.0115811 21.4498)
(1.48736e-14 0.0142108 21.3395)
(1.69989e-14 0.0210376 21.2034)
(2.03897e-14 0.0220325 21.0511)
(2.30581e-14 0.0117244 20.9086)
(2.4755e-14 0.00446154 20.8756)
(2.60367e-14 0.00894873 20.8263)
(-3.34029e-15 -0.0566603 14.6032)
(-2.13026e-14 -0.116685 15.3913)
(2.07765e-14 -0.156289 16.5002)
(6.25658e-15 -0.170858 17.7044)
(-4.13234e-14 -0.173903 18.8898)
(-1.00943e-13 -0.167348 20.0014)
(-1.51158e-14 -0.148835 20.9868)
(-2.2213e-14 -0.118891 21.7901)
(-1.00086e-14 -0.0812426 22.371)
(1.8524e-14 -0.0404054 22.7152)
(1.08247e-14 -0.000837139 22.8338)
(6.00098e-15 0.0355478 22.7523)
(-5.51324e-16 0.068594 22.4996)
(-3.77095e-15 0.0962656 22.1031)
(-1.40215e-14 0.118598 21.5862)
(1.13976e-14 0.135931 20.9727)
(5.94688e-15 0.144019 20.2988)
(-3.07417e-14 0.135393 19.6292)
(-2.16807e-14 0.107438 19.0493)
(-7.68672e-15 0.0723347 18.6238)
(-5.42285e-14 0.0502801 18.3366)
(4.69886e-14 0.0455565 18.1058)
(-6.70721e-15 0.0459504 17.8722)
(4.85745e-15 0.0391148 17.6412)
(-2.38646e-14 0.0202171 17.459)
(-3.89743e-14 -0.00956237 17.3751)
(1.55009e-14 -0.0466782 17.4227)
(4.31291e-15 -0.087057 17.6159)
(-8.31421e-15 -0.127532 17.9528)
(-4.77453e-15 -0.166215 18.4214)
(-3.70944e-15 -0.201571 19.0039)
(-5.83397e-14 -0.231816 19.6781)
(-5.32623e-14 -0.255307 20.4183)
(-4.18174e-14 -0.271121 21.1987)
(-1.14154e-14 -0.279175 21.9953)
(-3.48907e-15 -0.279854 22.7874)
(-1.12496e-14 -0.273497 23.5562)
(-9.3352e-15 -0.260079 24.2841)
(-7.32913e-15 -0.239178 24.9523)
(-8.21227e-15 -0.210578 25.5409)
(-3.74905e-15 -0.174931 26.0309)
(3.18011e-15 -0.134914 26.4084)
(-2.3534e-14 -0.0959776 26.6722)
(-9.03434e-15 -0.0652245 26.8398)
(-2.3684e-14 -0.0494446 26.9495)
(-1.43853e-14 -0.0535557 27.0559)
(-1.48593e-14 -0.078605 27.2197)
(1.17924e-15 -0.12092 27.4937)
(-1.21442e-14 -0.174315 27.9122)
(1.4103e-14 -0.232026 28.489)
(-1.02061e-14 -0.288298 29.2204)
(1.93145e-14 -0.337041 30.0876)
(1.48832e-14 -0.372649 31.0575)
(1.56372e-14 -0.392726 32.0871)
(4.70496e-14 -0.397908 33.1334)
(1.46939e-14 -0.389812 34.159)
(2.50636e-14 -0.369607 35.1335)
(4.63417e-14 -0.337668 36.03)
(5.01869e-14 -0.293871 36.8233)
(1.46198e-14 -0.238083 37.4881)
(9.82292e-15 -0.170835 38.0005)
(9.20079e-17 -0.0939846 38.3389)
(3.31605e-14 -0.0112424 38.4888)
(2.72065e-14 0.0717296 38.4458)
(7.59853e-15 0.147901 38.2213)
(4.73436e-15 0.214273 37.8336)
(-1.22589e-15 0.264163 37.3155)
(-6.34172e-15 0.291787 36.7124)
(-3.34446e-15 0.300944 36.0746)
(2.40665e-14 0.301924 35.4366)
(8.98999e-15 0.303438 34.8054)
(-1.15247e-14 0.311317 34.169)
(-3.10412e-15 0.3288 33.5094)
(7.13007e-15 0.355727 32.8077)
(1.68475e-14 0.388757 32.049)
(4.42067e-15 0.422618 31.2278)
(2.26206e-14 0.451923 30.3506)
(1.24297e-14 0.472631 29.4338)
(1.69824e-14 0.482407 28.499)
(3.62898e-14 0.48046 27.5688)
(2.40164e-14 0.467412 26.6645)
(1.35137e-14 0.44506 25.8042)
(3.50952e-14 0.415845 25.0007)
(5.16272e-14 0.382059 24.2619)
(4.13597e-14 0.345171 23.5915)
(3.98877e-14 0.305865 22.991)
(3.78967e-14 0.264821 22.4612)
(5.70083e-14 0.222686 22.0011)
(6.05186e-14 0.18143 21.6094)
(4.11887e-14 0.143312 21.2798)
(3.43135e-14 0.113305 21.004)
(3.28901e-14 0.0944985 20.7628)
(3.5066e-14 0.0815801 20.5309)
(3.1751e-14 0.0712462 20.3091)
(4.50995e-14 0.079242 20.0946)
(4.21222e-14 0.0996957 19.8511)
(3.61698e-14 0.0977938 19.5803)
(3.67183e-14 0.0578228 19.3365)
(3.62475e-14 0.0187334 19.2204)
(3.54228e-14 0.0172595 19.1909)
(2.9304e-16 -0.106396 14.6987)
(-1.01682e-14 -0.204651 15.5114)
(-8.01547e-15 -0.264966 16.5737)
(2.28677e-14 -0.284871 17.6904)
(-2.22263e-14 -0.287097 18.7753)
(-3.93297e-14 -0.274513 19.7894)
(1.13528e-14 -0.243489 20.6914)
(-9.58425e-15 -0.194956 21.4342)
(3.85662e-15 -0.134588 21.9824)
(3.2757e-15 -0.0690744 22.3223)
(-1.14254e-15 -0.0053317 22.4604)
(-4.62278e-15 0.0534833 22.4177)
(-6.00836e-15 0.107838 22.2192)
(-4.70392e-15 0.155162 21.8827)
(-5.6731e-15 0.194777 21.4174)
(-1.9621e-14 0.225545 20.8381)
(1.12607e-14 0.240128 20.1811)
(8.12174e-15 0.228014 19.5136)
(9.72852e-14 0.185262 18.9151)
(2.10811e-14 0.129898 18.4497)
(5.04991e-14 0.0945528 18.1116)
(3.96238e-14 0.0869914 17.8267)
(-3.27356e-14 0.0876517 17.5377)
(-1.98173e-14 0.0763797 17.2487)
(2.42128e-14 0.0450972 17.004)
(1.29159e-15 -0.00441224 16.8526)
(1.56294e-14 -0.0662135 16.829)
(1.013e-14 -0.133141 16.9486)
(-3.0143e-14 -0.199457 17.2101)
(-4.16199e-14 -0.261801 17.6016)
(-4.20946e-14 -0.317776 18.1063)
(-4.30564e-15 -0.36494 18.7056)
(-3.02656e-14 -0.401301 19.379)
(-3.0157e-14 -0.425972 20.1054)
(3.50548e-15 -0.439082 20.8625)
(-1.93971e-14 -0.441102 21.6276)
(-2.50134e-14 -0.43213 22.3771)
(-2.60345e-14 -0.411637 23.0867)
(-2.83388e-14 -0.378603 23.7316)
(-2.75542e-14 -0.332638 24.2871)
(-2.46141e-14 -0.275036 24.7319)
(-2.11454e-14 -0.210645 25.0521)
(-1.65043e-14 -0.149083 25.2491)
(-8.18849e-15 -0.102623 25.3463)
(-5.13557e-16 -0.0826631 25.3898)
(3.97109e-15 -0.0970396 25.4434)
(5.87688e-15 -0.146679 25.5759)
(4.71431e-15 -0.22443 25.8451)
(4.35177e-16 -0.319367 26.2852)
(-9.20682e-16 -0.420137 26.9067)
(-7.50795e-16 -0.51734 27.6997)
(3.53599e-15 -0.600652 28.6384)
(1.55083e-15 -0.660464 29.6823)
(4.21703e-16 -0.692922 30.7827)
(5.40748e-15 -0.699531 31.8936)
(-8.02832e-16 -0.683483 32.9778)
(2.96351e-14 -0.647138 34.0061)
(1.51816e-14 -0.59139 34.9534)
(-2.46853e-15 -0.516131 35.7952)
(5.31802e-15 -0.421104 36.5061)
(-2.60001e-15 -0.307063 37.0611)
(7.36733e-15 -0.177014 37.4372)
(9.61785e-15 -0.0369816 37.6183)
(6.62208e-15 0.103398 37.5987)
(-5.25503e-16 0.233201 37.3905)
(1.25699e-14 0.347497 37.0073)
(9.51122e-16 0.432659 36.4834)
(-2.13312e-14 0.479368 35.8698)
(-1.99606e-14 0.495471 35.2209)
(-2.40531e-14 0.498226 34.5723)
(-2.55258e-14 0.501871 33.9301)
(-2.31243e-14 0.516075 33.2822)
(1.50626e-15 0.546107 32.6103)
(-1.34455e-14 0.591507 31.8959)
(-4.03222e-14 0.646605 31.1246)
(-3.02777e-14 0.70259 30.2915)
(-1.99216e-14 0.750554 29.4041)
(-1.03961e-14 0.783939 28.4797)
(-4.37547e-15 0.799065 27.54)
(-2.56145e-15 0.794819 26.6076)
(-1.83619e-15 0.772439 25.7033)
(8.36641e-16 0.735107 24.8441)
(-8.56697e-15 0.687031 24.0417)
(9.16745e-15 0.63212 23.3025)
(9.67831e-15 0.572828 22.6286)
(1.33511e-14 0.5102 22.0204)
(1.47162e-14 0.445562 21.4779)
(1.61852e-14 0.380207 21.0001)
(1.5819e-14 0.316648 20.5827)
(1.1437e-14 0.257241 20.2216)
(2.95587e-14 0.209798 19.9088)
(3.06722e-14 0.183638 19.6337)
(1.97525e-14 0.171476 19.3642)
(2.71626e-14 0.162925 19.0864)
(2.28335e-14 0.182652 18.7836)
(1.97893e-14 0.222517 18.428)
(1.30696e-14 0.221621 18.0227)
(1.32913e-14 0.146446 17.5932)
(1.14342e-14 0.0409715 17.3012)
(7.91411e-15 0.0105719 17.2152)
(1.58177e-15 -0.156759 14.6303)
(-2.4419e-15 -0.287361 15.3469)
(-2.1206e-14 -0.36416 16.2729)
(3.50586e-14 -0.388525 17.2629)
(3.41298e-14 -0.391184 18.2463)
(5.1811e-14 -0.374905 19.1802)
(4.39438e-15 -0.334365 20.018)
(-1.0899e-14 -0.270689 20.7129)
(1.89224e-14 -0.191245 21.2329)
(1.11583e-14 -0.104563 21.5672)
(-6.29754e-16 -0.0197449 21.723)
(-1.08957e-14 0.0587942 21.7202)
(-1.28361e-14 0.132655 21.5849)
(1.93971e-15 0.199569 21.33)
(-1.52564e-14 0.258427 20.9495)
(-7.02637e-15 0.305863 20.4392)
(-6.54932e-15 0.330227 19.8279)
(9.35438e-15 0.317945 19.1842)
(-2.56675e-14 0.263797 18.5863)
(3.32008e-15 0.190736 18.0988)
(1.04433e-15 0.143454 17.7256)
(2.70184e-14 0.133792 17.4009)
(-3.93239e-14 0.135442 17.0692)
(-3.3453e-14 0.120767 16.7331)
(-2.15554e-14 0.0783095 16.4363)
(-1.41675e-14 0.0100543 16.2298)
(-1.16982e-14 -0.0760049 16.1525)
(-2.26468e-14 -0.169609 16.2243)
(-3.20265e-14 -0.262337 16.4461)
(-3.20344e-14 -0.349461 16.8078)
(-3.27537e-15 -0.428067 17.2961)
(-5.14061e-14 -0.495294 17.8968)
(-5.89746e-14 -0.54849 18.591)
(-3.675e-14 -0.585885 19.3532)
(-4.64919e-14 -0.606707 20.1524)
(-3.97319e-15 -0.610719 20.9556)
(-4.89082e-14 -0.59758 21.7309)
(7.28117e-15 -0.566587 22.4492)
(8.08112e-15 -0.51675 23.0841)
(-3.21434e-14 -0.448186 23.6118)
(-3.73929e-15 -0.363422 24.0129)
(-3.73551e-15 -0.269979 24.2757)
(-3.68998e-14 -0.182239 24.4043)
(-3.14286e-14 -0.118305 24.4264)
(1.29816e-14 -0.0947317 24.394)
(1.73431e-14 -0.122546 24.3786)
(3.60651e-14 -0.202229 24.4575)
(2.17956e-14 -0.322118 24.6935)
(-1.47017e-14 -0.465306 25.122)
(-1.886e-14 -0.614743 25.7497)
(7.76066e-15 -0.756776 26.5615)
(2.96614e-14 -0.876486 27.527)
(6.03243e-14 -0.960514 28.602)
(2.67075e-14 -1.00451 29.7357)
(1.37766e-14 -1.01183 30.882)
(2.81138e-14 -0.987753 32.0049)
(1.08299e-14 -0.935826 33.0753)
(4.17516e-14 -0.857111 34.0671)
(3.06949e-14 -0.751028 34.9532)
(2.60506e-14 -0.616773 35.7054)
(1.34258e-14 -0.45508 36.2957)
(1.64879e-14 -0.270135 36.699)
(-3.14418e-15 -0.0703228 36.8976)
(4.49153e-15 0.13016 36.8852)
(1.13714e-14 0.317005 36.6752)
(1.16374e-14 0.48314 36.2764)
(-1.17949e-16 0.605543 35.7262)
(2.79626e-14 0.671525 35.0825)
(3.14006e-14 0.694169 34.406)
(1.34147e-14 0.698072 33.7344)
(6.68627e-15 0.703171 33.0727)
(-7.75059e-16 0.723202 32.4072)
(-7.44499e-16 0.765435 31.7185)
(-2.88766e-14 0.828949 30.9872)
(3.55722e-16 0.905649 30.1983)
(1.37095e-14 0.983089 29.3473)
(-8.58725e-15 1.04881 28.4427)
(-6.4143e-15 1.09381 27.5028)
(-3.60743e-14 1.11318 26.5503)
(-3.30486e-14 1.1056 25.6084)
(-2.63044e-14 1.07305 24.6978)
(-1.8324e-14 1.02024 23.8352)
(-1.14378e-14 0.953281 23.0312)
(-2.14426e-14 0.877748 22.2908)
(1.27269e-15 0.797 21.6145)
(8.89267e-16 0.712233 21.0019)
(1.39197e-14 0.625152 20.4524)
(5.70035e-15 0.538346 19.9657)
(2.88347e-16 0.454858 19.5359)
(-1.22493e-14 0.376569 19.1568)
(1.03363e-14 0.310211 18.8169)
(9.98537e-15 0.272376 18.5194)
(6.3191e-15 0.262745 18.2365)
(1.26205e-14 0.269294 17.9504)
(1.17729e-14 0.317203 17.5987)
(2.14787e-14 0.388171 17.1624)
(1.94684e-14 0.410328 16.6464)
(2.62597e-14 0.332411 16.0481)
(2.3823e-14 0.141256 15.4378)
(2.76563e-14 0.0304031 15.0928)
(-1.91358e-16 -0.199818 14.3419)
(7.98961e-15 -0.359548 14.9139)
(-9.04074e-15 -0.454989 15.744)
(2.70285e-14 -0.487487 16.6892)
(-5.83443e-16 -0.493003 17.6484)
(4.4117e-15 -0.473718 18.5529)
(2.80637e-14 -0.42372 19.3484)
(-2.08221e-14 -0.345433 19.9949)
(-2.49058e-14 -0.248337 20.4708)
(-1.71355e-14 -0.142701 20.7728)
(3.94038e-16 -0.0395478 20.9127)
(2.02246e-14 0.0552887 20.9118)
(-6.33844e-15 0.144791 20.8013)
(3.20666e-15 0.228407 20.5984)
(-2.83144e-14 0.306092 20.2905)
(-3.20607e-14 0.372496 19.8531)
(9.51075e-16 0.410121 19.2963)
(2.31798e-15 0.401376 18.6861)
(7.1339e-15 0.339555 18.1019)
(8.30978e-15 0.251681 17.6116)
(1.3622e-14 0.194166 17.2264)
(-1.77871e-15 0.183438 16.8866)
(-4.75624e-14 0.186893 16.5366)
(-4.10505e-14 0.169566 16.1783)
(-5.00627e-14 0.116363 15.8568)
(-5.72755e-14 0.0290895 15.6268)
(-4.46468e-14 -0.0822966 15.5319)
(-2.81176e-14 -0.204079 15.5955)
(-6.72758e-14 -0.324895 15.8191)
(-3.93054e-14 -0.438931 16.194)
(-1.93994e-14 -0.543045 16.71)
(-5.44335e-17 -0.633409 17.3524)
(-4.79116e-15 -0.705426 18.0953)
(8.78866e-15 -0.755375 18.902)
(-2.39971e-14 -0.781469 19.7317)
(1.36843e-14 -0.783516 20.5467)
(3.04606e-16 -0.761802 21.3151)
(-1.18775e-14 -0.716319 22.0114)
(-1.73651e-14 -0.646527 22.6135)
(-1.94225e-14 -0.553064 23.1018)
(-1.73935e-14 -0.439428 23.4591)
(-1.34312e-14 -0.315514 23.6742)
(-2.46656e-14 -0.200526 23.7507)
(-6.68767e-15 -0.118727 23.7167)
(-1.16221e-14 -0.0922496 23.6269)
(-7.2747e-15 -0.135628 23.5575)
(-4.3487e-15 -0.24872 23.5917)
(-4.97605e-16 -0.414514 23.7966)
(1.50981e-15 -0.6093 24.208)
(-7.20278e-15 -0.809977 24.8318)
(1.08556e-14 -0.999054 25.6528)
(1.10297e-14 -1.15721 26.6414)
(3.31181e-14 -1.26739 27.7518)
(2.5362e-14 -1.325 28.9293)
(2.03829e-14 -1.33521 30.1233)
(1.62105e-14 -1.30496 31.2938)
(2.28541e-15 -1.23853 32.4084)
(6.23854e-15 -1.13682 33.4379)
(2.03894e-14 -0.998693 34.3535)
(4.24318e-14 -0.82304 35.1262)
(2.96379e-14 -0.610878 35.728)
(4.3197e-14 -0.367978 36.1346)
(7.48778e-15 -0.105161 36.3287)
(1.14467e-14 0.158188 36.3047)
(1.67217e-14 0.405381 36.0773)
(1.12767e-14 0.626951 35.6488)
(4.45168e-14 0.788018 35.0614)
(2.32144e-14 0.87267 34.3801)
(5.41813e-14 0.90032 33.6726)
(4.25795e-14 0.903586 32.9785)
(5.20514e-14 0.908666 32.3008)
(5.20343e-14 0.933769 31.623)
(3.36325e-14 0.988121 30.923)
(-6.94229e-15 1.07006 30.1789)
(3.29214e-14 1.16882 29.3741)
(4.12992e-14 1.26799 28.5038)
(5.69683e-14 1.35129 27.5775)
(4.46448e-14 1.40727 26.6156)
(8.48981e-15 1.42983 25.6424)
(1.52507e-14 1.41754 24.6824)
(-2.28583e-15 1.37332 23.7575)
(-2.28582e-14 1.30368 22.8849)
(1.27598e-14 1.21691 22.0745)
(-3.33768e-15 1.12037 21.3301)
(1.81878e-14 1.01827 20.6508)
(1.71435e-14 0.911761 20.0351)
(1.84076e-14 0.802702 19.4823)
(2.11555e-14 0.694862 18.9925)
(2.19605e-14 0.593123 18.561)
(3.34045e-14 0.500003 18.1782)
(2.74668e-14 0.416301 17.8291)
(3.4914e-14 0.361905 17.5197)
(3.96624e-14 0.347562 17.2355)
(4.32539e-14 0.374463 16.9705)
(4.64686e-14 0.462219 16.6257)
(5.21223e-14 0.569884 16.1771)
(5.74207e-14 0.62713 15.6241)
(5.83405e-14 0.601139 15.0079)
(6.14225e-14 0.385772 14.2823)
(6.22567e-14 0.150503 13.4672)
(4.6348e-16 -0.238175 13.8593)
(-6.92093e-15 -0.430317 14.4091)
(-1.01385e-14 -0.547312 15.2616)
(-7.00276e-15 -0.588307 16.2321)
(-3.7676e-14 -0.59449 17.1887)
(-1.7434e-14 -0.569263 18.0568)
(-5.54863e-15 -0.507863 18.7947)
(-4.72372e-15 -0.414536 19.3785)
(-2.03476e-14 -0.300566 19.7977)
(-3.48986e-14 -0.17747 20.055)
(3.94745e-14 -0.0578159 20.164)
(5.82467e-14 0.0510327 20.1459)
(2.36207e-14 0.153038 20.0331)
(1.56504e-14 0.249799 19.8485)
(4.87619e-15 0.343595 19.5771)
(-9.46475e-16 0.428637 19.1841)
(-6.42078e-15 0.481045 18.6648)
(-2.4692e-14 0.477825 18.0833)
(7.19257e-15 0.410131 17.521)
(2.51039e-14 0.308615 17.0474)
(1.51627e-15 0.241802 16.6746)
(-2.8692e-14 0.230979 16.343)
(-1.65602e-14 0.237153 15.9957)
(-4.99613e-14 0.217959 15.6354)
(-1.03885e-13 0.15439 15.3094)
(-8.64432e-14 0.0477948 15.0766)
(-7.51718e-14 -0.089868 14.9856)
(-4.57466e-14 -0.241044 15.0615)
(-4.18146e-14 -0.391423 15.3065)
(-2.48331e-14 -0.534341 15.7121)
(3.43055e-15 -0.665875 16.2662)
(2.10155e-14 -0.779961 16.9471)
(9.16965e-15 -0.86931 17.7204)
(-1.75239e-14 -0.928684 18.5433)
(-3.62758e-14 -0.9564 19.3734)
(-2.41856e-14 -0.953317 20.1748)
(-1.47958e-14 -0.920851 20.92)
(-2.40878e-14 -0.859718 21.5877)
(-2.65145e-14 -0.769536 22.1598)
(-3.00857e-14 -0.651032 22.6188)
(-2.79667e-14 -0.508226 22.9477)
(8.05188e-15 -0.353024 23.1333)
(1.97035e-14 -0.209611 23.1765)
(-7.57386e-15 -0.108891 23.1041)
(9.34721e-15 -0.0791576 22.9718)
(-4.88437e-15 -0.138951 22.8599)
(-1.27078e-14 -0.287504 22.8579)
(-1.64684e-14 -0.501861 23.0377)
(-1.60189e-14 -0.751219 23.4384)
(-1.62339e-14 -1.00667 24.0684)
(-1.94793e-14 -1.24731 24.9152)
(-2.94819e-14 -1.44838 25.948)
(-3.13916e-14 -1.58771 27.1125)
(-2.49905e-14 -1.65989 28.342)
(-1.44588e-14 -1.67205 29.5779)
(-5.94868e-15 -1.6333 30.7765)
(7.75059e-16 -1.54924 31.906)
(-3.32631e-15 -1.42124 32.9396)
(-1.42084e-15 -1.24815 33.8517)
(7.04876e-15 -1.0288 34.6165)
(-3.84971e-16 -0.76445 35.2083)
(-2.66264e-15 -0.462344 35.6035)
(-1.8329e-14 -0.135262 35.7843)
(-1.28513e-14 0.191823 35.7446)
(-1.00593e-14 0.501405 35.4978)
(1.42413e-14 0.780694 35.0382)
(3.28187e-14 0.980417 34.4141)
(5.3308e-14 1.08191 33.6984)
(5.64355e-14 1.11197 32.966)
(3.98537e-14 1.11196 32.2578)
(4.4167e-14 1.115 31.5738)
(1.87077e-14 1.14433 30.8942)
(1.96175e-14 1.21111 30.1932)
(2.33316e-14 1.31257 29.4451)
(1.69547e-14 1.43493 28.6313)
(-1.6533e-14 1.55729 27.7462)
(-1.26923e-15 1.65917 26.8004)
(4.04302e-15 1.72647 25.8163)
(3.1823e-16 1.75185 24.8204)
(1.47405e-14 1.73377 23.8394)
(1.69021e-14 1.67632 22.8971)
(3.13713e-14 1.58816 22.0116)
(4.45037e-15 1.48014 21.1933)
(2.14076e-14 1.36168 20.4443)
(1.97628e-14 1.2377 19.7625)
(2.62593e-14 1.109 19.1457)
(4.95499e-14 0.977601 18.5937)
(4.33749e-14 0.848129 18.1067)
(4.37407e-14 0.727482 17.6811)
(4.52062e-14 0.620035 17.3066)
(5.70708e-14 0.519949 16.9672)
(4.0983e-14 0.447372 16.6644)
(4.42436e-14 0.422291 16.3948)
(4.43902e-14 0.46697 16.1502)
(5.10524e-14 0.596066 15.8268)
(4.45371e-14 0.738057 15.3895)
(4.60648e-14 0.817447 14.8452)
(5.26029e-14 0.847293 14.2565)
(5.10592e-14 0.704605 13.6957)
(2.80466e-14 0.391112 12.6275)
(-5.30068e-15 -0.271278 13.4663)
(-1.04672e-14 -0.502079 14.0409)
(2.01802e-14 -0.641352 14.9238)
(-1.78343e-14 -0.688255 15.8959)
(-3.11245e-14 -0.691907 16.8147)
(-2.61356e-14 -0.658686 17.618)
(4.47272e-15 -0.585485 18.2821)
(-9.74908e-17 -0.477962 18.7958)
(-2.44627e-14 -0.348613 19.1557)
(-1.72409e-14 -0.20977 19.367)
(4.75686e-14 -0.0752986 19.4445)
(1.64642e-14 0.0458602 19.409)
(1.93808e-14 0.158402 19.2947)
(2.03896e-14 0.266577 19.1293)
(1.40781e-14 0.375324 18.8906)
(2.05261e-14 0.478748 18.5321)
(6.31085e-14 0.546117 18.0393)
(5.78998e-14 0.548537 17.4812)
(1.79217e-14 0.475282 16.9418)
(9.58723e-15 0.360532 16.4888)
(-4.0506e-14 0.285305 16.1329)
(2.47395e-14 0.275554 15.8137)
(4.00719e-14 0.285425 15.4738)
(6.52418e-15 0.265019 15.1167)
(-1.90248e-15 0.191139 14.7929)
(-4.50639e-14 0.0644864 14.5654)
(-5.34241e-14 -0.100788 14.4858)
(-4.29384e-14 -0.282844 14.5805)
(-2.24982e-14 -0.46419 14.8506)
(-3.75411e-14 -0.636882 15.2846)
(-1.15048e-14 -0.795526 15.8647)
(-1.3139e-14 -0.931722 16.5659)
(-1.2968e-14 -1.03614 17.3521)
(-1.58088e-14 -1.1027 18.1791)
(-1.56382e-14 -1.13019 19.0028)
(-1.41632e-14 -1.12066 19.788)
(-3.85336e-14 -1.07673 20.5097)
(-2.46944e-14 -0.999793 21.1513)
(-1.41246e-14 -0.889461 21.6982)
(-1.31431e-14 -0.746218 22.1349)
(-1.64044e-14 -0.574177 22.4438)
(6.91241e-15 -0.386844 22.6088)
(-9.13407e-15 -0.213584 22.6269)
(7.03531e-15 -0.0924705 22.5228)
(-3.61516e-15 -0.0586213 22.3532)
(-9.43353e-15 -0.135231 22.2028)
(-1.19156e-14 -0.321133 22.1686)
(1.03462e-15 -0.587124 22.33)
(-1.09505e-14 -0.89524 22.7314)
(-1.53439e-14 -1.21051 23.3836)
(-1.22118e-14 -1.50782 24.2712)
(-4.57524e-14 -1.75456 25.354)
(-5.47163e-14 -1.92205 26.5633)
(-2.82092e-14 -2.00509 27.8218)
(-1.24199e-14 -2.01456 29.0684)
(-3.33682e-15 -1.9632 30.264)
(2.52961e-15 -1.85874 31.3828)
(-9.47475e-15 -1.70319 32.4042)
(-3.19283e-14 -1.49507 33.3065)
(-2.03723e-14 -1.23261 34.0655)
(-2.41025e-14 -0.916651 34.6552)
(-1.60641e-14 -0.555558 35.0498)
(-6.87479e-15 -0.16353 35.2283)
(1.3937e-15 0.228134 35.1826)
(-6.68666e-15 0.60293 34.9232)
(7.90494e-16 0.942585 34.4351)
(-2.96751e-14 1.18082 33.7757)
(1.09682e-14 1.29696 33.027)
(2.22417e-14 1.32635 32.2726)
(3.04672e-16 1.32001 31.5549)
(-1.34943e-14 1.3188 30.8703)
(-4.78776e-14 1.35155 30.1949)
(-2.17154e-14 1.43125 29.498)
(-1.52729e-14 1.55364 28.7507)
(-1.57009e-14 1.70155 27.9316)
(-6.37655e-15 1.84907 27.0345)
(-1.3034e-14 1.97107 26.0713)
(-3.11287e-14 2.05058 25.0665)
(-4.35887e-14 2.07885 24.049)
(-4.17009e-14 2.05421 23.0477)
(-2.66238e-14 1.98204 22.0888)
(-3.52181e-14 1.87358 21.1918)
(-1.20397e-14 1.74268 20.3673)
(-2.23558e-14 1.60116 19.6163)
(-3.06484e-14 1.45453 18.9348)
(-8.15646e-15 1.3027 18.3205)
(-3.47694e-16 1.14798 17.774)
(1.92792e-15 0.996136 17.2962)
(1.4996e-14 0.855502 16.8833)
(7.26178e-15 0.732821 16.524)
(2.53992e-14 0.613707 16.2037)
(1.36636e-14 0.52041 15.9315)
(2.38822e-15 0.487701 15.7029)
(9.46222e-15 0.557521 15.4824)
(-1.18483e-15 0.731696 15.1603)
(8.44013e-15 0.902679 14.7192)
(-1.17753e-15 0.984508 14.1816)
(-1.13904e-15 1.0345 13.6116)
(-1.87287e-14 0.980618 13.1755)
(-3.78213e-14 0.670517 12.1992)
(6.47355e-15 -0.310558 13.1073)
(-1.00449e-14 -0.578438 13.7295)
(2.73541e-15 -0.736254 14.6404)
(-2.93015e-15 -0.785261 15.5983)
(-6.81798e-15 -0.783718 16.4659)
(-6.64618e-15 -0.741306 17.1995)
(-8.34924e-15 -0.656353 17.7905)
(-2.34779e-14 -0.535478 18.2362)
(-5.02156e-15 -0.392044 18.5365)
(-7.77049e-15 -0.239048 18.6978)
(-6.93186e-15 -0.0915952 18.7361)
(-6.87096e-15 0.0396412 18.6732)
(-2.93832e-15 0.159819 18.5469)
(8.75378e-16 0.276921 18.395)
(6.98693e-15 0.399764 18.1909)
(1.87598e-14 0.522319 17.8743)
(-9.67004e-15 0.605734 17.4133)
(-3.72161e-15 0.614304 16.8787)
(-7.21833e-15 0.535867 16.3597)
(-9.4899e-15 0.408007 15.9255)
(-9.07922e-15 0.32486 15.5875)
(-9.73222e-15 0.316982 15.2844)
(-2.60933e-16 0.331136 14.9565)
(-1.29311e-14 0.309804 14.6079)
(-2.60098e-14 0.225407 14.2914)
(-3.55213e-14 0.0779782 14.0722)
(-7.77187e-14 -0.115958 14.0035)
(-2.12897e-14 -0.329878 14.113)
(-3.56512e-14 -0.542611 14.4004)
(-3.13835e-14 -0.744701 14.8503)
(-2.77054e-15 -0.929741 15.4459)
(-9.54497e-15 -1.08749 16.1645)
(-7.75345e-15 -1.20623 16.9662)
(-4.48639e-15 -1.27851 17.7976)
(-7.58158e-15 -1.30373 18.6087)
(-3.1406e-15 -1.2859 19.3661)
(-2.79331e-15 -1.22947 20.0524)
(-6.13858e-16 -1.13672 20.6584)
(6.95732e-15 -1.0069 21.1748)
(9.08038e-15 -0.839678 21.5879)
(8.31032e-15 -0.638678 21.8784)
(2.82688e-14 -0.418463 22.0254)
(4.04167e-14 -0.213916 22.0212)
(4.95426e-14 -0.0709669 21.8879)
(3.31763e-14 -0.0324031 21.6834)
(2.39036e-14 -0.1269 21.4983)
(2.01153e-14 -0.353178 21.4397)
(2.531e-14 -0.67522 21.5953)
(4.30593e-14 -1.04705 22.0125)
(2.68334e-14 -1.42628 22.6971)
(2.25233e-14 -1.78242 23.6236)
(3.50022e-14 -2.07355 24.7413)
(2.04136e-14 -2.26508 25.9727)
(1.66045e-14 -2.35444 27.238)
(7.07921e-15 -2.35807 28.4809)
(1.14352e-15 -2.29287 29.6695)
(-2.47609e-14 -2.16844 30.7843)
(-1.39881e-14 -1.98671 31.8075)
(-3.31716e-14 -1.74512 32.718)
(-8.18533e-15 -1.44071 33.4905)
(-1.46157e-14 -1.07342 34.096)
(1.97636e-15 -0.652663 34.5059)
(7.33362e-15 -0.19368 34.6945)
(1.07682e-14 0.264689 34.6523)
(1.34599e-14 0.709434 34.3856)
(9.73657e-15 1.11327 33.8686)
(1.13856e-14 1.39028 33.1709)
(3.87257e-14 1.51889 32.3853)
(5.05149e-14 1.54408 31.6064)
(4.12244e-14 1.52778 30.8779)
(2.09143e-14 1.51971 30.1926)
(2.62852e-15 1.55493 29.5213)
(1.83098e-14 1.64811 28.8283)
(2.87791e-14 1.79294 28.0803)
(2.10918e-14 1.96844 27.2539)
(-5.31628e-15 2.14304 26.3425)
(1.95902e-15 2.28655 25.36)
(-5.95632e-15 2.37904 24.3335)
(-3.4707e-14 2.41017 23.2942)
(-5.62346e-14 2.378 22.2733)
(-7.43972e-14 2.28943 21.2994)
(-6.99963e-14 2.15864 20.3936)
(-6.23659e-14 2.00305 19.5664)
(-7.08937e-14 1.83725 18.8173)
(-4.80521e-14 1.66715 18.1401)
(-5.37669e-14 1.49102 17.5323)
(-3.99777e-14 1.3115 16.9959)
(-3.41057e-14 1.13628 16.5331)
(-3.20732e-14 0.97501 16.1392)
(-2.12967e-14 0.837165 15.7978)
(-3.1265e-14 0.690157 15.4982)
(-3.09779e-14 0.567196 15.2786)
(-2.69493e-14 0.533607 15.1185)
(-2.05937e-14 0.649431 14.933)
(-3.54064e-14 0.879635 14.5941)
(-4.50273e-14 1.07633 14.1179)
(-4.94942e-14 1.15066 13.5656)
(-5.31307e-14 1.18216 12.9989)
(-5.25034e-14 1.18832 12.6483)
(-6.03829e-14 0.91766 11.7734)
(2.40822e-14 -0.35264 12.7924)
(7.75842e-16 -0.656871 13.4734)
(1.36546e-14 -0.830778 14.4014)
(1.96702e-14 -0.878837 15.33)
(4.92211e-15 -0.870069 16.138)
(-5.71314e-15 -0.817622 16.8021)
(9.51012e-15 -0.720914 17.3257)
(-7.862e-15 -0.587117 17.7106)
(-2.27489e-15 -0.43022 17.9577)
(1.89303e-14 -0.263839 18.0724)
(-6.69389e-15 -0.104398 18.0701)
(-1.36973e-14 0.0353291 17.9723)
(-6.92869e-15 0.160137 17.8201)
(-6.57118e-16 0.282353 17.6646)
(2.95326e-15 0.416694 17.4816)
(4.18526e-15 0.557939 17.2004)
(3.70516e-16 0.658507 16.7698)
(-2.17786e-14 0.674177 16.2574)
(-6.65925e-16 0.591044 15.7574)
(5.47734e-14 0.449874 15.3429)
(2.18057e-14 0.359071 15.0281)
(2.51461e-14 0.35389 14.7481)
(-1.39012e-14 0.373042 14.4387)
(-4.75167e-14 0.351338 14.1035)
(8.52201e-14 0.256719 13.7962)
(6.04657e-15 0.0884932 13.5818)
(-3.47838e-14 -0.134604 13.516)
(-5.52885e-14 -0.38095 13.6308)
(-1.16411e-14 -0.625253 13.9256)
(-2.80805e-14 -0.857112 14.3872)
(-1.61455e-14 -1.06955 15.0051)
(6.11875e-16 -1.24919 15.7516)
(-2.05897e-14 -1.38034 16.5686)
(2.31e-14 -1.45458 17.3885)
(2.41493e-14 -1.47385 18.1632)
(1.08102e-14 -1.44568 18.8715)
(1.7617e-14 -1.37669 19.509)
(2.38777e-14 -1.26946 20.0754)
(2.80486e-14 -1.12202 20.5645)
(2.90928e-14 -0.932417 20.9614)
(3.73126e-14 -0.703153 21.2426)
(3.63317e-14 -0.449321 21.3806)
(4.81088e-14 -0.211925 21.3609)
(7.1665e-14 -0.0456637 21.203)
(4.95074e-14 -0.00211726 20.9667)
(4.25566e-14 -0.116389 20.7505)
(4.14417e-14 -0.387049 20.6729)
(4.28582e-14 -0.769812 20.8288)
(4.23449e-14 -1.20894 21.2631)
(3.73722e-14 -1.65335 21.9711)
(2.65606e-14 -2.0679 22.9189)
(1.5048e-14 -2.40128 24.0533)
(-2.08509e-15 -2.61404 25.2954)
(-7.67988e-15 -2.70789 26.5662)
(-1.07335e-14 -2.70535 27.8129)
(-2.03138e-14 -2.62717 29.0078)
(-3.6081e-15 -2.48423 30.1338)
(1.1526e-14 -2.27779 31.1734)
(1.83207e-15 -2.0038 32.1045)
(1.88477e-14 -1.65785 32.9003)
(4.22305e-14 -1.23874 33.5295)
(5.55287e-14 -0.756958 33.9613)
(4.71699e-14 -0.228272 34.1652)
(4.2542e-14 0.29942 34.1315)
(4.20386e-14 0.82035 33.8605)
(5.65321e-14 1.29343 33.313)
(5.89837e-14 1.60966 32.574)
(7.6003e-14 1.74862 31.7482)
(7.6968e-14 1.76582 30.9424)
(7.28439e-14 1.73556 30.2021)
(7.75084e-14 1.71778 29.5155)
(5.02793e-14 1.7546 28.8482)
(6.92573e-14 1.86203 28.1584)
(5.46109e-14 2.03105 27.4082)
(5.94245e-14 2.23631 26.5722)
(7.00735e-14 2.43981 25.6436)
(4.33757e-14 2.60593 24.639)
(8.74881e-15 2.71181 23.589)
(-1.45197e-14 2.74532 22.5271)
(-3.52512e-14 2.70418 21.4872)
(-5.82407e-14 2.59706 20.5001)
(-6.71669e-14 2.44155 19.5886)
(-6.47178e-14 2.2592 18.7629)
(-5.93508e-14 2.06785 18.02)
(-9.05829e-14 1.87356 17.3511)
(-5.23599e-14 1.67178 16.7534)
(-4.95081e-14 1.46571 16.2312)
(-5.33222e-14 1.26594 15.7879)
(-5.26924e-14 1.08409 15.4185)
(-5.33068e-14 0.933179 15.0936)
(-5.08093e-14 0.743311 14.8161)
(-5.08841e-14 0.57723 14.6716)
(-5.85751e-14 0.555589 14.6036)
(-4.53216e-14 0.745055 14.4573)
(-5.58533e-14 1.04617 14.0927)
(-4.33697e-14 1.26456 13.5488)
(-5.49983e-14 1.32927 12.9543)
(-6.27212e-14 1.32401 12.39)
(-5.96504e-14 1.34956 12.0706)
(-5.32278e-14 1.12291 11.3338)
(-2.04906e-15 -0.399667 12.5158)
(4.51197e-15 -0.738633 13.2566)
(1.62506e-14 -0.924529 14.1842)
(4.83748e-15 -0.968304 15.0647)
(-1.23257e-14 -0.95097 15.8029)
(-9.28258e-15 -0.888462 16.3966)
(-2.81053e-14 -0.780556 16.8585)
(6.54591e-15 -0.634496 17.1921)
(1.43059e-14 -0.464647 17.3967)
(1.66149e-14 -0.285146 17.4759)
(3.14913e-14 -0.113773 17.443)
(6.36946e-15 0.0342263 17.3171)
(4.48025e-15 0.162238 17.1395)
(3.72083e-14 0.286745 16.9698)
(-1.18222e-14 0.429591 16.788)
(-1.36919e-14 0.587817 16.5214)
(-1.13727e-14 0.705469 16.1076)
(-2.35285e-14 0.728674 15.6109)
(2.94438e-15 0.640981 15.1285)
(1.85329e-16 0.485627 14.7382)
(3.77531e-15 0.387016 14.4561)