/*--------------------------------*- C++ -*----------------------------------*\
| =========                 |                                                 |
| \\      /  F ield         | OpenFOAM: The Open Source CFD Toolbox           |
|  \\    /   O peration     | Version:  4.1                                   |
|   \\  /    A nd           | Web:      www.OpenFOAM.org                      |
|    \\/     M anipulation  |                                                 |
\*---------------------------------------------------------------------------*/
FoamFile
{
    version     2.0;
    format      ascii;
    class       volScalarField;
    location    "2000";
    object      p;
}
// * * * * * * * * * * * * * * * * * * * * * * * * * * * * * * * * * * * * * //

dimensions      [0 2 -2 0 0 0 0];

internalField   nonuniform List<scalar> 
6820
(
-7.89273
-8.69247
-9.15297
-9.29781
-9.37637
-9.45068
-9.51052
-9.55611
-9.59483
-9.63031
-9.66311
-9.69345
-9.72178
-9.74854
-9.77397
-9.79826
-9.82159
-9.84411
-9.866
-9.8874
-9.90847
-9.92933
-9.95016
-9.97109
-9.9923
-10.014
-10.0363
-10.0596
-10.0839
-10.1102
-10.1369
-10.1707
-10.1859
-9.56644
-9.73222
-9.71782
-9.63825
-9.596
-9.59276
-9.60281
-9.61638
-9.63368
-9.65448
-9.67717
-9.70056
-9.72412
-9.74762
-9.77086
-9.7937
-9.81609
-9.83805
-9.85962
-9.88087
-9.90189
-9.92277
-9.94365
-9.96463
-9.98588
-10.0075
-10.0298
-10.053
-10.0771
-10.103
-10.1307
-10.164
-10.2054
-9.54487
-9.3568
-9.3382
-9.37267
-9.41448
-9.46275
-9.50926
-9.54976
-9.58627
-9.62064
-9.65306
-9.68346
-9.71207
-9.73918
-9.76499
-9.78964
-9.81329
-9.8361
-9.85823
-9.87983
-9.90103
-9.92197
-9.94281
-9.96368
-9.98474
-10.0061
-10.0281
-10.0508
-10.0744
-10.0995
-10.1263
-10.1571
-10.1888
-9.46273
-9.36035
-9.40979
-9.47043
-9.50386
-9.53437
-9.56591
-9.59474
-9.62154
-9.64779
-9.67361
-9.69871
-9.72306
-9.74675
-9.76983
-9.79231
-9.81425
-9.83571
-9.85677
-9.87753
-9.89806
-9.91847
-9.93886
-9.95934
-9.98003
-10.0011
-10.0226
-10.0447
-10.0677
-10.0917
-10.1169
-10.1439
-10.1705
-9.45521
-9.41531
-9.44749
-9.48523
-9.50743
-9.53231
-9.56148
-9.58982
-9.61674
-9.64327
-9.66942
-9.69491
-9.71964
-9.74366
-9.76702
-9.78972
-9.81184
-9.83343
-9.85457
-9.87536
-9.89588
-9.91623
-9.93651
-9.95682
-9.97727
-9.99796
-10.019
-10.0406
-10.0627
-10.0855
-10.109
-10.1331
-10.1565
-9.46439
-9.44429
-9.46022
-9.48999
-9.51391
-9.53931
-9.56763
-9.5953
-9.62166
-9.64748
-9.67288
-9.69764
-9.72168
-9.74506
-9.76781
-9.78997
-9.81158
-9.83271
-9.85343
-9.87383
-9.89397
-9.91396
-9.93386
-9.95378
-9.97379
-9.99398
-10.0144
-10.0352
-10.0564
-10.0779
-10.0996
-10.1214
-10.1423
-9.47382
-9.46266
-9.47377
-9.50007
-9.52404
-9.54797
-9.5741
-9.60027
-9.62558
-9.65044
-9.67496
-9.69895
-9.72235
-9.74516
-9.76741
-9.78913
-9.81036
-9.83115
-9.85155
-9.87165
-9.8915
-9.91119
-9.93077
-9.95032
-9.96991
-9.9896
-10.0094
-10.0295
-10.0496
-10.0699
-10.0901
-10.11
-10.1288
-9.48392
-9.47884
-9.48849
-9.51095
-9.53336
-9.55572
-9.58003
-9.60487
-9.62921
-9.6532
-9.67691
-9.7002
-9.72297
-9.74523
-9.767
-9.78827
-9.8091
-9.82951
-9.84957
-9.86932
-9.88883
-9.90816
-9.92736
-9.94648
-9.96559
-9.98472
-10.0039
-10.0231
-10.0423
-10.0614
-10.0802
-10.0984
-10.1156
-9.49481
-9.49346
-9.50225
-9.52136
-9.54211
-9.56324
-9.58602
-9.60955
-9.63289
-9.65598
-9.67886
-9.70142
-9.72355
-9.74523
-9.76647
-9.78728
-9.80767
-9.82768
-9.84735
-9.86673
-9.88586
-9.90479
-9.92357
-9.94224
-9.96083
-9.97936
-9.99783
-10.0162
-10.0345
-10.0525
-10.07
-10.0869
-10.1028
-9.50597
-9.50668
-9.51494
-9.53154
-9.5507
-9.57063
-9.592
-9.61425
-9.63656
-9.65875
-9.6808
-9.70262
-9.72409
-9.74518
-9.76588
-9.78619
-9.80612
-9.8257
-9.84496
-9.86393
-9.88265
-9.90116
-9.91948
-9.93766
-9.9557
-9.97361
-9.99137
-10.009
-10.0263
-10.0433
-10.0597
-10.0754
-10.0902
-9.51707
-9.51883
-9.52675
-9.54144
-9.55906
-9.57782
-9.5979
-9.61892
-9.64021
-9.6615
-9.68274
-9.70381
-9.72461
-9.74509
-9.76523
-9.78503
-9.80448
-9.8236
-9.84242
-9.86096
-9.87924
-9.89729
-9.91513
-9.93278
-9.95025
-9.96752
-9.98458
-10.0014
-10.0178
-10.0339
-10.0493
-10.064
-10.0778
-9.52787
-9.53016
-9.53776
-9.55097
-9.56716
-9.58477
-9.60366
-9.62353
-9.64381
-9.66422
-9.68464
-9.70497
-9.72509
-9.74496
-9.76453
-9.7838
-9.80275
-9.8214
-9.83975
-9.85783
-9.87564
-9.89321
-9.91054
-9.92765
-9.94453
-9.96116
-9.97751
-9.99354
-10.0092
-10.0243
-10.0389
-10.0527
-10.0657
-9.53828
-9.54077
-9.54803
-9.56005
-9.57496
-9.59146
-9.60925
-9.62804
-9.64735
-9.66688
-9.6865
-9.70609
-9.72554
-9.74478
-9.76377
-9.7825
-9.80093
-9.81909
-9.83695
-9.85455
-9.87187
-9.88894
-9.90575
-9.9223
-9.93858
-9.95457
-9.97024
-9.98553
-10.0004
-10.0147
-10.0285
-10.0415
-10.0538
-9.54819
-9.55072
-9.55762
-9.56866
-9.58243
-9.59788
-9.61464
-9.6324
-9.65078
-9.66946
-9.68829
-9.70714
-9.72592
-9.74453
-9.76294
-9.78111
-9.79902
-9.81666
-9.83403
-9.85113
-9.86795
-9.88449
-9.90076
-9.91675
-9.93243
-9.94779
-9.96278
-9.97737
-9.9915
-10.0051
-10.0181
-10.0304
-10.042
-9.55756
-9.56004
-9.56656
-9.57677
-9.58952
-9.604
-9.61979
-9.6366
-9.65407
-9.67192
-9.68998
-9.70811
-9.72622
-9.74421
-9.76203
-9.77964
-9.79701
-9.81413
-9.83098
-9.84757
-9.86387
-9.87989
-9.89561
-9.91102
-9.92611
-9.94084
-9.95519
-9.9691
-9.98254
-9.99544
-10.0078
-10.0194
-10.0304
-9.56636
-9.56874
-9.57488
-9.58436
-9.59622
-9.60978
-9.62467
-9.64058
-9.65719
-9.67424
-9.69155
-9.70898
-9.72642
-9.74378
-9.76101
-9.77806
-9.79489
-9.81148
-9.82781
-9.84387
-9.85965
-9.87513
-9.8903
-9.90515
-9.91964
-9.93377
-9.94748
-9.96075
-9.97354
-9.98579
-9.99747
-10.0085
-10.0189
-9.57457
-9.57682
-9.58259
-9.59143
-9.60248
-9.6152
-9.62925
-9.64432
-9.66011
-9.67639
-9.69297
-9.70971
-9.7265
-9.74324
-9.75988
-9.77636
-9.79265
-9.8087
-9.82451
-9.84004
-9.85529
-9.87023
-9.88485
-9.89913
-9.91305
-9.92658
-9.93968
-9.95234
-9.96451
-9.97615
-9.98724
-9.99775
-10.0076
-9.58216
-9.58428
-9.5897
-9.59796
-9.60829
-9.62024
-9.6335
-9.64778
-9.66281
-9.67834
-9.69422
-9.71029
-9.72644
-9.74257
-9.75863
-9.77455
-9.79028
-9.8058
-9.82108
-9.83608
-9.8508
-9.8652
-9.87927
-9.893
-9.90635
-9.9193
-9.93182
-9.94389
-9.95547
-9.96654
-9.97708
-9.98705
-9.99645
-9.58911
-9.59112
-9.5962
-9.60394
-9.61362
-9.62486
-9.63739
-9.65094
-9.66524
-9.68007
-9.69527
-9.71069
-9.72621
-9.74176
-9.75724
-9.7726
-9.78779
-9.80277
-9.81752
-9.83199
-9.84618
-9.86005
-9.87358
-9.88676
-9.89955
-9.91194
-9.9239
-9.93541
-9.94644
-9.95697
-9.96698
-9.97646
-9.98539
-9.59543
-9.59732
-9.60209
-9.60935
-9.61845
-9.62905
-9.6409
-9.65376
-9.66737
-9.68154
-9.69609
-9.71089
-9.72581
-9.74077
-9.75569
-9.7705
-9.78516
-9.79961
-9.81383
-9.82778
-9.84145
-9.85479
-9.86779
-9.88043
-9.89269
-9.90454
-9.91595
-9.92692
-9.93743
-9.94744
-9.95696
-9.96596
-9.97445
-9.60109
-9.60287
-9.60736
-9.61418
-9.62276
-9.63276
-9.64399
-9.65621
-9.66919
-9.68273
-9.69667
-9.71087
-9.72521
-9.73961
-9.75398
-9.76825
-9.78238
-9.79632
-9.81002
-9.82346
-9.8366
-9.84943
-9.86191
-9.87403
-9.88576
-9.89709
-9.90799
-9.91845
-9.92844
-9.93797
-9.94701
-9.95557
-9.96363
-9.60608
-9.60775
-9.61198
-9.61842
-9.62651
-9.63598
-9.64664
-9.65827
-9.67066
-9.68361
-9.69697
-9.7106
-9.72439
-9.73825
-9.75209
-9.76584
-9.77946
-9.79288
-9.80608
-9.81902
-9.83166
-9.84398
-9.85596
-9.86757
-9.8788
-9.88962
-9.90002
-9.90999
-9.9195
-9.92856
-9.93715
-9.94528
-9.95293
-9.61037
-9.61196
-9.61595
-9.62203
-9.62969
-9.63868
-9.64882
-9.65991
-9.67175
-9.68415
-9.69697
-9.71007
-9.72334
-9.73668
-9.75001
-9.76326
-9.77638
-9.78931
-9.80202
-9.81447
-9.82662
-9.83846
-9.84995
-9.86107
-9.87181
-9.88215
-9.89207
-9.90157
-9.91063
-9.91924
-9.9274
-9.9351
-9.94236
-9.61397
-9.61547
-9.61924
-9.625
-9.63227
-9.64082
-9.65049
-9.66109
-9.67243
-9.68434
-9.69665
-9.70925
-9.72203
-9.73488
-9.74773
-9.7605
-9.77315
-9.78561
-9.79784
-9.80982
-9.8215
-9.83286
-9.84388
-9.85454
-9.86481
-9.87469
-9.88416
-9.8932
-9.90182
-9.91
-9.91775
-9.92506
-9.93194
-9.61683
-9.61826
-9.62183
-9.6273
-9.63422
-9.64237
-9.65163
-9.66179
-9.67268
-9.68413
-9.69599
-9.70813
-9.72045
-9.73285
-9.74524
-9.75756
-9.76975
-9.78176
-9.79355
-9.80507
-9.8163
-9.82721
-9.83778
-9.84799
-9.85782
-9.86726
-9.87629
-9.8849
-9.8931
-9.90088
-9.90823
-9.91516
-9.92167
-9.61895
-9.6203
-9.62369
-9.62889
-9.6355
-9.64331
-9.6522
-9.66198
-9.67247
-9.68351
-9.69495
-9.70668
-9.71858
-9.73056
-9.74253
-9.75443
-9.7662
-9.77778
-9.78914
-9.80024
-9.81104
-9.82152
-9.83166
-9.84145
-9.85085
-9.85987
-9.86848
-9.87669
-9.88449
-9.89188
-9.89885
-9.90541
-9.91156
-9.62029
-9.62157
-9.62479
-9.62975
-9.63608
-9.6436
-9.65216
-9.66161
-9.67175
-9.68244
-9.69353
-9.70489
-9.71641
-9.72801
-9.7396
-9.75111
-9.76249
-9.77367
-9.78463
-9.79533
-9.80573
-9.81581
-9.82555
-9.83493
-9.84393
-9.85255
-9.86078
-9.8686
-9.87602
-9.88304
-9.88965
-9.89586
-9.90167
-9.62082
-9.62204
-9.6251
-9.62983
-9.63592
-9.64318
-9.65149
-9.66066
-9.67052
-9.68091
-9.69169
-9.70273
-9.71393
-9.72519
-9.73644
-9.7476
-9.75861
-9.76943
-9.78002
-9.79035
-9.80037
-9.81007
-9.81943
-9.82843
-9.83705
-9.8453
-9.85315
-9.86061
-9.86767
-9.87434
-9.8806
-9.88648
-9.89197
-9.62054
-9.62169
-9.62457
-9.62909
-9.63495
-9.64202
-9.65012
-9.65908
-9.66872
-9.67888
-9.68941
-9.7002
-9.71113
-9.7221
-9.73305
-9.74391
-9.75461
-9.76511
-9.77537
-9.78535
-9.79503
-9.80439
-9.8134
-9.82205
-9.83033
-9.83823
-9.84574
-9.85286
-9.85959
-9.86592
-9.87187
-9.87742
-9.8826
-9.6194
-9.62047
-9.62316
-9.62744
-9.63312
-9.64005
-9.64802
-9.65684
-9.66633
-9.67633
-9.68668
-9.69726
-9.70797
-9.7187
-9.72939
-9.73997
-9.75038
-9.76058
-9.77053
-9.7802
-9.78956
-9.79859
-9.80728
-9.8156
-9.82355
-9.83112
-9.83831
-9.84511
-9.85152
-9.85755
-9.86319
-9.86845
-9.87334
-9.61741
-9.61836
-9.62079
-9.62481
-9.63035
-9.6372
-9.64511
-9.65387
-9.66331
-9.67324
-9.68352
-9.69401
-9.70459
-9.71518
-9.7257
-9.73609
-9.74629
-9.75626
-9.76597
-9.77538
-9.78447
-9.79323
-9.80163
-9.80967
-9.81733
-9.82461
-9.8315
-9.83801
-9.84413
-9.84986
-9.85521
-9.86018
-9.86477
-9.61458
-9.61534
-9.61737
-9.62106
-9.62651
-9.6334
-9.64136
-9.65014
-9.65956
-9.66945
-9.67963
-9.68999
-9.70042
-9.71083
-9.72116
-9.73134
-9.74132
-9.75106
-9.76052
-9.76969
-9.77854
-9.78704
-9.79519
-9.80296
-9.81037
-9.81739
-9.82403
-9.83028
-9.83615
-9.84164
-9.84675
-9.8515
-9.85589
-9.611
-9.61142
-9.61277
-9.616
-9.6214
-9.62846
-9.63668
-9.64581
-9.65562
-9.66586
-9.67633
-9.6869
-9.69746
-9.70794
-9.71826
-9.72838
-9.73826
-9.74786
-9.75715
-9.76612
-9.77474
-9.783
-9.7909
-9.79841
-9.80554
-9.81229
-9.81865
-9.82462
-9.83021
-9.83541
-9.84023
-9.84467
-9.84872
-9.60691
-9.60655
-9.6067
-9.60953
-9.61513
-9.62218
-9.6301
-9.63889
-9.64846
-9.65852
-9.66884
-9.6793
-9.68978
-9.7002
-9.71048
-9.72056
-9.7304
-9.73996
-9.74921
-9.75812
-9.76669
-9.77489
-9.78271
-9.79015
-9.79721
-9.80387
-9.81014
-9.81601
-9.8215
-9.82661
-9.83135
-9.83573
-9.83977
-9.60298
-9.60079
-9.598
-9.6004
-9.60797
-9.6176
-9.62785
-9.63856
-9.64959
-9.66066
-9.67163
-9.68245
-9.69307
-9.70345
-9.71356
-9.72338
-9.73288
-9.74205
-9.75089
-9.75936
-9.76748
-9.77522
-9.78258
-9.78957
-9.79617
-9.80238
-9.80821
-9.81365
-9.81872
-9.8234
-9.8277
-9.83161
-9.83512
-9.60043
-9.59533
-9.58784
-9.58562
-9.58831
-9.59397
-9.60217
-9.61236
-9.6236
-9.63526
-9.64709
-9.65893
-9.67066
-9.68215
-9.69334
-9.70418
-9.71465
-9.72472
-9.73439
-9.74363
-9.75244
-9.76083
-9.76878
-9.77629
-9.78337
-9.79003
-9.79626
-9.80207
-9.80748
-9.81248
-9.8171
-9.82136
-9.82529
-9.60087
-9.58097
-9.58381
-9.60364
-9.62043
-9.63138
-9.64126
-9.65171
-9.66204
-9.67188
-9.6814
-9.69075
-9.69993
-9.7089
-9.71765
-9.72618
-9.73447
-9.7425
-9.75025
-9.75771
-9.76486
-9.77169
-9.7782
-9.78437
-9.7902
-9.79569
-9.80082
-9.80561
-9.81004
-9.81412
-9.81784
-9.82119
-9.82415
-9.63833
-9.51509
-9.452
-9.45567
-9.47806
-9.49981
-9.52114
-9.5429
-9.56405
-9.58393
-9.60254
-9.62
-9.63637
-9.65171
-9.66611
-9.67965
-9.69238
-9.70436
-9.71564
-9.72624
-9.7362
-9.74556
-9.75433
-9.76254
-9.7702
-9.77734
-9.78398
-9.79012
-9.79579
-9.80101
-9.80578
-9.81014
-9.8141
-9.79823
-9.81139
-9.77008
-9.72792
-9.70395
-9.69343
-9.68893
-9.68699
-9.68712
-9.68932
-9.69315
-9.69805
-9.70367
-9.70979
-9.71627
-9.72295
-9.72973
-9.73652
-9.74324
-9.74985
-9.75629
-9.76252
-9.76852
-9.77426
-9.77973
-9.7849
-9.78977
-9.79433
-9.79857
-9.80249
-9.80609
-9.80937
-9.81232
-8.63398
-8.93431
-9.19934
-9.32528
-9.39026
-9.44636
-9.49589
-9.53424
-9.56393
-9.58883
-9.61067
-9.62995
-9.64711
-9.6626
-9.67679
-9.68988
-9.70201
-9.7133
-9.72383
-9.73368
-9.74289
-9.7515
-9.75954
-9.76705
-9.77403
-9.78052
-9.78653
-9.79208
-9.79718
-9.80183
-9.80607
-9.80989
-9.81332
-10.2739
-10.1758
-10.2256
-10.2801
-10.3047
-10.32
-10.3311
-10.3358
-10.335
-10.3311
-10.3262
-10.3222
-10.321
-10.3238
-10.3319
-10.3459
-10.3661
-10.3924
-10.424
-10.4602
-10.4999
-10.5418
-10.5848
-10.6275
-10.6688
-10.7075
-10.7427
-10.7733
-10.7985
-10.8173
-10.8289
-10.8324
-10.8272
-10.8124
-10.7874
-10.7513
-10.7036
-10.6436
-10.5708
-10.4847
-10.385
-10.2714
-10.1436
-10.0016
-9.84535
-9.67489
-9.49044
-9.29231
-9.08091
-8.8568
-8.62065
-8.37327
-8.11557
-7.84858
-7.57344
-7.29136
-7.00363
-6.7116
-6.41664
-6.12013
-5.82348
-5.52804
-5.23513
-4.94601
-4.66185
-4.38375
-4.11267
-3.8495
-3.59498
-3.34974
-3.11427
-2.88895
-2.67405
-2.46972
-2.27603
-2.09293
-1.92033
-1.75804
-1.60579
-1.46327
-1.33013
-1.20596
-1.09034
-0.982845
-0.883013
-0.790402
-0.704568
-0.625076
-0.551501
-0.483436
-0.420471
-0.362238
-0.308285
-0.258371
-0.211658
-0.168718
-0.126312
-0.0906511
-0.0435115
-0.0296331
-10.2706
-10.2651
-10.2933
-10.3129
-10.3087
-10.2989
-10.2912
-10.2843
-10.2777
-10.2726
-10.2695
-10.2694
-10.2729
-10.2809
-10.2938
-10.3121
-10.3356
-10.3641
-10.397
-10.4336
-10.473
-10.5141
-10.5559
-10.5973
-10.6373
-10.6746
-10.7085
-10.7378
-10.7617
-10.7793
-10.7897
-10.7921
-10.7858
-10.7701
-10.7441
-10.7072
-10.6589
-10.5984
-10.5253
-10.4391
-10.3395
-10.2262
-10.0989
-9.95759
-9.80225
-9.63296
-9.4499
-9.25339
-9.04383
-8.82179
-8.58791
-8.34298
-8.08792
-7.82371
-7.55147
-7.27238
-6.98771
-6.69877
-6.40689
-6.11343
-5.81976
-5.52719
-5.23703
-4.95049
-4.66874
-4.39284
-4.12376
-3.86236
-3.60938
-3.36543
-3.13104
-2.90657
-2.6923
-2.4884
-2.29495
-2.11192
-1.93922
-1.77667
-1.62405
-1.48105
-1.34732
-1.22249
-1.10614
-0.997859
-0.897204
-0.80374
-0.717031
-0.63665
-0.562176
-0.493204
-0.429328
-0.370179
-0.315301
-0.264458
-0.21678
-0.172925
-0.129381
-0.0931848
-0.0435692
-0.0330928
-10.2289
-10.235
-10.2402
-10.253
-10.2604
-10.2645
-10.2686
-10.271
-10.2707
-10.2684
-10.2656
-10.2636
-10.2639
-10.2678
-10.2764
-10.2904
-10.3101
-10.3353
-10.3657
-10.4006
-10.4387
-10.4791
-10.5205
-10.5614
-10.6009
-10.6376
-10.6706
-10.6988
-10.7216
-10.7379
-10.7471
-10.7484
-10.741
-10.7242
-10.6974
-10.6598
-10.6108
-10.55
-10.4767
-10.3905
-10.291
-10.1781
-10.0515
-9.91103
-9.75681
-9.58887
-9.40741
-9.21273
-9.00524
-8.78549
-8.55411
-8.31188
-8.05967
-7.79847
-7.52936
-7.25348
-6.97207
-6.6864
-6.39778
-6.10752
-5.81697
-5.5274
-5.24009
-4.95623
-4.67697
-4.40334
-4.13631
-3.87672
-3.6253
-3.38268
-3.14937
-2.92576
-2.71212
-2.50864
-2.3154
-2.1324
-1.95957
-1.79674
-1.64369
-1.50014
-1.36577
-1.24021
-1.12307
-1.01394
-0.912395
-0.818008
-0.730355
-0.649014
-0.573572
-0.503626
-0.438771
-0.37864
-0.322773
-0.270935
-0.222238
-0.177396
-0.132697
-0.0958103
-0.0439215
-0.0362165
-10.2019
-10.2187
-10.2299
-10.2471
-10.2595
-10.2646
-10.2661
-10.2656
-10.2632
-10.26
-10.2575
-10.2568
-10.2588
-10.2644
-10.2742
-10.2884
-10.3072
-10.3304
-10.3577
-10.3886
-10.4221
-10.4576
-10.4941
-10.5305
-10.5659
-10.5991
-10.6293
-10.6553
-10.6762
-10.6912
-10.6992
-10.6994
-10.6912
-10.6737
-10.6462
-10.608
-10.5587
-10.4976
-10.4243
-10.3382
-10.2392
-10.1268
-10.001
-9.86167
-9.70876
-9.54238
-9.36273
-9.1701
-8.9649
-8.74764
-8.51898
-8.27964
-8.03049
-7.77248
-7.50667
-7.23416
-6.95617
-6.67392
-6.38868
-6.10176
-5.81443
-5.52798
-5.24362
-4.96254
-4.68585
-4.41458
-4.14968
-3.89197
-3.64219
-3.40096
-3.16879
-2.94608
-2.73311
-2.53008
-2.33708
-2.15412
-1.98115
-1.81803
-1.66454
-1.52042
-1.38538
-1.25905
-1.14107
-1.03104
-0.928548
-0.833181
-0.744522
-0.66216
-0.585686
-0.514702
-0.448804
-0.387626
-0.330707
-0.277812
-0.22804
-0.182139
-0.136263
-0.0985451
-0.0445797
-0.0389651
-10.1824
-10.2017
-10.2141
-10.2274
-10.2372
-10.2417
-10.2439
-10.2452
-10.2456
-10.2454
-10.2456
-10.247
-10.2505
-10.2567
-10.2664
-10.2801
-10.2978
-10.3196
-10.3452
-10.3741
-10.4055
-10.4387
-10.4725
-10.5062
-10.5385
-10.5686
-10.5954
-10.6181
-10.6358
-10.6477
-10.6529
-10.6507
-10.6404
-10.6211
-10.5923
-10.5531
-10.5031
-10.4416
-10.3681
-10.2822
-10.1836
-10.072
-9.94714
-9.809
-9.65755
-9.49289
-9.31521
-9.12478
-8.92202
-8.70742
-8.48161
-8.24532
-7.99937
-7.7447
-7.48231
-7.21331
-6.93886
-6.66015
-6.37844
-6.09497
-5.81101
-5.52779
-5.24652
-4.96835
-4.69437
-4.42559
-4.16294
-3.90725
-3.65923
-3.41951
-3.1886
-2.96689
-2.75468
-2.55218
-2.3595
-2.17665
-2.0036
-1.84021
-1.68631
-1.54165
-1.40593
-1.27884
-1.16
-1.04904
-0.945572
-0.849186
-0.759478
-0.676045
-0.598486
-0.526409
-0.459412
-0.397129
-0.339099
-0.285087
-0.234185
-0.18716
-0.140085
-0.101393
-0.0455791
-0.0412674
-10.1647
-10.1841
-10.1977
-10.2102
-10.2205
-10.2272
-10.2313
-10.2341
-10.2357
-10.2365
-10.2375
-10.2395
-10.2434
-10.2498
-10.2593
-10.2724
-10.2891
-10.3093
-10.3329
-10.3594
-10.388
-10.4181
-10.4487
-10.4791
-10.5082
-10.5351
-10.5589
-10.5788
-10.5939
-10.6033
-10.6063
-10.6019
-10.5896
-10.5686
-10.5382
-10.4977
-10.4466
-10.3843
-10.3104
-10.2243
-10.1259
-10.0147
-9.89061
-9.75355
-9.60348
-9.44049
-9.26475
-9.07655
-8.87625
-8.66436
-8.44148
-8.2083
-7.96564
-7.71439
-7.45554
-7.19016
-6.91937
-6.64434
-6.36628
-6.0864
-5.80594
-5.52611
-5.24807
-4.97295
-4.70183
-4.43569
-4.17544
-3.9219
-3.67579
-3.43771
-3.20818
-2.9876
-2.77627
-2.57441
-2.38214
-2.1995
-2.02645
-1.86289
-1.70864
-1.56348
-1.42714
-1.2993
-1.17963
-1.06776
-0.963307
-0.865889
-0.775112
-0.690581
-0.611903
-0.538692
-0.470551
-0.407114
-0.347925
-0.292741
-0.240662
-0.192448
-0.144156
-0.104354
-0.0469457
-0.0430622
-10.1489
-10.1677
-10.1819
-10.1942
-10.2045
-10.2118
-10.2167
-10.2202
-10.2227
-10.2247
-10.2268
-10.2299
-10.2345
-10.2414
-10.2509
-10.2635
-10.2792
-10.298
-10.3197
-10.3439
-10.3699
-10.3972
-10.4248
-10.4521
-10.478
-10.5018
-10.5225
-10.5394
-10.5515
-10.5581
-10.5585
-10.5518
-10.5373
-10.5143
-10.4822
-10.4404
-10.3882
-10.3251
-10.2507
-10.1644
-10.0661
-9.95531
-9.83196
-9.69593
-9.5472
-9.38584
-9.21203
-9.02602
-8.8282
-8.61903
-8.39909
-8.16908
-7.92976
-7.682
-7.42678
-7.1651
-6.89807
-6.62682
-6.35252
-6.07636
-5.79952
-5.52319
-5.2485
-4.97656
-4.7084
-4.44501
-4.18727
-3.93598
-3.69186
-3.45551
-3.22744
-3.00807
-2.7977
-2.59656
-2.40477
-2.2224
-2.04942
-1.88574
-1.73121
-1.58561
-1.44869
-1.32016
-1.1997
-1.08694
-0.981536
-0.883104
-0.791263
-0.705631
-0.625822
-0.551457
-0.482145
-0.417523
-0.357135
-0.300738
-0.247439
-0.197985
-0.14846
-0.107422
-0.0486853
-0.0443148
-10.134
-10.1519
-10.1663
-10.1785
-10.1888
-10.1967
-10.2024
-10.2068
-10.2103
-10.2132
-10.2163
-10.2202
-10.2254
-10.2324
-10.2418
-10.2538
-10.2685
-10.2859
-10.3058
-10.3277
-10.3513
-10.3758
-10.4006
-10.4248
-10.4477
-10.4684
-10.4861
-10.5
-10.5092
-10.5131
-10.5109
-10.5018
-10.4851
-10.4602
-10.4263
-10.383
-10.3296
-10.2656
-10.1905
-10.104
-10.0056
-9.89516
-9.77247
-9.63741
-9.48997
-9.33022
-9.15831
-8.9745
-8.77916
-8.57273
-8.35577
-8.12896
-7.89303
-7.64883
-7.39728
-7.13938
-6.87617
-6.60877
-6.3383
-6.06591
-5.79276
-5.51999
-5.24871
-4.97999
-4.71485
-4.45424
-4.19905
-3.95004
-3.70794
-3.47335
-3.24677
-3.02863
-2.81923
-2.61882
-2.42753
-2.24545
-2.07255
-1.90877
-1.75396
-1.60794
-1.47047
-1.34127
-1.22003
-1.10641
-1.00007
-0.900644
-0.807756
-0.721033
-0.640098
-0.564578
-0.494086
-0.428263
-0.366656
-0.309018
-0.254471
-0.203733
-0.152965
-0.110586
-0.0507787
-0.0450261
-10.1198
-10.1368
-10.1511
-10.1632
-10.1735
-10.1818
-10.1882
-10.1933
-10.1976
-10.2014
-10.2052
-10.2097
-10.2153
-10.2225
-10.2317
-10.243
-10.2567
-10.2728
-10.2909
-10.3107
-10.3319
-10.3538
-10.3758
-10.3971
-10.417
-10.4348
-10.4495
-10.4605
-10.467
-10.4683
-10.4635
-10.4521
-10.4333
-10.4064
-10.3709
-10.3261
-10.2715
-10.2065
-10.1308
-10.044
-9.94562
-9.8355
-9.71344
-9.57935
-9.43318
-9.27501
-9.105
-8.92339
-8.73051
-8.52682
-8.31285
-8.08924
-7.8567
-7.61606
-7.36819
-7.11406
-6.85469
-6.59114
-6.3245
-6.05588
-5.78641
-5.51719
-5.24931
-4.98381
-4.72168
-4.46385
-4.21118
-3.96446
-3.72438
-3.49153
-3.26644
-3.04951
-2.84109
-2.6414
-2.45061
-2.2688
-2.09598
-1.93209
-1.777
-1.63055
-1.49252
-1.36264
-1.24062
-1.12613
-1.01885
-0.918427
-0.824489
-0.736675
-0.654614
-0.577937
-0.506263
-0.439231
-0.376395
-0.317502
-0.26169
-0.209642
-0.157625
-0.113824
-0.0531763
-0.0452382
-10.106
-10.1223
-10.1363
-10.1482
-10.1585
-10.1671
-10.174
-10.1798
-10.1847
-10.1892
-10.1937
-10.1986
-10.2045
-10.2117
-10.2206
-10.2314
-10.2441
-10.2587
-10.2751
-10.293
-10.3119
-10.3312
-10.3505
-10.3691
-10.3861
-10.4009
-10.4128
-10.4211
-10.4249
-10.4235
-10.4163
-10.4026
-10.3817
-10.353
-10.3158
-10.2696
-10.2139
-10.1481
-10.0718
-9.98466
-9.88633
-9.77655
-9.65516
-9.52203
-9.37716
-9.22059
-9.05247
-8.87305
-8.68264
-8.48168
-8.27068
-8.05024
-7.82108
-7.58396
-7.33975
-7.08937
-6.83379
-6.57405
-6.31121
-6.04633
-5.78051
-5.51482
-5.25031
-4.988
-4.72885
-4.47379
-4.22364
-3.97919
-3.74111
-3.51002
-3.2864
-3.0707
-2.86325
-2.66429
-2.474
-2.29247
-2.11972
-1.95572
-1.80036
-1.65348
-1.51488
-1.38431
-1.26149
-1.14613
-1.0379
-0.936459
-0.841456
-0.752536
-0.669334
-0.591486
-0.518615
-0.450363
-0.386284
-0.326122
-0.269031
-0.215655
-0.162389
-0.117103
-0.0557976
-0.0450352
-10.0927
-10.1082
-10.1218
-10.1336
-10.1438
-10.1526
-10.1599
-10.1661
-10.1716
-10.1766
-10.1816
-10.187
-10.193
-10.2002
-10.2087
-10.2188
-10.2305
-10.2438
-10.2586
-10.2745
-10.2911
-10.3081
-10.3248
-10.3406
-10.3549
-10.3669
-10.3761
-10.3816
-10.3827
-10.3789
-10.3693
-10.3534
-10.3304
-10.2999
-10.2611
-10.2136
-10.1567
-10.0901
-10.0133
-9.92593
-9.82765
-9.71824
-9.59752
-9.46539
-9.32181
-9.16684
-9.00062
-8.82338
-8.63543
-8.43718
-8.22912
-8.01184
-7.78602
-7.5524
-7.3118
-7.06512
-6.81331
-6.55735
-6.29826
-6.03709
-5.77488
-5.51269
-5.25152
-4.99237
-4.7362
-4.48388
-4.23624
-3.99405
-3.75798
-3.52863
-3.30651
-3.09204
-2.88556
-2.68734
-2.49756
-2.31632
-2.14367
-1.97957
-1.82394
-1.67664
-1.53747
-1.40622
-1.28262
-1.16638
-1.05719
-0.954732
-0.858655
-0.768615
-0.684257
-0.605222
-0.531136
-0.461643
-0.396304
-0.334852
-0.276467
-0.22174
-0.167222
-0.120402
-0.0585506
-0.0445395
-10.0797
-10.0945
-10.1076
-10.1192
-10.1294
-10.1383
-10.1459
-10.1525
-10.1583
-10.1638
-10.1691
-10.1747
-10.1809
-10.1879
-10.196
-10.2054
-10.2161
-10.2281
-10.2412
-10.2552
-10.2698
-10.2844
-10.2986
-10.3118
-10.3234
-10.3328
-10.3392
-10.3421
-10.3407
-10.3344
-10.3225
-10.3044
-10.2795
-10.2472
-10.2068
-10.158
-10.1001
-10.0327
-9.95535
-9.86774
-9.76954
-9.66051
-9.54048
-9.40933
-9.26705
-9.11367
-8.94934
-8.77427
-8.58875
-8.39319
-8.18805
-7.9739
-7.75138
-7.52121
-7.28419
-7.04118
-6.79309
-6.54086
-6.28549
-6.02799
-5.76937
-5.51064
-5.25279
-4.99679
-4.74356
-4.49398
-4.24885
-4.00891
-3.77485
-3.54725
-3.32662
-3.11338
-2.9079
-2.71043
-2.52117
-2.34025
-2.1677
-2.00352
-1.84763
-1.69992
-1.56021
-1.42829
-1.30391
-1.1868
-1.07666
-0.973185
-0.876035
-0.784874
-0.699355
-0.619124
-0.543813
-0.473067
-0.406451
-0.343693
-0.283997
-0.227898
-0.17212
-0.123725
-0.0613627
-0.0439008
-10.067
-10.0811
-10.0938
-10.1051
-10.1152
-10.1241
-10.1319
-10.1387
-10.1449
-10.1506
-10.1562
-10.1619
-10.1681
-10.1749
-10.1826
-10.1912
-10.2009
-10.2116
-10.2232
-10.2354
-10.2478
-10.2602
-10.272
-10.2827
-10.2917
-10.2985
-10.3023
-10.3026
-10.2987
-10.29
-10.2759
-10.2557
-10.2289
-10.1948
-10.153
-10.1029
-10.0439
-9.97575
-9.89793
-9.81011
-9.712
-9.60335
-9.484
-9.35384
-9.21284
-9.06105
-8.89859
-8.72566
-8.54256
-8.34965
-8.14739
-7.93633
-7.71708
-7.49033
-7.25685
-7.01746
-6.77304
-6.52451
-6.27283
-6.01896
-5.76388
-5.50859
-5.25404
-5.00117
-4.75087
-4.50401
-4.26137
-4.02369
-3.79163
-3.56578
-3.34665
-3.13467
-2.93019
-2.73348
-2.54476
-2.36416
-2.19173
-2.02748
-1.87135
-1.72325
-1.583
-1.45042
-1.32528
-1.20731
-1.09623
-0.991746
-0.893528
-0.80125
-0.714571
-0.633144
-0.556604
-0.484599
-0.416701
-0.352628
-0.291611
-0.234128
-0.177082
-0.127085
-0.0641857
-0.043264
-10.0546
-10.068
-10.0802
-10.0913
-10.1012
-10.11
-10.1179
-10.1249
-10.1313
-10.1372
-10.1429
-10.1487
-10.1547
-10.1613
-10.1684
-10.1763
-10.185
-10.1945
-10.2045
-10.2149
-10.2254
-10.2356
-10.2451
-10.2534
-10.2599
-10.2641
-10.2654
-10.2632
-10.257
-10.2459
-10.2296
-10.2074
-10.1787
-10.143
-10.0996
-10.0482
-9.98831
-9.91939
-9.84109
-9.75307
-9.65505
-9.54679
-9.42812
-9.29894
-9.15921
-9.00898
-8.84837
-8.67756
-8.49683
-8.30654
-8.10714
-7.89912
-7.68309
-7.45972
-7.22973
-6.99392
-6.75314
-6.50826
-6.26022
-6.00994
-5.75839
-5.5065
-5.25522
-5.00545
-4.75807
-4.51391
-4.27376
-4.03834
-3.80828
-3.58419
-3.36656
-3.15584
-2.95237
-2.75644
-2.56827
-2.388
-2.21571
-2.05141
-1.89506
-1.74657
-1.6058
-1.47258
-1.34668
-1.22786
-1.11585
-1.01036
-0.911078
-0.817686
-0.72985
-0.647228
-0.56946
-0.496196
-0.427012
-0.361621
-0.299281
-0.240408
-0.182091
-0.130482
-0.0669791
-0.0427318
-10.0424
-10.0551
-10.0669
-10.0776
-10.0873
-10.0961
-10.104
-10.111
-10.1175
-10.1235
-10.1293
-10.135
-10.1408
-10.147
-10.1536
-10.1608
-10.1685
-10.1766
-10.1852
-10.1939
-10.2025
-10.2106
-10.2179
-10.2238
-10.2279
-10.2297
-10.2286
-10.224
-10.2154
-10.2021
-10.1837
-10.1595
-10.1289
-10.0915
-10.0468
-9.99419
-9.93327
-9.86362
-9.78486
-9.69666
-9.59873
-9.49085
-9.37286
-9.24464
-9.10617
-8.95748
-8.79869
-8.62997
-8.45159
-8.26389
-8.06728
-7.86227
-7.64942
-7.42937
-7.20283
-6.97056
-6.73336
-6.49209
-6.24765
-6.00093
-5.75285
-5.50434
-5.25629
-5.0096
-4.76512
-4.52367
-4.28599
-4.05281
-3.82476
-3.60243
-3.38631
-3.17685
-2.9744
-2.77927
-2.59166
-2.41174
-2.2396
-2.07526
-1.9187
-1.76985
-1.62857
-1.49471
-1.36807
-1.24841
-1.13547
-1.02899
-0.928646
-0.834144
-0.745152
-0.661336
-0.582341
-0.507816
-0.437347
-0.370637
-0.306971
-0.246708
-0.187115
-0.133898
-0.0697031
-0.0423545
-10.0303
-10.0425
-10.0538
-10.0642
-10.0737
-10.0823
-10.0901
-10.0971
-10.1036
-10.1096
-10.1153
-10.1209
-10.1265
-10.1322
-10.1383
-10.1446
-10.1513
-10.1582
-10.1653
-10.1724
-10.1791
-10.1852
-10.1904
-10.1941
-10.1959
-10.1953
-10.1918
-10.1849
-10.174
-10.1586
-10.1381
-10.1119
-10.0796
-10.0407
-9.99451
-9.94073
-9.87886
-9.80851
-9.7293
-9.64092
-9.54309
-9.43559
-9.31826
-9.191
-9.05377
-8.9066
-8.74959
-8.58293
-8.40686
-8.2217
-8.02786
-7.8258
-7.61608
-7.39931
-7.17616
-6.94737
-6.71371
-6.476
-6.23511
-5.9919
-5.74727
-5.50209
-5.25726
-5.01362
-4.77202
-4.53324
-4.29803
-4.06708
-3.84104
-3.62046
-3.40586
-3.19767
-2.99626
-2.80193
-2.6149
-2.43534
-2.26336
-2.099
-1.94225
-1.79304
-1.65127
-1.51679
-1.38941
-1.26892
-1.15507
-1.04759
-0.946202
-0.850594
-0.76045
-0.675442
-0.595219
-0.519434
-0.447678
-0.379649
-0.314657
-0.253004
-0.192128
-0.137317
-0.0723286
-0.0421447
-10.0185
-10.0301
-10.0409
-10.0509
-10.0601
-10.0685
-10.0762
-10.0831
-10.0895
-10.0954
-10.101
-10.1064
-10.1117
-10.117
-10.1224
-10.1279
-10.1336
-10.1393
-10.145
-10.1504
-10.1554
-10.1596
-10.1626
-10.1642
-10.1638
-10.161
-10.1552
-10.1461
-10.133
-10.1155
-10.0929
-10.0649
-10.0309
-9.99037
-9.94286
-9.88793
-9.82514
-9.7541
-9.67446
-9.58591
-9.48818
-9.38106
-9.26438
-9.13806
-9.00204
-8.85637
-8.70112
-8.53648
-8.36267
-8.18001
-7.98888
-7.78974
-7.58309
-7.36955
-7.14973
-6.92437
-6.69419
-6.46
-6.22261
-5.98286
-5.74163
-5.49975
-5.25809
-5.01748
-4.77873
-4.54261
-4.30985
-4.08113
-3.85708
-3.63827
-3.42518
-3.21827
-3.0179
-2.82438
-2.63794
-2.45877
-2.28696
-2.12259
-1.96566
-1.81612
-1.67387
-1.53878
-1.41068
-1.28937
-1.17461
-1.06616
-0.963719
-0.86701
-0.775719
-0.689521
-0.608073
-0.531029
-0.457986
-0.388638
-0.322319
-0.259279
-0.197111
-0.140725
-0.0748437
-0.0420952
-10.0067
-10.0178
-10.0282
-10.0378
-10.0467
-10.0549
-10.0623
-10.0691
-10.0754
-10.0811
-10.0865
-10.0916
-10.0965
-10.1013
-10.106
-10.1107
-10.1154
-10.1199
-10.1242
-10.1281
-10.1314
-10.1337
-10.1348
-10.1342
-10.1317
-10.1267
-10.1188
-10.1075
-10.0923
-10.0727
-10.0483
-10.0184
-9.98274
-9.94071
-9.89189
-9.83584
-9.77216
-9.70046
-9.6204
-9.53169
-9.43406
-9.32731
-9.21128
-9.08588
-8.95106
-8.80684
-8.65333
-8.49066
-8.31908
-8.13887
-7.95041
-7.75411
-7.55049
-7.34011
-7.12358
-6.90158
-6.67483
-6.44409
-6.21015
-5.97382
-5.73593
-5.49732
-5.2588
-5.02118
-4.78525
-4.55176
-4.32144
-4.09493
-3.87287
-3.65581
-3.44425
-3.23862
-3.0393
-2.8466
-2.66076
-2.48198
-2.31037
-2.14601
-1.98891
-1.83904
-1.69633
-1.56065
-1.43185
-1.30973
-1.19407
-1.08464
-0.981171
-0.883369
-0.790936
-0.703553
-0.620883
-0.542583
-0.468256
-0.397591
-0.329945
-0.265522
-0.202052
-0.144114
-0.07725
-0.0421894
-9.99518
-10.0057
-10.0156
-10.0249
-10.0334
-10.0413
-10.0485
-10.0551
-10.0611
-10.0666
-10.0717
-10.0765
-10.0809
-10.0852
-10.0892
-10.0931
-10.0968
-10.1001
-10.1031
-10.1055
-10.1071
-10.1076
-10.1068
-10.1043
-10.0997
-10.0926
-10.0826
-10.0692
-10.052
-10.0304
-10.0041
-9.97254
-9.93524
-9.89176
-9.84167
-9.78454
-9.71999
-9.64765
-9.56719
-9.47833
-9.3808
-9.27442
-9.15902
-9.03452
-8.90087
-8.75808
-8.60626
-8.44554
-8.27613
-8.09832
-7.91247
-7.71897
-7.51831
-7.31103
-7.09772
-6.87903
-6.65564
-6.4283
-6.19775
-5.96478
-5.7302
-5.49479
-5.25936
-5.0247
-4.79156
-4.56069
-4.33277
-4.10847
-3.88839
-3.67307
-3.46303
-3.25868
-3.06042
-2.86855
-2.68332
-2.50494
-2.33354
-2.1692
-2.01195
-1.86178
-1.71862
-1.58236
-1.45286
-1.32995
-1.21342
-1.10303
-0.998528
-0.899642
-0.806075
-0.717514
-0.633628
-0.554078
-0.47847
-0.406492
-0.337523
-0.271722
-0.206945
-0.147479
-0.0795568
-0.042405
-9.98375
-9.9938
-10.0032
-10.0121
-10.0203
-10.0278
-10.0347
-10.041
-10.0468
-10.052
-10.0568
-10.0611
-10.0651
-10.0688
-10.0721
-10.0751
-10.0778
-10.08
-10.0817
-10.0826