/*--------------------------------*- C++ -*----------------------------------*\
| =========                 |                                                 |
| \\      /  F ield         | OpenFOAM: The Open Source CFD Toolbox           |
|  \\    /   O peration     | Version:  4.1                                   |
|   \\  /    A nd           | Web:      www.OpenFOAM.org                      |
|    \\/     M anipulation  |                                                 |
\*---------------------------------------------------------------------------*/
FoamFile
{
    version     2.0;
    format      ascii;
    class       volScalarField;
    location    "2000";
    object      k;
}
// * * * * * * * * * * * * * * * * * * * * * * * * * * * * * * * * * * * * * //

dimensions      [0 2 -2 0 0 0 0];

internalField   nonuniform List<scalar> 
6820
(
0.257082
0.434211
0.59852
0.709382
0.778145
0.818049
0.838547
0.845896
0.844371
0.836963
0.825767
0.812247
0.797426
0.782015
0.766498
0.751201
0.736336
0.722036
0.708378
0.6954
0.683115
0.671515
0.660583
0.650294
0.640616
0.631518
0.622963
0.614924
0.607339
0.600295
0.593189
0.588695
0.574467
0.811277
1.44613
1.51874
1.38792
1.22323
1.07762
0.95922
0.864569
0.788642
0.727157
0.676842
0.635256
0.600578
0.571431
0.546763
0.525758
0.507776
0.49231
0.478954
0.467377
0.45731
0.448532
0.440859
0.434138
0.428241
0.423059
0.418502
0.414494
0.410968
0.407891
0.405164
0.402958
0.400711
0.368869
0.66416
0.797428
0.829397
0.816589
0.786286
0.750411
0.713991
0.679045
0.646311
0.616001
0.588103
0.562514
0.539088
0.517663
0.498078
0.480173
0.4638
0.44882
0.435107
0.422543
0.411025
0.400456
0.390751
0.381831
0.373626
0.366073
0.359115
0.352701
0.346788
0.341329
0.336304
0.331654
0.240027
0.336287
0.412169
0.460222
0.487105
0.500012
0.504037
0.502508
0.497533
0.490424
0.482012
0.472847
0.463295
0.453611
0.443967
0.434484
0.425242
0.416295
0.407676
0.399404
0.39149
0.383933
0.376731
0.369875
0.363356
0.357161
0.351278
0.345693
0.340393
0.335363
0.330591
0.326066
0.321766
0.214145
0.250649
0.284542
0.31208
0.332947
0.348027
0.358469
0.365345
0.369529
0.371681
0.372296
0.371745
0.370308
0.368203
0.365595
0.362617
0.359369
0.355934
0.352375
0.348743
0.345078
0.341412
0.33777
0.334171
0.33063
0.327158
0.323765
0.320457
0.317237
0.31411
0.311077
0.30814
0.305299
0.20564
0.221937
0.238617
0.25366
0.26644
0.276904
0.285273
0.29185
0.296935
0.300784
0.303614
0.305602
0.306896
0.307616
0.307861
0.307715
0.307247
0.306514
0.305564
0.304439
0.303172
0.301793
0.300325
0.29879
0.297204
0.295583
0.293939
0.292283
0.290623
0.288967
0.287321
0.285691
0.284083
0.202357
0.210378
0.219404
0.228106
0.235957
0.242783
0.248605
0.253515
0.257621
0.261027
0.263824
0.266097
0.267914
0.269339
0.270426
0.271218
0.271758
0.272079
0.272212
0.272183
0.272013
0.271725
0.271334
0.270855
0.270304
0.26969
0.269024
0.268315
0.267572
0.2668
0.266007
0.265198
0.264378
0.201008
0.2051
0.210232
0.215526
0.22054
0.225078
0.229098
0.232622
0.235689
0.238346
0.240635
0.242597
0.244268
0.245681
0.246866
0.247847
0.248648
0.249289
0.249788
0.250162
0.250425
0.25059
0.250668
0.250669
0.250602
0.250476
0.250298
0.250075
0.249812
0.249514
0.249188
0.248837
0.248465
0.200424
0.202508
0.205459
0.208754
0.21204
0.21513
0.217953
0.220495
0.222768
0.224789
0.226579
0.228159
0.229548
0.230765
0.231826
0.232746
0.23354
0.23422
0.234797
0.235281
0.235681
0.236006
0.236263
0.236459
0.2366
0.236691
0.236739
0.236747
0.236719
0.236661
0.236574
0.236463
0.236332
0.200163
0.201193
0.202864
0.204904
0.207067
0.20919
0.211193
0.213044
0.214736
0.216272
0.217659
0.218908
0.220029
0.221031
0.221926
0.222722
0.223428
0.224051
0.224599
0.225079
0.225496
0.225856
0.226165
0.226425
0.226643
0.226822
0.226965
0.227076
0.227158
0.227213
0.227245
0.227255
0.227247
0.200044
0.20052
0.201431
0.202661
0.20406
0.205505
0.206921
0.208268
0.209528
0.210694
0.211766
0.212747
0.213641
0.214454
0.215192
0.215859
0.21646
0.217002
0.217488
0.217924
0.218312
0.218657
0.218963
0.219232
0.219467
0.219672
0.219848
0.219999
0.220126
0.220232
0.220318
0.220387
0.22044
0.199989
0.200177
0.20064
0.201347
0.20222
0.203178
0.204159
0.205125
0.206054
0.206932
0.207754
0.208519
0.209227
0.209879
0.210478
0.211028
0.21153
0.211989
0.212406
0.212786
0.21313
0.213441
0.213722
0.213975
0.214201
0.214404
0.214584
0.214744
0.214885
0.215009
0.215117
0.21521
0.215291
0.199965
0.200004
0.200209
0.200585
0.201099
0.201706
0.202361
0.203034
0.203702
0.204351
0.204971
0.205559
0.206111
0.206627
0.207107
0.207553
0.207966
0.208347
0.208698
0.209021
0.209317
0.209589
0.209837
0.210063
0.21027
0.210457
0.210627
0.210781
0.21092
0.211046
0.211158
0.211259
0.211349
0.199954
0.199918
0.199979
0.20015
0.200426
0.200784
0.201198
0.201645
0.202107
0.20257
0.203025
0.203465
0.203886
0.204286
0.204664
0.205019
0.205352
0.205662
0.205951
0.20622
0.206469
0.2067
0.206913
0.20711
0.207291
0.207458
0.207612
0.207752
0.207881
0.207999
0.208108
0.208206
0.208296
0.199949
0.199877
0.199858
0.199908
0.20003
0.200217
0.200456
0.200733
0.201034
0.201348
0.201667
0.201984
0.202294
0.202594
0.202883
0.203158
0.203419
0.203665
0.203898
0.204116
0.204321
0.204512
0.20469
0.204857
0.205011
0.205155
0.205289
0.205413
0.205528
0.205634
0.205733
0.205824
0.205909
0.199947
0.199857
0.199796
0.199776
0.199803
0.199877
0.199994
0.200145
0.200323
0.20052
0.200729
0.200944
0.20116
0.201375
0.201586
0.201791
0.201988
0.202178
0.202358
0.20253
0.202693
0.202846
0.202991
0.203127
0.203256
0.203376
0.203489
0.203594
0.203693
0.203785
0.203872
0.203953
0.204029
0.199947
0.199847
0.199764
0.199706
0.199676
0.199679
0.199713
0.199776
0.199863
0.19997
0.200092
0.200224
0.200363
0.200506
0.200651
0.200794
0.200936
0.201074
0.201208
0.201337
0.201461
0.201579
0.201692
0.2018
0.201902
0.201999
0.202091
0.202177
0.202259
0.202337
0.20241
0.202479
0.202545
0.199946
0.199843
0.199749
0.199669
0.199608
0.199567
0.199548
0.19955
0.199573
0.199614
0.199669
0.199737
0.199814
0.199898
0.199986
0.200078
0.20017
0.200264
0.200356
0.200447
0.200536
0.200622
0.200705
0.200786
0.200864
0.200938
0.201009
0.201077
0.201142
0.201205
0.201264
0.201321
0.201375
0.199946
0.199841
0.199742
0.199651
0.199571
0.199505
0.199453
0.199417
0.199396
0.199389
0.199396
0.199415
0.199444
0.19948
0.199523
0.199572
0.199624
0.199678
0.199735
0.199792
0.199849
0.199907
0.199964
0.20002
0.200074
0.200128
0.20018
0.20023
0.200279
0.200326
0.200372
0.200417
0.200459
0.199946
0.19984
0.199739
0.199642
0.199553
0.199471
0.1994
0.19934
0.19929
0.199252
0.199225
0.199209
0.199201
0.199202
0.199209
0.199223
0.199242
0.199265
0.199291
0.19932
0.199351
0.199383
0.199416
0.19945
0.199485
0.199519
0.199554
0.199588
0.199622
0.199655
0.199688
0.199721
0.199753
0.199946
0.19984
0.199737
0.199638
0.199543
0.199454
0.199372
0.199297
0.19923
0.199172
0.199122
0.199081
0.199048
0.199022
0.199003
0.198991
0.198984
0.198982
0.198984
0.198989
0.198998
0.19901
0.199023
0.199039
0.199056
0.199074
0.199093
0.199113
0.199134
0.199156
0.199177
0.199199
0.199221
0.199946
0.19984
0.199736
0.199635
0.199538
0.199445
0.199356
0.199273
0.199196
0.199125
0.199061
0.199004
0.198954
0.198911
0.198873
0.198842
0.198817
0.198796
0.19878
0.198768
0.19876
0.198755
0.198753
0.198754
0.198757
0.198763
0.19877
0.198778
0.198788
0.198799
0.198812
0.198825
0.198839
0.199946
0.19984
0.199736
0.199634
0.199536
0.19944
0.199349
0.199261
0.199178
0.1991
0.199028
0.198962
0.198901
0.198846
0.198798
0.198754
0.198716
0.198683
0.198655
0.198631
0.198611
0.198595
0.198583
0.198573
0.198567
0.198562
0.198561
0.198561
0.198563
0.198567
0.198572
0.198578
0.198586
0.199946
0.19984
0.199735
0.199634
0.199534
0.199438
0.199345
0.199255
0.19917
0.199089
0.199013
0.198942
0.198876
0.198816
0.198761
0.198711
0.198667
0.198628
0.198593
0.198563
0.198537
0.198514
0.198496
0.198481
0.198468
0.198459
0.198452
0.198447
0.198445
0.198444
0.198446
0.198448
0.198453
0.199946
0.19984
0.199735
0.199633
0.199534
0.199437
0.199344
0.199254
0.199168
0.199087
0.19901
0.198939
0.198873
0.198812
0.198756
0.198706
0.198661
0.198621
0.198586
0.198554
0.198528
0.198505
0.198485
0.198469
0.198456
0.198446
0.198438
0.198433
0.198429
0.198428
0.198428
0.19843
0.198433
0.199946
0.19984
0.199735
0.199634
0.199534
0.199438
0.199346
0.199257
0.199174
0.199095
0.199022
0.198954
0.198892
0.198836
0.198785
0.19874
0.1987
0.198665
0.198635
0.198609
0.198587
0.198569
0.198554
0.198542
0.198533
0.198527
0.198523
0.198521
0.19852
0.198522
0.198524
0.198529
0.198534
0.199946
0.19984
0.199736
0.199635
0.199537
0.199442
0.199353
0.199269
0.19919
0.199118
0.199053
0.198995
0.198943
0.198898
0.198858
0.198825
0.198797
0.198774
0.198756
0.198741
0.19873
0.198723
0.198718
0.198716
0.198716
0.198718
0.198722
0.198728
0.198734
0.198742
0.19875
0.19876
0.19877
0.199946
0.19984
0.199737
0.199637
0.199542
0.199453
0.19937
0.199295
0.199228
0.19917
0.199121
0.199079
0.199046
0.19902
0.199001
0.198988
0.19898
0.198977
0.198978
0.198982
0.198989
0.198998
0.19901
0.199023
0.199037
0.199052
0.199068
0.199085
0.199102
0.199119
0.199136
0.199153
0.199171
0.199946
0.199841
0.19974
0.199645
0.199557
0.199478
0.19941
0.199354
0.199309
0.199277
0.199255
0.199244
0.199241
0.199247
0.199259
0.199277
0.199299
0.199325
0.199353
0.199384
0.199416
0.199448
0.199481
0.199514
0.199547
0.199579
0.199611
0.199642
0.199672
0.199701
0.199729
0.199756
0.199782
0.199947
0.199844
0.199749
0.199664
0.199592
0.199537
0.199499
0.19948
0.199477
0.199489
0.199515
0.199553
0.199599
0.199652
0.19971
0.199772
0.199836
0.199901
0.199965
0.20003
0.200092
0.200154
0.200213
0.20027
0.200324
0.200376
0.200426
0.200473
0.200518
0.20056
0.200599
0.200637
0.200672
0.199948
0.199852
0.19977
0.199711
0.199677
0.199673
0.199697
0.199746
0.199818
0.199907
0.20001
0.200122
0.200239
0.20036
0.20048
0.2006
0.200717
0.20083
0.200939
0.201043
0.201141
0.201234
0.201322
0.201405
0.201482
0.201554
0.201622
0.201685
0.201743
0.201797
0.201847
0.201894
0.201937
0.199951
0.199872
0.199828
0.199831
0.199884
0.199985
0.200128
0.200302
0.200499
0.20071
0.200928
0.201146
0.201361
0.201569
0.201768
0.201958
0.202136
0.202304
0.20246
0.202605
0.20274
0.202865
0.20298
0.203087
0.203184
0.203274
0.203356
0.203431
0.2035
0.203562
0.203619
0.203671
0.203718
0.19996
0.199932
0.199988
0.200141
0.200383
0.200695
0.201055
0.20144
0.201833
0.202222
0.202597
0.202954
0.203288
0.203598
0.203885
0.204149
0.20439
0.204611
0.204811
0.204994
0.205159
0.205309
0.205444
0.205567
0.205677
0.205777
0.205866
0.205946
0.206017
0.20608
0.206137
0.206186
0.20623
0.19999
0.200113
0.200438
0.200945
0.201582
0.202288
0.203012
0.20372
0.20439
0.205011
0.205578
0.206091
0.206552
0.206965
0.207333
0.207661
0.207953
0.208212
0.208442
0.208646
0.208826
0.208985
0.209126
0.209249
0.209357
0.209451
0.209533
0.209603
0.209664
0.209715
0.209757
0.209792
0.20982
0.200097
0.200698
0.201729
0.20303
0.20443
0.205804
0.207078
0.208222
0.209229
0.210107
0.210866
0.211521
0.212084
0.212568
0.212984
0.213341
0.213647
0.21391
0.214135
0.214327
0.21449
0.214628
0.214743
0.214839
0.214917
0.214979
0.215028
0.215064
0.215089
0.215104
0.215111
0.215109
0.2151
0.200521
0.202675
0.205525
0.20847
0.211189
0.21355
0.215527
0.217152
0.218476
0.219552
0.220424
0.221131
0.221704
0.222168
0.222543
0.222845
0.223086
0.223277
0.223425
0.223537
0.223617
0.223671
0.223702
0.223713
0.223707
0.223684
0.223649
0.223601
0.223542
0.223474
0.223398
0.223315
0.223225
0.202177
0.209422
0.217079
0.223316
0.228003
0.231437
0.233925
0.235719
0.23701
0.237936
0.238593
0.239054
0.239367
0.239569
0.239685
0.239733
0.239727
0.239676
0.239588
0.239469
0.239324
0.239157
0.238971
0.238767
0.23855
0.23832
0.23808
0.23783
0.237573
0.237308
0.237038
0.236764
0.236486
0.208503
0.227596
0.245316
0.25869
0.267554
0.272837
0.275658
0.27695
0.277338
0.277195
0.276744
0.276116
0.275385
0.274596
0.273774
0.272932
0.27208
0.271221
0.270359
0.269495
0.268631
0.267768
0.266908
0.266051
0.265198
0.264351
0.263511
0.262677
0.261853
0.261037
0.260232
0.259437
0.258653
0.248308
0.315061
0.34816
0.362157
0.367118
0.367958
0.366701
0.364185
0.360865
0.357053
0.352965
0.348753
0.344525
0.340356
0.336297
0.332383
0.328633
0.32506
0.321669
0.318461
0.315432
0.312577
0.309891
0.307366
0.304994
0.302768
0.30068
0.298722
0.296886
0.295167
0.293555
0.292046
0.290632
0.205354
0.221127
0.238043
0.254121
0.268995
0.282971
0.296258
0.308938
0.321054
0.332632
0.343696
0.354264
0.36435
0.373971
0.38314
0.391874
0.400187
0.408094
0.415611
0.422753
0.429535
0.435971
0.442078
0.447869
0.453358
0.45856
0.463488
0.468156
0.472575
0.476758
0.480717
0.484461
0.488009
0.618298
0.69443
0.816662
0.96613
1.1313
1.29982
1.46295
1.61359
1.74591
1.85587
1.94197
2.00523
2.04867
2.07631
2.09224
2.10005
2.10241
2.10117
2.09745
2.09186
2.08479
2.07646
2.0671
2.05687
2.04593
2.03437
2.02225
2.00956
1.99622
1.98214
1.96718
1.95119
1.93402
1.91551
1.89549
1.87383
1.85039
1.82507
1.79778
1.76847
1.73711
1.70372
1.66834
1.63105
1.592
1.55135
1.50931
1.46613
1.42209
1.37751
1.3327
1.28803
1.24384
1.20048
1.15831
1.11764
1.07878
1.042
1.00753
0.975575
0.94628
0.919756
0.896068
0.875243
0.857268
0.8421
0.829667
0.819871
0.812598
0.807718
0.805088
0.804555
0.805959
0.809134
0.813908
0.820104
0.827541
0.836037
0.845407
0.855466
0.866033
0.876928
0.887976
0.899009
0.909869
0.920408
0.930488
0.939984
0.948787
0.956796
0.963928
0.970111
0.975286
0.9794
0.982433
0.98432
0.98516
0.984698
0.983745
0.980487
0.399207
0.404199
0.417507
0.441622
0.477222
0.524783
0.584201
0.654778
0.735204
0.823618
0.917636
1.01443
1.11088
1.20387
1.29055
1.36866
1.43671
1.49407
1.54088
1.57791
1.60625
1.62715
1.64182
1.65131
1.65647
1.658
1.65642
1.65212
1.6454
1.6365
1.62556
1.6127
1.59799
1.58147
1.56317
1.54308
1.52122
1.4976
1.47222
1.44514
1.4164
1.38607
1.35426
1.32109
1.28673
1.25135
1.21518
1.17844
1.14141
1.10434
1.06753
1.03125
0.995794
0.961431
0.928417
0.896988
0.867356
0.839703
0.81418
0.790904
0.76996
0.751397
0.735237
0.721472
0.710069
0.700974
0.694116
0.689412
0.686766
0.686073
0.687224
0.690102
0.694586
0.700551
0.707866
0.716396
0.725999
0.736533
0.747846
0.759789
0.772205
0.784942
0.797844
0.81076
0.823543
0.836053
0.848156
0.859729
0.870658
0.880842
0.890189
0.89862
0.906069
0.912474
0.917805
0.92199
0.925112
0.92694
0.928105
0.927893
0.326708
0.321613
0.317088
0.313616
0.31192
0.312761
0.316667
0.324284
0.336493
0.354172
0.378147
0.409095
0.447422
0.49312
0.54566
0.603944
0.666345
0.730848
0.795271
0.857509
0.915762
0.968679
1.01542
1.05563
1.08934
1.11686
1.13864
1.15522
1.16713
1.17484
1.1788
1.17935
1.17683
1.17149
1.16355
1.15322
1.14065
1.126
1.10942
1.09104
1.07103
1.04951
1.02667
1.00265
0.977665
0.951897
0.925563
0.898884
0.87209
0.845413
0.819084
0.79333
0.768367
0.744399
0.721612
0.70017
0.680219
0.661877
0.645241
0.630382
0.617345
0.606156
0.596818
0.589317
0.583624
0.579697
0.577486
0.576932
0.57797
0.580532
0.584544
0.589932
0.596615
0.60451
0.613526
0.623571
0.634543
0.646335
0.658836
0.671924
0.685476
0.699362
0.713451
0.727608
0.7417
0.755595
0.769168
0.782295
0.794864
0.806768
0.81791
0.828204
0.837576
0.845952
0.853294
0.859524
0.864702
0.868621
0.871734
0.874364
0.317034
0.311838
0.306763
0.301844
0.297174
0.292876
0.289096
0.285976
0.283653
0.282369
0.282429
0.284203
0.288113
0.294623
0.304205
0.317291
0.334216
0.355151
0.380045
0.408586
0.440197
0.474069
0.509227
0.544629
0.579258
0.612212
0.642758
0.670361
0.694683
0.715555
0.732948
0.746932
0.757643
0.765255
0.769961
0.771962
0.771456
0.76864
0.763704
0.756837
0.748224
0.73805
0.726502
0.713769
0.700042
0.685517
0.670392
0.654864
0.639131
0.623384
0.607811
0.592589
0.577884
0.563848
0.550618
0.538314
0.527041
0.516883
0.507908
0.500169
0.4937
0.488523
0.484646
0.482064
0.480767
0.480736
0.481945
0.484367
0.487969
0.492717
0.498574
0.505501
0.513455
0.522389
0.532252
0.542985
0.554525
0.566799
0.579728
0.593223
0.60719
0.621523
0.636115
0.650849
0.665609
0.680274
0.694724
0.708843
0.722517
0.735638
0.748105
0.759824
0.770712
0.780688
0.789702
0.797667
0.804624
0.810386
0.815232
0.820437
0.302101
0.298521
0.294967
0.291428
0.287905
0.284416
0.280994
0.277677
0.274506
0.271525
0.268797
0.2664
0.26443
0.263008
0.262279
0.262414
0.263601
0.266042
0.269937
0.275465
0.28276
0.291895
0.302854
0.315524
0.329696
0.345068
0.361269
0.377882
0.394482
0.410658
0.426038
0.440311
0.45323
0.464617
0.474357
0.482392
0.488713
0.493347
0.496355
0.497818
0.49784
0.496535
0.494032
0.490465
0.485977
0.480714
0.474827
0.468464
0.461774
0.454902
0.447987
0.44116
0.434546
0.428256
0.422394
0.417051
0.412305
0.408224
0.404866
0.402275
0.400487
0.399527
0.399415
0.400161
0.401772
0.404248
0.407589
0.411789
0.416844
0.422744
0.429481
0.437043
0.445416
0.454583
0.46452
0.475201
0.48659
0.498646
0.511318
0.524546
0.538262
0.552387
0.566836
0.581512
0.596315
0.611139
0.625875
0.640412
0.65464
0.668451
0.681742
0.694413
0.706375
0.717538
0.72784
0.737189
0.745602
0.752913
0.759235
0.766689
0.282232
0.280117
0.277974
0.275797
0.273576
0.271314
0.269021
0.26671
0.264397
0.262099
0.259835
0.257625
0.255493
0.253469
0.251589
0.249897
0.248444
0.247292
0.246513
0.246184
0.246386
0.247202
0.248704
0.250953
0.253988
0.257821
0.262429
0.267757
0.273715
0.280181
0.28701
0.294043
0.301113
0.308057
0.314722
0.320976
0.326704
0.33182
0.336261
0.339989
0.34299
0.345271
0.346859
0.347794
0.348133
0.347942
0.347295
0.346274
0.344963
0.343448
0.341814
0.340146
0.338523
0.337021
0.335712
0.334661
0.333926
0.333559
0.333606
0.334106
0.335095
0.336598
0.338639
0.341238
0.344411
0.348169
0.352526
0.35749
0.363072
0.369278
0.376117
0.383595
0.391716
0.400483
0.409894
0.419942
0.430617
0.441901
0.453766
0.466178
0.479093
0.492457
0.506205
0.520264
0.534551
0.548977
0.563445
0.577853
0.5921
0.606081
0.619691
0.632832
0.645406
0.65732
0.6685
0.678849
0.688361
0.69689
0.7044
0.713725
0.26341
0.262273
0.261093
0.259865
0.258582
0.257242
0.255849
0.254408
0.252928
0.251417
0.249884
0.248337
0.246785
0.245239
0.243708
0.242205
0.240745
0.239346
0.23803
0.236823
0.235754
0.234856
0.234164
0.233713
0.23354
0.233676
0.234145
0.234966
0.236144
0.237674
0.239538
0.241705
0.244133
0.24677
0.249558
0.252435
0.255336
0.258203
0.260979
0.263617
0.266077
0.268331
0.27036
0.272156
0.273722
0.27507
0.27622
0.277199
0.27804
0.278781
0.279462
0.280126
0.280816
0.281575
0.282444
0.283464
0.284674
0.286108
0.287798
0.289775
0.292064
0.294688
0.297669
0.301026
0.304774
0.30893
0.313509
0.318527
0.323997
0.329935
0.336356
0.343276
0.350708
0.358665
0.367161
0.376202
0.385794
0.395935
0.40662
0.417834
0.429553
0.441745
0.454367
0.467368
0.480684
0.494244
0.507967
0.521766
0.535548
0.549215
0.56267
0.575812
0.588546
0.600773
0.612412
0.623363
0.633599
0.642992
0.651374
0.662154
0.248007
0.247449
0.246849
0.246204
0.245509
0.244761
0.243961
0.243112
0.242218
0.241282
0.240312
0.23931
0.238283
0.237235
0.23617
0.235093
0.234008
0.232923
0.231844
0.230779
0.22974
0.228739
0.227789
0.226908
0.226113
0.22542
0.22485
0.224419
0.224141
0.22403
0.224093
0.224335
0.224755
0.225346
0.226099
0.226998
0.228024
0.229157
0.230374
0.231653
0.232974
0.234316
0.235664
0.237006
0.238334
0.239644
0.240937
0.242219
0.243499
0.244789
0.246105
0.247466
0.24889
0.2504
0.252016
0.253761
0.255655
0.257721
0.259976
0.262441
0.26513
0.268061
0.271249
0.274705
0.278446
0.282482
0.286828
0.291498
0.296507
0.30187
0.307603
0.313726
0.320255
0.327209
0.334607
0.342465
0.350798
0.359617
0.36893
0.378737
0.389034
0.399806
0.41103
0.422675
0.434698
0.447045
0.459656
0.472458
0.485372
0.498314
0.511193
0.523915
0.536387
0.548512
0.560205
0.571365
0.581948
0.591842
0.600771
0.612564
0.236153
0.235917
0.235646
0.235338
0.234989
0.234597
0.234161
0.233682
0.233162
0.232604
0.232011
0.231386
0.230732
0.230053
0.22935
0.228627
0.227884
0.227126
0.226354
0.225573
0.224785
0.223996
0.223212
0.22244
0.221688
0.220964
0.22028
0.219645
0.21907
0.218566
0.218142
0.217807
0.217569
0.217433
0.217403
0.217481
0.217665
0.217954
0.218344
0.21883
0.219406
0.220066
0.220804
0.221616
0.222498
0.223446
0.224462
0.225544
0.226697
0.227925
0.229234
0.230631
0.232127
0.23373
0.235451
0.237302
0.239293
0.241435
0.243738
0.246213
0.248867
0.251711
0.254752
0.257999
0.26146
0.265144
0.26906
0.273219
0.277633
0.282316
0.287282
0.292547
0.298131
0.304053
0.310332
0.316989
0.324045
0.331518
0.339423
0.347774
0.356577
0.365835
0.375539
0.385677
0.396224
0.407146
0.418401
0.429934
0.441684
0.45358
0.465544
0.477493
0.489341
0.500995
0.512373
0.523374
0.533944
0.543986
0.55314
0.565498
0.227215
0.227153
0.227063
0.226944
0.226793
0.226608
0.226389
0.226134
0.225845
0.225525
0.225174
0.224794
0.224389
0.223961
0.22351
0.223039
0.222549
0.222042
0.221519
0.220981
0.22043
0.219869
0.219301
0.218727
0.218152
0.217582
0.21702
0.216473
0.215948
0.215451
0.214989
0.21457
0.214202
0.213891
0.213643
0.213464
0.213359
0.213332
0.213387
0.213526
0.21375
0.214062
0.214461
0.21495
0.215529
0.216198
0.21696
0.217816
0.218769
0.219821
0.220978
0.222242
0.22362
0.225115
0.226733
0.22848
0.23036
0.23238
0.234542
0.236852
0.239313
0.241928
0.244702
0.247637
0.250738
0.254008
0.257454
0.261082
0.264901
0.26892
0.273152
0.27761
0.282311
0.287273
0.292515
0.298058
0.303924
0.310134
0.316709
0.323669
0.331029
0.3388
0.34699
0.355598
0.364616
0.374028
0.383808
0.393921
0.404322
0.414957
0.425765
0.436675
0.447612
0.458494
0.469242
0.479763
0.489997
0.499859
0.508935
0.521427
0.220483
0.220511
0.220518
0.220503
0.220463
0.220398
0.220305
0.220184
0.220037
0.219863
0.219665
0.219444
0.219201
0.218938
0.218656
0.218358
0.218044
0.217715
0.217373
0.217017
0.21665
0.216272
0.215885
0.215491
0.21509
0.214687
0.214284
0.213884
0.213491
0.21311
0.212745
0.212402
0.212086
0.211804
0.21156
0.211361
0.211213
0.211121
0.21109
0.211126
0.211233
0.211416
0.211678
0.212024
0.212457
0.21298
0.213597
0.214311
0.215126
0.216044
0.21707
0.218206
0.219456
0.220822
0.222309
0.223918
0.225651
0.22751
0.229496
0.23161
0.233852
0.236221
0.238718
0.241342
0.244094
0.246975
0.249987
0.253133
0.256418
0.259849
0.263435
0.267186
0.271116
0.275239
0.279574
0.28414
0.288958
0.294049
0.299436
0.305141
0.311185
0.317585
0.324357
0.331511
0.33905
0.346973
0.355269
0.363919
0.372896
0.382161
0.391671
0.40137
0.411198
0.421084
0.430959
0.44074
0.450366
0.459767
0.468498
0.480726
0.215369
0.215443
0.2155
0.215541
0.215562
0.215564
0.215545
0.215504
0.215442
0.21536
0.215257
0.215137
0.214999
0.214845
0.214676
0.214495
0.214301
0.214096
0.21388
0.213655
0.213422
0.21318
0.212932
0.212678
0.212419
0.212157
0.211894
0.211632
0.211373
0.211121
0.210879
0.21065
0.210438
0.210249
0.210086
0.209956
0.209862
0.209811
0.209808
0.209858
0.209966
0.210138
0.210379
0.210693
0.211086
0.211562
0.212125
0.212779
0.213528
0.214376
0.215326
0.216381
0.217543
0.218816
0.220199
0.221695
0.223303
0.225024
0.226856
0.228797
0.230845
0.232998
0.235253
0.237607
0.240059
0.242606
0.245248
0.247985
0.250819
0.253755
0.256798
0.259955
0.263237
0.266657
0.270228
0.273969
0.277897
0.282034
0.2864
0.291019
0.295912
0.301102
0.306606
0.312442
0.318623
0.325155
0.332041
0.339274
0.346843
0.354724
0.362888
0.371297
0.379905
0.388656
0.397493
0.406346
0.415155
0.423868
0.432033
0.443656
0.211442
0.211535
0.211616
0.211685
0.211738
0.211777
0.2118
0.211806
0.211795
0.211769
0.211727
0.21167
0.211601
0.211519
0.211426
0.211323
0.211211
0.211091
0.210964
0.210832
0.210694
0.210551
0.210405
0.210256
0.210105
0.209954
0.209803
0.209654
0.20951
0.209371
0.209242
0.209124
0.20902
0.208934
0.208871
0.208833
0.208826
0.208854
0.208922
0.209035
0.209197
0.209415
0.209693
0.210036
0.210449
0.210937
0.211504
0.212154
0.212892
0.21372
0.214643
0.215662
0.21678
0.217998
0.219317
0.220737
0.222256
0.223874
0.225588
0.227394
0.229288
0.231268
0.233327
0.235461
0.237667
0.239941
0.24228
0.244683
0.247149
0.249679
0.252277
0.254948
0.257699
0.260541
0.263484
0.266544
0.269736
0.273078
0.276591
0.280296
0.284214
0.288368
0.292778
0.297464
0.302443
0.307729
0.313333
0.319257
0.325501
0.332055
0.338904
0.346024
0.353382
0.360939
0.36865
0.376458
0.384313
0.392175
0.399607
0.410352
0.208391
0.20849
0.20858
0.208659
0.208728
0.208786
0.208831
0.208864
0.208884
0.208891
0.208887
0.208872
0.208846
0.208812
0.208769
0.208719
0.208663
0.208603
0.208538
0.20847
0.2084
0.208329
0.208257
0.208186
0.208116
0.208048
0.207983
0.207924
0.20787
0.207825
0.20779
0.207767
0.207759
0.207768
0.207798
0.207853
0.207936
0.20805
0.208201
0.208392
0.208628
0.208914
0.209255
0.209654
0.210117
0.210648
0.211251
0.211931
0.21269
0.213532
0.21446
0.215477
0.216582
0.217778
0.219065
0.22044
0.221904
0.223452
0.225082
0.226788
0.228567
0.230412
0.232318
0.23428
0.236291
0.238347
0.240443
0.242577
0.244745
0.246949
0.249188
0.251466
0.253787
0.256161
0.258594
0.2611
0.263692
0.266385
0.269197
0.272148
0.275257
0.278544
0.282032
0.28574
0.289688
0.293893
0.298369
0.303128
0.308175
0.313511
0.319131
0.325022
0.331167
0.337539
0.344105
0.350823
0.357652
0.364564
0.371155
0.380826
0.205999
0.206095
0.206184
0.206266
0.20634
0.206405
0.206461
0.206508
0.206545
0.206573
0.206592
0.206602
0.206605
0.206601
0.206592
0.206578
0.206561
0.206541
0.20652
0.206498
0.206477
0.206456
0.206439
0.206424
0.206414
0.206408
0.20641
0.206418
0.206436
0.206464
0.206505
0.20656
0.206631
0.206721
0.206833
0.206969
0.207134
0.207329
0.20756
0.207829
0.208141
0.208499
0.208909
0.209374
0.209898
0.210486
0.21114
0.211865
0.212663
0.213538
0.214491
0.215524
0.216638
0.217834
0.21911
0.220465
0.221896
0.2234
0.224973
0.226609
0.228302
0.230046
0.231835
0.233661
0.23552
0.237403
0.239306
0.241225
0.243156
0.245097
0.247048
0.24901
0.250986
0.252982
0.255005
0.257064
0.259171
0.261339
0.263582
0.265918
0.268364
0.27094
0.273665
0.276558
0.27964
0.282928
0.28644
0.290189
0.294187
0.298441
0.302953
0.307721
0.312736
0.317982
0.323441
0.32908
0.334871
0.340796
0.346493
0.354971
0.204111
0.204199
0.204283
0.204361
0.204433
0.2045
0.204559
0.204612
0.204658
0.204696
0.204729
0.204755
0.204776
0.204792
0.204805
0.204816
0.204824
0.204833
0.204841
0.204852
0.204865
0.204882
0.204903
0.20493
0.204963
0.205005
0.205055
0.205116
0.205188
0.205273
0.205373
0.20549
0.205625
0.205781
0.205961
0.206166
0.206401
0.206667
0.206968
0.207308
0.207689
0.208117
0.208593
0.209123
0.209709
0.210355
0.211064
0.211839
0.212683
0.213598
0.214585
0.215645
0.216779
0.217987
0.219266
0.220615
0.22203
0.223508
0.225042
0.226627
0.228258
0.229925
0.231624
0.233345
0.235083
0.236829
0.238579
0.240326
0.242066
0.243797
0.245516
0.247224
0.248923
0.250616
0.25231
0.25401
0.255727
0.257471
0.259255
0.261094
0.263004
0.265
0.267102
0.269326
0.271693
0.274218
0.27692
0.279815
0.282916
0.286233
0.289775
0.293546
0.297543
0.301761
0.306189
0.310807
0.315595
0.320544
0.325343
0.332582
0.202616
0.202694
0.202769
0.20284
0.202907
0.20297
0.203028
0.203082
0.203131
0.203174
0.203214
0.203249
0.203281
0.20331
0.203337
0.203363
0.20339
0.203417
0.203447
0.20348
0.203517
0.20356
0.20361
0.203666
0.203732
0.203808
0.203895
0.203994
0.204108
0.204237
0.204383
0.204548
0.204734
0.204942
0.205176
0.205438
0.20573
0.206054
0.206415
0.206815
0.207258
0.207745
0.208282
0.20887
0.209512
0.210213
0.210974
0.211798
0.212687
0.213642
0.214665
0.215756
0.216914
0.218139
0.219428
0.220778
0.222186
0.223647
0.225154
0.226703
0.228286
0.229894
0.231522
0.23316
0.2348
0.236437
0.238063
0.239671
0.241258
0.242818
0.244351
0.245855
0.24733
0.24878
0.250207
0.251619
0.253023
0.254427
0.255843
0.257282
0.258759
0.260288
0.261885
0.263566
0.265348
0.267248
0.269281
0.271464
0.273812
0.276337
0.279049
0.281955
0.285061
0.288366
0.291866
0.29555
0.299405
0.30343
0.307364
0.313379
0.201435
0.201501
0.201565
0.201627
0.201687
0.201744
0.201798
0.201849
0.201897
0.201942
0.201984
0.202023
0.202061
0.202098
0.202134
0.20217
0.202208
0.202249
0.202293
0.202341
0.202395
0.202456
0.202526
0.202604
0.202693
0.202794
0.202907
0.203035
0.20318
0.203341
0.203522
0.203723
0.203948
0.204197
0.204474
0.20478
0.205117
0.20549
0.205899
0.206348
0.206841
0.207379
0.207965
0.208603
0.209294
0.210042
0.210849
0.211716
0.212645
0.213637
0.214692
0.215811
0.216992
0.218233
0.219533
0.220887
0.222291
0.22374
0.225227
0.226747
0.228291
0.229851
0.23142
0.23299
0.234551
0.236098
0.237621
0.239116
0.240577
0.241999
0.243379
0.244717
0.246011
0.247263
0.248477
0.249656
0.250808
0.251939
0.253059
0.254178
0.255308
0.256462
0.257652
0.258895
0.260204
0.261594
0.263082
0.264681
0.266406
0.26827
0.270285
0.27246
0.274802
0.277315
0.28
0.282854
0.285868
0.289046
0.292178
0.297029
0.200507
0.200561
0.200614
0.200666
0.200717
0.200767
0.200815
0.200861
0.200906
0.20095
0.200992
0.201032
0.201073
0.201113
0.201154
0.201197
0.201242
0.20129
0.201344
0.201402
0.201468
0.201542
0.201624
0.201718
0.201823
0.201941
0.202073
0.202222
0.202388
0.202573
0.202779
0.203008
0.203261
0.203541
0.20385
0.204189
0.204562
0.204971
0.205418
0.205906
0.206437
0.207015
0.207641
0.208318
0.209049
0.209835
0.210678
0.21158
0.212542
0.213564
0.214645
0.215787
0.216986
0.21824
0.219547
0.220903
0.222302
0.22374
0.225209
0.226702
0.228212
0.22973
0.231248
0.232759
0.234252
0.235722
0.237159
0.238558
0.239913
0.24122
0.242475
0.243675
0.244821
0.245912
0.246952
0.247943
0.248892
0.249803
0.250685
0.251547
0.252399
0.253252
0.254117
0.255008
0.255937
0.256917
0.257963
0.259088
0.260305
0.261626
0.263064
0.264628
0.266328
0.268168
0.270155
0.272287
0.274562
0.276985
0.279395
0.283177
0.199789
0.199831
0.199873
0.199915
0.199957
0.199998
0.20004
0.200081
0.200121
0.200162
0.200201
0.200242
0.200282
0.200324
0.200367
0.200413
0.200462
0.200515
0.200574
0.200639
0.200712
0.200794
0.200885
0.200988
0.201104
0.201233
0.201378
0.201541
0.201722
0.201923
0.202146
0.202394
0.202667
0.202968
0.2033
0.203663
0.204061
0.204496
0.204971
0.205487
0.206047
0.206654
0.20731
0.208016
0.208776
0.20959
0.21046
0.211388
0.212373
0.213415
0.214515
0.215671
0.216881
0.218142
0.219451
0.220803
0.222194
0.223617
0.225065
0.226531
0.228007
0.229485
0.230956
0.232412
0.233844
0.235245
0.236607
0.237923
0.239188
0.240396
0.241544
0.24263
0.243652
0.24461
0.245507