/*--------------------------------*- C++ -*----------------------------------*\
| =========                 |                                                 |
| \\      /  F ield         | OpenFOAM: The Open Source CFD Toolbox           |
|  \\    /   O peration     | Version:  4.1                                   |
|   \\  /    A nd           | Web:      www.OpenFOAM.org                      |
|    \\/     M anipulation  |                                                 |
\*---------------------------------------------------------------------------*/
FoamFile
{
    version     2.0;
    format      ascii;
    class       volScalarField;
    location    "2000";
    object      nut;
}
// * * * * * * * * * * * * * * * * * * * * * * * * * * * * * * * * * * * * * //

dimensions      [0 2 -1 0 0 0 0];

internalField   nonuniform List<scalar> 
6820
(
3.5437e-05
5.0672e-05
6.21565e-05
6.89859e-05
7.29393e-05
7.51484e-05
7.62608e-05
7.66561e-05
7.65742e-05
7.61754e-05
7.5569e-05
7.48308e-05
7.40141e-05
7.31561e-05
7.22832e-05
7.14133e-05
7.05589e-05
6.97282e-05
6.89266e-05
6.81574e-05
6.7422e-05
6.67213e-05
6.6055e-05
6.54225e-05
6.48227e-05
6.42545e-05
6.37162e-05
6.32068e-05
6.2723e-05
6.22708e-05
6.18119e-05
6.15226e-05
6.06186e-05
0.00135033
0.000930454
0.000725657
0.000569941
0.000453328
0.000372218
0.000316223
0.000276487
0.000247302
0.000225194
0.000208006
0.000194347
0.000183294
0.000174212
0.000166657
0.000160304
0.000154915
0.000150307
0.000146343
0.000142912
0.000139928
0.000137322
0.000135037
0.000133026
0.000131252
0.000129681
0.000128287
0.000127046
0.000125936
0.000124945
0.000124035
0.000123263
0.000122375
0.0034439
0.00180034
0.00133708
0.00108081
0.000912409
0.000791562
0.000700947
0.00063099
0.000575611
0.000530788
0.000493805
0.000462783
0.000436392
0.000413669
0.000393905
0.000376561
0.000361227
0.000347581
0.000335366
0.000324379
0.000314452
0.000305447
0.000297251
0.000289768
0.000282915
0.000276623
0.000270833
0.000265491
0.000260553
0.000255978
0.000251724
0.000247775
0.000244045
0.00637392
0.00310291
0.00217847
0.00173334
0.00146616
0.00128428
0.00115082
0.00104807
0.000966256
0.000899457
0.000843822
0.000796729
0.000756323
0.000721253
0.000690512
0.000663332
0.000639118
0.000617403
0.000597813
0.000580047
0.000563859
0.000549047
0.000535441
0.000522899
0.000511301
0.000500545
0.000490542
0.000481216
0.0004725
0.000464336
0.000456667
0.000449452
0.000442625
0.00899737
0.00527271
0.00366202
0.00284163
0.00235737
0.00203856
0.00181195
0.00164188
0.00150906
0.00140219
0.00131419
0.00124038
0.00117752
0.0011233
0.00107604
0.00103444
0.000997547
0.000964581
0.000934941
0.000908141
0.000883785
0.00086155
0.000841166
0.000822409
0.000805088
0.000789042
0.000774133
0.000760241
0.000747262
0.000735105
0.000723686
0.000712937
0.000702773
0.0103765
0.00752965
0.00561349
0.00443387
0.0036773
0.00316202
0.00279169
0.00251363
0.00229739
0.00212446
0.001983
0.00186511
0.00176535
0.00167982
0.00160567
0.00154076
0.00148347
0.00143253
0.00138693
0.00134588
0.00130873
0.00127494
0.00124408
0.00121579
0.00118975
0.00116571
0.00114344
0.00112275
0.00110347
0.00108547
0.00106861
0.00105279
0.00103788
0.0109773
0.00922098
0.00752197
0.0062241
0.00528073
0.00458893
0.00406896
0.0036676
0.00335003
0.00309329
0.00288184
0.00270491
0.00255482
0.002426
0.0023143
0.00221655
0.00213034
0.00205377
0.00198532
0.00192379
0.00186819
0.00181772
0.00177171
0.0017296
0.00169093
0.00165528
0.00162234
0.00159179
0.0015634
0.00153694
0.00151221
0.00148906
0.00146732
0.0112223
0.01026
0.00902119
0.00786209
0.00689742
0.00612295
0.00550365
0.00500431
0.00459663
0.00425931
0.00397662
0.00373691
0.00353146
0.00335369
0.00319854
0.0030621
0.00294126
0.00283359
0.00273709
0.00265017
0.00257151
0.00250001
0.00243477
0.00237503
0.00232013
0.00226953
0.00222276
0.0021794
0.00213911
0.00210158
0.00206655
0.00203377
0.00200304
0.0113196
0.0108286
0.0100355
0.0091472
0.00830321
0.00755759
0.00691829
0.00637539
0.00591434
0.00552102
0.00518335
0.00489139
0.00463719
0.00441434
0.00421771
0.0040432
0.00388744
0.00374772
0.00362179
0.00350779
0.00340418
0.00330966
0.00322313
0.00314367
0.00307047
0.00300286
0.00294025
0.00288212
0.00282803
0.00277759
0.00273046
0.00268635
0.00264498
0.0113579
0.0111187
0.0106546
0.0100468
0.00939296
0.00875749
0.00817148
0.00764509
0.00717794
0.00676519
0.00640062
0.00607795
0.00579147
0.00553616
0.00530774
0.00510254
0.00491748
0.00474995
0.00459774
0.00445899
0.00433208
0.00421566
0.00410856
0.00400975
0.00391838
0.00383367
0.00375497
0.00368169
0.00361333
0.00354943
0.0034896
0.0034335
0.00338081
0.0113728
0.01126
0.0110057
0.0106242
0.0101642
0.00967403
0.00918758
0.0087244
0.00829364
0.0078983
0.00753797
0.00721062
0.00691348
0.00664365
0.00639827
0.0061747
0.00597057
0.00578376
0.00561239
0.0054548
0.00530956
0.00517539
0.00505118
0.00493594
0.00482882
0.00472904
0.00463593
0.00454891
0.00446743
0.00439102
0.00431927
0.00425179
0.00418827
0.0113787
0.0113266
0.011194
0.0109703
0.0106711
0.0103231
0.00995189
0.00957697
0.009211
0.00886139
0.00853191
0.008224
0.0079377
0.00767227
0.0074265
0.00719904
0.00698845
0.00679333
0.00661236
0.00644431
0.00628804
0.00614252
0.00600681
0.00588007
0.00576153
0.0056505
0.00554637
0.00544857
0.00535661
0.00527003
0.00518843
0.00511143
0.0050387
0.0113809
0.0113572
0.0112906
0.0111664
0.010984
0.0107537
0.0104904
0.0102084
0.00991919
0.00963122
0.00935016
0.00907954
0.00882138
0.00857663
0.00834556
0.00812801
0.00792352
0.00773148
0.0075512
0.00738195
0.00722301
0.00707367
0.00693326
0.00680114
0.00667673
0.00655947
0.00644885
0.0063444
0.00624569
0.00615233
0.00606395
0.00598023
0.00590086
0.0113818
0.0113708
0.0113383
0.0112723
0.0111671
0.0110237
0.0108485
0.0106497
0.0104355
0.0102131
0.00998805
0.00976447
0.00954535
0.00933265
0.00912765
0.00893106
0.00874324
0.00856426
0.00839403
0.00823232
0.00807881
0.00793316
0.00779499
0.00766392
0.00753955
0.00742152
0.00730945
0.00720301
0.00710186
0.00700569
0.00691422
0.00682718
0.0067443
0.0113822
0.0113768
0.0113611
0.0113273
0.0112692
0.0111846
0.0110744
0.0109422
0.0107927
0.0106307
0.0104607
0.0102863
0.0101104
0.00993551
0.00976318
0.00959469
0.00943091
0.00927239
0.00911948
0.00897236
0.0088311
0.00869564
0.0085659
0.00844172
0.00832292
0.00820933
0.00810071
0.00799688
0.00789761
0.0078027
0.00771195
0.00762515
0.00754213
0.0113823
0.0113794
0.0113717
0.0113547
0.0113238
0.011276
0.0112101
0.0111268
0.0110279
0.0109162
0.0107945
0.0106655
0.0105317
0.0103951
0.0102574
0.01012
0.00998405
0.00985025
0.00971925
0.00959149
0.0094673
0.00934686
0.0092303
0.00911767
0.00900898
0.00890419
0.00880324
0.00870605
0.00861253
0.00852256
0.00843603
0.00835283
0.00827284
0.0113824
0.0113805
0.0113765
0.0113679
0.0113519
0.0113259
0.0112881
0.0112379
0.0111757
0.0111025
0.0110197
0.010929
0.0108321
0.0107305
0.0106258
0.010519
0.0104112
0.0103034
0.0101961
0.01009
0.00998548
0.00988291
0.00978254
0.00968457
0.00958912
0.0094963
0.00940615
0.0093187
0.00923395
0.00915188
0.00907246
0.00899564
0.00892138
0.0113824
0.0113809
0.0113786
0.0113741
0.0113658
0.0113519
0.011331
0.0113021
0.0112646
0.0112187
0.011165
0.0111041
0.0110372
0.0109652
0.0108891
0.0108098
0.0107282
0.010645
0.010561
0.0104765
0.0103922
0.0103084
0.0102255
0.0101436
0.010063
0.00998397
0.0099065
0.00983074
0.00975676
0.00968461
0.00961432
0.0095459
0.00947936
0.0113824
0.0113811
0.0113795
0.0113769
0.0113724
0.0113651
0.0113537
0.0113375
0.0113158
0.0112882
0.0112548
0.0112157
0.0111715
0.0111227
0.0110698
0.0110135
0.0109543
0.0108929
0.0108297
0.0107652
0.0107
0.0106342
0.0105683
0.0105025
0.010437
0.0103722
0.010308
0.0102447
0.0101824
0.0101212
0.0100611
0.0100022
0.00994458
0.0113824
0.0113812
0.0113798
0.0113781
0.0113755
0.0113714
0.0113653
0.0113563
0.011344
0.011328
0.011308
0.0112839
0.0112559
0.0112241
0.0111889
0.0111505
0.0111093
0.0110657
0.0110202
0.0109729
0.0109243
0.0108746
0.0108242
0.0107732
0.0107219
0.0106706
0.0106193
0.0105682
0.0105175
0.0104672
0.0104175
0.0103684
0.01032
0.0113824
0.0113812
0.01138
0.0113786
0.0113768
0.0113744
0.0113709
0.0113659
0.011359
0.0113499
0.0113382
0.0113238
0.0113067
0.0112868
0.0112641
0.011239
0.0112114
0.0111816
0.0111499
0.0111165
0.0110816
0.0110454
0.0110081
0.0109699
0.0109311
0.0108917
0.0108519
0.010812
0.0107719
0.0107318
0.0106918
0.010652
0.0106125
0.0113824
0.0113812
0.01138
0.0113788
0.0113774
0.0113757
0.0113735
0.0113706
0.0113666
0.0113614
0.0113547
0.0113463
0.011336
0.0113238
0.0113097
0.0112937
0.0112758
0.0112561
0.0112347
0.0112117
0.0111873
0.0111616
0.0111348
0.0111069
0.0110782
0.0110487
0.0110186
0.010988
0.010957
0.0109257
0.0108942
0.0108625
0.0108308
0.0113824
0.0113812
0.01138
0.0113789
0.0113776
0.0113763
0.0113747
0.0113728
0.0113703
0.0113672
0.0113632
0.0113582
0.0113521
0.0113447
0.011336
0.0113259
0.0113143
0.0113014
0.0112871
0.0112715
0.0112546
0.0112365
0.0112174
0.0111972
0.0111761
0.0111541
0.0111315
0.0111081
0.0110842
0.0110598
0.011035
0.0110099
0.0109845
0.0113824
0.0113812
0.01138
0.0113789
0.0113777
0.0113765
0.0113752
0.0113737
0.011372
0.0113699
0.0113673
0.0113642
0.0113603
0.0113555
0.0113499
0.0113432
0.0113355
0.0113267
0.0113167
0.0113057
0.0112936
0.0112805
0.0112663
0.0112512
0.0112351
0.0112182
0.0112006
0.0111822
0.0111632
0.0111436
0.0111235
0.0111029
0.011082
0.0113824
0.0113812
0.01138
0.0113789
0.0113777
0.0113766
0.0113753
0.011374
0.0113726
0.0113709
0.0113689
0.0113665
0.0113635
0.0113599
0.0113556
0.0113504
0.0113444
0.0113375
0.0113297
0.0113208
0.011311
0.0113002
0.0112885
0.0112759
0.0112624
0.011248
0.0112329
0.0112171
0.0112006
0.0111835
0.0111658
0.0111476
0.011129
0.0113824
0.0113812
0.01138
0.0113789
0.0113777
0.0113765
0.0113753
0.011374
0.0113725
0.0113707
0.0113686
0.0113661
0.011363
0.0113593
0.0113548
0.0113496
0.0113434
0.0113364
0.0113284
0.0113194
0.0113095
0.0112986
0.0112868
0.0112741
0.0112606
0.0112462
0.0112311
0.0112152
0.0111987
0.0111816
0.011164
0.0111458
0.0111272
0.0113824
0.0113812
0.01138
0.0113789
0.0113777
0.0113764
0.011375
0.0113734
0.0113715
0.0113691
0.0113662
0.0113626
0.0113583
0.011353
0.0113468
0.0113395
0.0113312
0.0113218
0.0113113
0.0112998
0.0112872
0.0112735
0.0112589
0.0112434
0.0112271
0.0112099
0.011192
0.0111734
0.0111542
0.0111344
0.0111142
0.0110935
0.0110725
0.0113824
0.0113812
0.01138
0.0113788
0.0113775
0.011376
0.0113742
0.0113718
0.0113688
0.0113648
0.0113599
0.0113537
0.0113462
0.0113373
0.011327
0.0113153
0.0113021
0.0112875
0.0112715
0.0112543
0.0112359
0.0112164
0.0111959
0.0111744
0.0111521
0.011129
0.0111053
0.011081
0.0110562
0.011031
0.0110054
0.0109796
0.0109535
0.0113824
0.0113812
0.01138
0.0113787
0.011377
0.0113748
0.0113718
0.0113676
0.0113618
0.0113543
0.0113449
0.0113333
0.0113196
0.0113037
0.0112857
0.0112656
0.0112436
0.0112198
0.0111944
0.0111675
0.0111393
0.01111
0.0110797
0.0110486
0.0110167
0.0109843
0.0109514
0.0109182
0.0108847
0.010851
0.0108173
0.0107836
0.0107499
0.0113824
0.0113813
0.0113799
0.0113781
0.0113755
0.0113714
0.0113652
0.0113564
0.0113446
0.0113295
0.0113109
0.0112888
0.0112634
0.0112347
0.0112031
0.0111689
0.0111323
0.0110938
0.0110535
0.0110117
0.0109688
0.010925
0.0108805
0.0108355
0.0107902
0.0107447
0.0106992
0.0106538
0.0106086
0.0105637
0.0105192
0.0104751
0.0104315
0.0113825
0.0113812
0.0113794
0.0113761
0.0113704
0.0113611
0.0113472
0.0113279
0.0113028
0.011272
0.0112356
0.011194
0.0111477
0.0110974
0.0110436
0.0109871
0.0109282
0.0108677
0.0108058
0.0107431
0.0106799
0.0106166
0.0105533
0.0104902
0.0104277
0.0103658
0.0103047
0.0102444
0.0101851
0.0101268
0.0100696
0.0100135
0.00995845
0.0113825
0.0113808
0.011377
0.0113691
0.0113545
0.0113315
0.0112988
0.011256
0.0112036
0.0111424
0.0110735
0.0109982
0.0109178
0.0108335
0.0107465
0.0106576
0.0105676
0.0104773
0.0103873
0.0102978
0.0102094
0.0101224
0.0100368
0.00995292
0.00987086
0.0097907
0.0097125
0.00963628
0.00956207
0.00948985
0.00941962
0.00935135
0.009285
0.0113825
0.0113787
0.0113679
0.0113447
0.0113054
0.011248
0.0111728
0.0110816
0.0109771
0.0108621
0.0107396
0.0106119
0.0104814
0.0103497
0.0102183
0.0100882
0.00996015
0.00983484
0.00971264
0.00959382
0.00947856
0.00936695
0.00925903
0.00915477
0.00905414
0.00895706
0.00886344
0.00877318
0.00868618
0.00860231
0.00852146
0.00844351
0.00836835
0.011382
0.0113691
0.0113325
0.0112633
0.0111587
0.0110222
0.0108601
0.0106799
0.0104883
0.010291
0.0100925
0.00989597
0.00970363
0.00951703
0.00933709
0.00916431
0.0089989
0.00884088
0.00869011
0.0085464
0.00840946
0.008279
0.00815472
0.00803628
0.00792339
0.00781574
0.00771303
0.00761498
0.00752134
0.00743184
0.00734626
0.00726437
0.00718597
0.0113786
0.0113249
0.0111997
0.0110009
0.0107442
0.0104511
0.0101407
0.00982717
0.00952002
0.00922488
0.00894479
0.00868112
0.00843415
0.00820345
0.00798818
0.00778734
0.00759987
0.00742475
0.00726099
0.00710765
0.00696389
0.00682893
0.00670204
0.0065826
0.00647
0.00636371
0.00626326
0.00616821
0.00607815
0.00599274
0.00591162
0.00583452
0.00576115
0.0113536
0.011126
0.0107259
0.0102229
0.00968832
0.00916705
0.00868064
0.00823688
0.00783646
0.00747677
0.00715407
0.00686444
0.00660376
0.00636828
0.00615476
0.00596041
0.00578287
0.00562012
0.00547045
0.00533237
0.00520464
0.00508615
0.00497596
0.00487325
0.00477731
0.00468749
0.00460324
0.00452408
0.00444956
0.00437931
0.00431297
0.00425024
0.00419084
0.0111683
0.0102731
0.00924316
0.00829367
0.00748992
0.00682636
0.00627847
0.00582284
0.00544041
0.00511624
0.00483928
0.00459995
0.00439098
0.00420686
0.00404337
0.00389717
0.00376565
0.00364667
0.00353852
0.00343977
0.00334924
0.00326595
0.00318905
0.00311784
0.00305171
0.00299014
0.00293267
0.0028789
0.0028285
0.00278116
0.0027366
0.0026946
0.00265494
0.00982659
0.0072389
0.00577405
0.00486951
0.00424873
0.00378755
0.00342701
0.00314024
0.00290887
0.00271813
0.00255776
0.00242093
0.0023028
0.00219976
0.00210909
0.00202868
0.00195686
0.0018923
0.00183394
0.00178091
0.0017325
0.00168811
0.00164725
0.0016095
0.00157452
0.001542
0.00151169
0.00148337
0.00145683
0.00143192
0.00140849
0.0013864
0.00136554
0.00414167
0.00254161
0.00204418
0.00174836
0.00154034
0.00137827
0.00124767
0.00114134
0.00105377
0.00098091
0.000919644
0.000867562
0.000822823
0.000784022
0.000750081
0.000720164
0.000693613
0.000669906
0.00064862
0.000629415
0.000612009
0.000596171
0.000581705
0.000568449
0.000556263
0.000545029
0.000534645
0.000525024
0.000516089
0.000507773
0.000500019
0.000492775
0.000485989
0.000119434
0.000124352
0.000129424
0.000134072
0.000138235
0.000142037
0.000145562
0.000148849
0.000151924
0.000154806
0.000157512
0.000160054
0.000162444
0.000164691
0.000166805
0.000168794
0.000170666
0.000172429
0.000174087
0.000175649
0.000177119
0.000178503
0.000179807
0.000181034
0.00018219
0.000183279
0.000184304
0.00018527
0.000186181
0.000187038
0.000187846
0.000188607
0.000189325
6.59677e-05
7.8096e-05
9.79068e-05
0.000124182
0.000156148
0.000192545
0.000232119
0.000273542
0.000315462
0.000356662
0.00039625
0.000433763
0.000469147
0.000502657
0.000534711
0.000565753
0.000596162
0.000626205
0.000656027
0.000685687
0.000715185
0.000744508
0.000773648
0.00080262
0.000831457
0.000860208
0.000888924
0.000917654
0.000946441
0.000975317
0.00100431
0.00103343
0.00106271
0.00109214
0.00112174
0.00115151
0.00118146
0.0012116
0.00124194
0.00127251
0.00130333
0.00133442
0.00136584
0.00139764
0.00142987
0.00146263
0.00149601
0.00153013
0.0015651
0.00160109
0.00163826
0.00167678
0.00171687
0.00175873
0.00180259
0.00184868
0.00189726
0.00194855
0.00200281
0.00206024
0.00212106
0.00218543
0.00225348
0.00232531
0.00240094
0.00248037
0.00256352
0.00265026
0.00274041
0.00283374
0.00292998
0.00302883
0.00312994
0.00323294
0.00333747
0.00344312
0.00354948
0.00365616
0.00376275
0.00386885
0.00397408
0.00407807
0.00418047
0.00428094
0.00437917
0.00447487
0.00456778
0.00465767
0.00474433
0.00482758
0.00490728
0.00498328
0.00505552
0.00512387
0.00518837
0.00524885
0.00530565
0.00535827
0.00540638
0.00547051
0.000121855
0.000121643
0.000123435
0.000128365
0.000136195
0.000146955
0.000160747
0.000177675
0.000197787
0.000221067
0.000247407
0.000276578
0.000308222
0.000341865
0.000376946
0.000412873
0.000449079
0.000485079
0.000520516
0.000555176
0.000588982
0.000621964
0.000654217
0.000685865
0.000717036
0.000747841
0.000778375
0.000808714
0.000838924
0.000869061
0.000899175
0.000929312
0.000959514
0.000989819
0.00102026
0.00105087
0.00108168
0.00111271
0.001144
0.00117559
0.00120751
0.00123981
0.00127255
0.00130578
0.0013396
0.0013741
0.00140937
0.00144555
0.00148278
0.00152122
0.00156104
0.00160243
0.00164561
0.0016908
0.00173821
0.00178809
0.00184068
0.00189619
0.00195484
0.00201682
0.00208231
0.0021514
0.0022242
0.00230071
0.00238091
0.00246473
0.00255202
0.00264261
0.00273628
0.00283275
0.00293174
0.00303292
0.00313597
0.00324053
0.00334624
0.00345275
0.00355969
0.0036667
0.00377342
0.00387952
0.00398466
0.0040885
0.00419074
0.00429107
0.00438921
0.0044849
0.0045779
0.00466799
0.00475496
0.00483864
0.00491888
0.00499554
0.00506855
0.00513778
0.00520324
0.00526477
0.00532269
0.00537652
0.00542575
0.0054917
0.000240023
0.000235387
0.000230545
0.000226087
0.000222629
0.000220668
0.000220411
0.000221987
0.000225643
0.000231663
0.000240328
0.000251876
0.000266462
0.000284141
0.000304845
0.000328398
0.000354516
0.000382844
0.000412973
0.000444475
0.000476934
0.000509967
0.000543251
0.000576533
0.000609639
0.000642467
0.000674979
0.000707185
0.000739127
0.000770864
0.000802463
0.000833991
0.000865512
0.000897086
0.000928769
0.000960612
0.000992669
0.00102499
0.00105763
0.00109063
0.00112408
0.00115802
0.00119253
0.00122771
0.00126364
0.00130043
0.00133822
0.00137715
0.00141736
0.00145904
0.00150236
0.00154754
0.00159477
0.00164429
0.0016963
0.00175103
0.00180868
0.00186945
0.00193351
0.00200099
0.00207198
0.00214655
0.00222468
0.00230634
0.0023914
0.00247973
0.00257112
0.00266534
0.00276212
0.00286119
0.00296222
0.00306492
0.00316895
0.00327401
0.00337978
0.00348595
0.00359221
0.00369826
0.00380383
0.00390861
0.00401235
0.00411476
0.00421557
0.00431455
0.00441144
0.004506
0.00459802
0.00468728
0.0047736
0.00485681
0.00493676
0.00501331
0.00508636
0.0051558
0.00522161
0.00528363
0.00534215
0.00539671
0.00544663
0.00551383
0.000435133
0.000426873
0.000418754
0.000410869
0.000403346
0.00039628
0.000389742
0.00038383
0.000378625
0.000374176
0.000370606
0.000368119
0.000367001
0.000367607
0.000370318
0.000375502
0.00038346
0.000394389
0.000408354
0.000425289
0.000445012
0.000467253
0.00049169
0.000517978
0.000545775
0.000574768
0.00060468
0.000635283
0.000666397
0.000697891
0.000729678
0.000761709
0.000793968
0.000826461
0.000859214
0.000892264
0.000925661
0.000959461
0.000993725
0.00102852
0.00106393
0.00110003
0.00113692
0.0011747
0.00121349
0.00125341
0.00129461
0.00133724
0.00138148
0.00142749
0.00147547
0.00152561
0.00157812
0.00163319
0.001691
0.00175175
0.00181557
0.00188261
0.00195295
0.00202666
0.00210375
0.00218417
0.00226784
0.00235462
0.00244433
0.00253676
0.00263164
0.0027287
0.00282766
0.00292821
0.00303006
0.00313292
0.00323651
0.00334055
0.00344479
0.00354899
0.00365292
0.00375635
0.00385907
0.00396088
0.00406157
0.00416094
0.00425878
0.00435488
0.00444906
0.0045411
0.00463081
0.004718
0.00480251
0.00488415
0.00496278
0.00503825
0.00511046
0.00517929
0.00524469
0.0053065
0.00536497
0.00541969
0.00546978
0.00553753
0.000691616
0.000679364
0.000667482
0.000656119
0.000645362
0.000635199
0.000625581
0.000616446
0.000607783
0.000599548
0.000591687
0.000584175
0.000577031
0.000570328
0.000564206
0.000558865
0.000554568
0.000551627
0.00055038
0.000551161
0.000554273
0.000559952
0.000568349
0.00057952
0.000593427
0.000609954
0.000628926
0.000650133
0.000673348
0.000698346
0.00072492
0.000752885
0.000782088
0.000812407
0.000843752
0.000876063
0.000909309
0.000943482
0.000978598
0.00101469
0.00105182
0.00109005
0.00112947
0.00117017
0.00121228
0.00125593
0.00130124
0.00134837
0.00139748
0.00144873
0.00150229
0.00155832
0.00161698
0.00167843
0.00174278
0.00181015
0.00188062
0.00195423
0.00203099
0.00211086
0.00219376
0.00227956
0.00236808
0.00245912
0.00255242
0.00264771
0.0027447
0.0028431
0.00294261
0.00304294
0.00314381
0.00324497
0.00334618
0.00344725
0.00354797
0.0036482
0.00374777
0.00384656
0.00394444
0.00404129
0.00413698
0.00423139
0.00432439
0.00441583
0.00450556
0.00459342
0.00467924
0.00476288
0.00484415
0.0049229
0.00499897
0.00507222
0.00514252
0.00520974
0.00527383
0.00533459
0.00539225
0.00544641
0.00549603
0.0055635
0.00102157
0.00100376
0.000986603
0.000970236
0.000954764
0.000940184
0.000926437
0.000913435
0.000901097
0.000889352
0.000878117
0.000867324
0.000856928
0.000846913
0.00083729
0.000828102
0.000819426
0.00081137
0.000804079
0.000797728
0.00079252
0.000788682
0.000786447
0.000786051
0.000787711
0.000791611
0.000797899
0.000806668
0.000817966
0.000831791
0.000848102
0.000866828
0.000887878
0.000911154
0.000936555
0.000963991
0.000993382
0.00102467
0.00105781
0.00109278
0.00112958
0.00116823
0.00120877
0.00125126
0.00129578
0.0013424
0.00139123
0.00144237
0.00149594
0.00155205
0.0016108
0.00167231
0.00173666
0.00180391
0.00187413
0.00194733
0.0020235
0.00210259
0.00218452
0.00226915
0.00235633
0.00244583
0.00253742
0.00263083
0.00272574
0.00282187
0.00291889
0.0030165
0.0031144
0.00321232
0.00331001
0.00340727
0.00350391
0.00359979
0.00369479
0.00378883
0.00388184
0.00397379
0.00406464
0.00415435
0.00424291
0.00433026
0.00441635
0.00450111
0.00458444
0.00466624
0.00474639
0.00482474
0.00490115
0.00497547
0.00504754
0.00511722
0.00518436
0.00524881
0.0053105
0.00536922
0.00542515
0.00547791
0.00552632
0.00559249
0.0014436
0.00141783
0.00139312
0.00136956
0.00134723
0.00132615
0.00130624
0.00128742
0.00126959
0.00125266
0.00123655
0.00122117
0.00120649
0.00119246
0.00117908
0.00116638
0.00115437
0.00114311
0.00113266
0.0011231
0.00111452
0.00110701
0.0011007
0.0010957
0.00109217
0.00109023
0.00109005
0.00109178
0.00109556
0.00110152
0.00110979
0.00112046
0.00113361
0.0011493
0.00116757
0.00118843
0.00121191
0.001238
0.00126671
0.00129804
0.00133199
0.00136857
0.00140781
0.00144973
0.00149437
0.00154176
0.00159195
0.00164499
0.00170093
0.00175981
0.00182167
0.00188653
0.00195439
0.00202524
0.00209905
0.00217575
0.00225523
0.00233737
0.00242199
0.00250888
0.0025978
0.00268848
0.00278062
0.00287388
0.00296794
0.00306247
0.00315712
0.00325159
0.00334559
0.00343886
0.00353117
0.00362236
0.00371228
0.00380085
0.00388802
0.00397377
0.00405812
0.00414112
0.00422282
0.00430329
0.00438259
0.00446077
0.00453786
0.00461387
0.00468878
0.00476253
0.00483507
0.00490628
0.00497605
0.00504424
0.0051107
0.00517528
0.00523783
0.00529818
0.00535623
0.00541176
0.00546489
0.00551527
0.0055616
0.00562531
0.00196954
0.00193323
0.00189848
0.00186534
0.00183384
0.00180398
0.00177569
0.00174888
0.00172344
0.00169929
0.00167632
0.00165447
0.00163366
0.00161389
0.00159513
0.0015774
0.00156074
0.00154518
0.00153078
0.0015176
0.00150569
0.0014951
0.00148592
0.00147818
0.00147197
0.00146736
0.00146442
0.00146324
0.00146392
0.00146654
0.00147122
0.00147807
0.0014872
0.00149871
0.0015127
0.00152929
0.00154855
0.00157058
0.00159546
0.00162324
0.00165399
0.00168776
0.00172462
0.00176459
0.00180771
0.00185402
0.00190355
0.0019563
0.00201229
0.0020715
0.00213392
0.00219951
0.00226821
0.00233993
0.00241457
0.00249198
0.00257199
0.0026544
0.00273896
0.0028254
0.00291343
0.0030027
0.00309286
0.00318357
0.00327444
0.00336512
0.00345527
0.00354456
0.00363269
0.00371943
0.00380456
0.00388792
0.00396942
0.00404901
0.00412667
0.00420247
0.00427649
0.00434884
0.00441967
0.00448912
0.00455736
0.00462452
0.00469072
0.00475608
0.00482064
0.00488443
0.00494745
0.00500965
0.00507095
0.00513123
0.00519038
0.00524823
0.00530464
0.00535943
0.00541247
0.00546353
0.00551267
0.00555955
0.00560281
0.00566273
0.00259986
0.00255096
0.00250414
0.00245941
0.00241677
0.00237618
0.00233758
0.00230087
0.00226593
0.00223269
0.00220104
0.00217089
0.0021422
0.00211493
0.00208907
0.00206463
0.00204166
0.00202019
0.00200028
0.00198199
0.00196536
0.00195046
0.00193734
0.00192604
0.00191661
0.00190908
0.0019035
0.00189991
0.00189835
0.00189888
0.00190155
0.00190643
0.00191359
0.00192311
0.00193508
0.00194958
0.00196673
0.0019866
0.0020093
0.00203491
0.00206353
0.00209524
0.00213012
0.00216821
0.00220958
0.00225427
0.0023023
0.00235369
0.00240841
0.00246645
0.00252774
0.00259223
0.00265981
0.00273036
0.0028037
0.00287967
0.00295802
0.00303851
0.00312085
0.00320471
0.00328975
0.00337559
0.00346186
0.00354815
0.00363409
0.00371927
0.00380336
0.00388601
0.00396692
0.00404585
0.0041226
0.00419702
0.00426903
0.00433859
0.00440576
0.00447059
0.00453324
0.00459388
0.00465272
0.00470998
0.00476589
0.00482069
0.0048746
0.0049278
0.00498045
0.00503266
0.0050845
0.00513599
0.00518711
0.0052378
0.00528795
0.00533745
0.00538615
0.00543386
0.00548044
0.00552566
0.00556951
0.00561168
0.0056508
0.00570543
0.00332324
0.00326076
0.0032008
0.00314337
0.00308842
0.00303591
0.00298577
0.00293789
0.00289218
0.00284854
0.00280688
0.00276711
0.00272919
0.00269306
0.00265874
0.00262622
0.00259555
0.00256676
0.00253991
0.00251506
0.00249228
0.00247161
0.00245311
0.00243683
0.00242281
0.00241108
0.00240167
0.0023946
0.00238991
0.0023876
0.00238772
0.00239029
0.00239534
0.00240293
0.0024131
0.00242591
0.00244143
0.00245972
0.00248086
0.00250492
0.00253198
0.00256211
0.00259537
0.00263184
0.00267155
0.00271454
0.00276083
0.00281042
0.00286329
0.00291941
0.00297869
0.00304106
0.00310639
0.00317451
0.00324526
0.0033184
0.00339369
0.00347083
0.0035495
0.00362935
0.00371
0.00379107
0.00387214
0.00395279
0.00403263
0.00411126
0.00418831
0.00426344
0.00433635
0.00440678
0.00447454
0.00453949
0.00460154
0.00466069
0.00471698
0.00477051
0.00482144
0.00487
0.00491642
0.004961
0.00500403
0.00504581
0.00508664
0.00512679
0.00516651
0.00520601
0.00524544
0.00528491
0.00532446
0.00536411
0.00540381
0.00544346
0.00548296
0.00552213
0.00556083
0.00559883
0.00563608
0.00567227
0.00570611
0.00575387
0.00411867
0.00404293
0.00397003
0.00389995
0.00383264
0.00376806
0.00370612
0.00364674
0.00358983
0.0035353
0.00348307
0.00343306
0.00338522
0.00333952
0.00329595
0.00325452
0.00321527
0.00317823
0.00314347
0.00311104
0.00308101
0.00305344
0.00302839
0.0030059
0.00298602
0.00296878
0.00295422
0.00294236
0.00293322
0.0029268
0.00292313
0.00292222
0.00292408
0.00292873
0.0029362
0.00294651
0.00295971
0.00297581
0.00299487
0.00301694
0.00304205
0.00307026
0.0031016
0.0031361
0.00317381
0.00321473
0.00325886
0.00330618
0.00335667
0.00341025
0.00346685
0.00352635
0.00358862
0.00365347
0.0037207
0.00379008
0.00386132
0.00393411
0.00400812
0.00408298
0.00415829
0.00423364
0.00430863
0.00438282
0.00445582
0.0045272
0.00459662
0.00466372
0.00472821
0.00478983
0.00484838
0.00490373
0.00495579
0.00500455
0.00505006
0.00509244
0.00513185
0.00516853
0.00520273
0.00523478
0.00526502
0.00529378
0.00532144
0.00534833
0.00537478
0.00540108
0.00542746
0.00545413
0.00548122
0.00550882
0.00553695
0.00556558
0.00559464
0.005624
0.00565354
0.00568304
0.00571244
0.00574142
0.00576886
0.00580814
0.00495875
0.00487142
0.00478706
0.00470562
0.00462708
0.00455138
0.00447847
0.00440827
0.00434071
0.00427573
0.00421325
0.00415321
0.00409558
0.00404032
0.00398744
0.00393695
0.00388888
0.00384328
0.00380021
0.00375974
0.00372191
0.00368681
0.00365448
0.00362499
0.00359839
0.00357471
0.003554
0.00353627
0.00352155
0.00350986
0.0035012
0.00349558
0.00349301
0.0034935
0.00349706
0.00350368
0.0035134
0.0035262
0.00354213
0.00356118
0.00358337
0.00360873
0.00363726
0.00366897
0.00370385
0.0037419
0.00378308
0.00382736
0.00387468
0.00392494
0.00397806
0.00403388
0.00409226
0.004153
0.00421587
0.00428061
0.00434694
0.00441454
0.00448304
0.00455207
0.00462124
0.00469012
0.00475831
0.00482538
0.00489093
0.00495456
0.0050159
0.00507462
0.00513043
0.00518307
0.00523236
0.00527816
0.00532038
0.00535901
0.0053941
0.00542575
0.00545415
0.0054795
0.00550208
0.00552221
0.00554025
0.00555656
0.00557154
0.00558557
0.00559903
0.00561228
0.00562562
0.00563934
0.00565367
0.00566875
0.00568471
0.00570158
0.00571936
0.00573799
0.00575737
0.00577733
0.00579779
0.00581846
0.00583849
0.00586776
0.00581325
0.00571717
0.00562392
0.00553351
0.00544592
0.0053611
0.00527902
0.00519966
0.00512294
0.00504884
0.0049773
0.00490828
0.00484177
0.00477775
0.00471623
0.00465724
0.00460081
0.004547
0.00449586
0.00444747
0.00440188
0.00435918
0.00431942
0.00428267
0.00424899
0.00421842
0.004191
0.00416677
0.00414576
0.00412799
0.00411347
0.0041022
0.00409421
0.00408948
0.00408802
0.00408984
0.00409493
0.00410328
0.0041149
0.00412977
0.0041479
0.00416928
0.00419388
0.00422169
0.00425268
0.0042868
0.00432401
0.00436423
0.00440738
0.00445335
0.004502
0.00455319
0.00460673
0.00466241
0.00471999
0.00477919
0.00483971
0.00490122
0.00496336
0.00502574
0.00508797
0.00514964
0.00521033
0.00526964
0.00532717
0.00538253
0.00543537
0.00548537
0.00553225
0.00557578
0.00561576
0.00565206
0.00568462
0.00571341
0.00573847
0.00575992
0.0057779
0.00579262
0.00580436
0.00581342
0.00582014
0.0058249
0.00582809
0.00583011
0.00583137
0.00583225
0.00583314
0.00583436
0.00583619
0.0058389
0.00584265
0.00584757
0.00585373
0.00586114
0.00586976
0.00587948
0.00589022
0.00590173
0.00591353
0.0059315
0.00665244
0.00655119
0.00645246
0.00635625
0.00626257
0.00617142
0.00608279
0.00599668
0.00591307
0.00583194
0.00575327
0.00567706
0.0056033
0.00553201
0.00546321
0.00539693
0.00533323
0.00527217
0.0052138
0.00515822
0.00510548
0.00505567
0.00500887
0.00496513
0.00492452
0.00488711
0.00485294
0.00482206
0.0047945
0.00477029
0.00474945
0.00473199
0.00471794
0.00470728
0.00470004
0.00469619
0.00469574
0.00469868
0.00470499
0.00471466
0.00472766
0.00474396
0.00476354
0.00478635
0.00481233
0.00484142
0.00487354
0.0049086
0.0049465
0.00498708
0.00503022
0.00507572
0.00512339
0.00517299
0.00522427
0.00527694
0.0053307
0.00538519
0.00544006
0.00549492
0.00554939
0.00560306
0.00565553
0.0057064
0.0057553
0.00580185
0.00584573
0.00588663
0.00592428
0.00595848
0.00598905
0.00601587
0.00603887
0.00605804
0.00607342