/*--------------------------------*- C++ -*----------------------------------*\
| =========                 |                                                 |
| \\      /  F ield         | OpenFOAM: The Open Source CFD Toolbox           |
|  \\    /   O peration     | Version:  4.1                                   |
|   \\  /    A nd           | Web:      www.OpenFOAM.org                      |
|    \\/     M anipulation  |                                                 |
\*---------------------------------------------------------------------------*/
FoamFile
{
    version     2.0;
    format      ascii;
    class       volScalarField;
    location    "2000";
    object      omega;
}
// * * * * * * * * * * * * * * * * * * * * * * * * * * * * * * * * * * * * * //

dimensions      [0 0 -1 0 0 0 0];

internalField   nonuniform List<scalar> 
6820
(
7254.63
8569.06
9629.25
10283
10668.4
10885.8
10995.8
11034.9
11026.8
10987.3
10927.3
10854.4
10774
10689.7
10604.1
10519.1
10435.8
10355
10277.3
10202.9
10131.9
10064.5
10000.5
9939.91
9882.59
9828.39
9777.15
9728.76
9682.88
9640.08
9596.68
9568.77
9476.74
600.799
1554.22
2092.91
2435.19
2698.34
2895.12
3033.36
3126.97
3188.98
3229.02
3253.96
3268.67
3276.59
3280.08
3280.77
3279.75
3277.78
3275.36
3272.82
3270.38
3268.18
3266.28
3264.73
3263.55
3262.74
3262.3
3262.23
3262.55
3263.31
3264.58
3266.52
3269.1
3274.44
107.108
368.908
596.394
767.386
894.981
993.334
1070.57
1131.54
1179.69
1217.64
1247.46
1270.8
1289.01
1303.19
1314.18
1322.7
1329.28
1334.37
1338.3
1341.35
1343.75
1345.65
1347.2
1348.5
1349.63
1350.67
1351.66
1352.64
1353.67
1354.76
1355.96
1357.3
1358.99
37.6577
108.378
189.201
265.511
332.231
389.334
437.981
479.462
514.908
545.244
571.226
593.485
612.563
628.92
642.954
655.003
665.358
674.268
681.945
688.572
694.303
699.272
703.59
707.355
710.65
713.545
716.102
718.374
720.408
722.244
723.922
725.474
726.95
23.8008
47.5371
77.7008
109.824
141.237
170.722
197.836
222.517
244.874
265.072
283.289
299.703
314.482
327.786
339.761
350.542
360.253
369.004
376.895
384.019
390.455
396.277
401.549
406.331
410.675
414.627
418.229
421.52
424.533
427.3
429.851
432.213
434.42
19.8177
29.4751
42.5079
57.2096
72.4554
87.572
102.186
116.107
129.248
141.581
153.109
163.852
173.844
183.124
191.734
199.716
207.113
213.967
220.316
226.2
231.654
236.711
241.402
245.758
249.804
253.566
257.067
260.328
263.371
266.213
268.873
271.367
273.714
18.4341
22.8152
29.1685
36.6489
44.6826
52.9063
61.0978
69.1228
76.901
84.3847
91.5472
98.3755
104.866
111.022
116.85
122.361
127.566
132.478
137.113
141.483
145.603
149.486
153.148
156.6
159.855
162.926
165.825
168.561
171.147
173.592
175.906
178.098
180.177
17.9115
19.9902
23.3042
27.4134
31.9742
36.7598
41.6266
46.4842
51.2744
55.9589
60.5126
64.9193
69.1693
73.2571
77.1807
80.9402
84.5377
87.9764
91.2606
94.3949
97.3848
100.236
102.953
105.543
108.012
110.365
112.607
114.744
116.783
118.727
120.582
122.352
124.044
17.7059
18.7013
20.4734
22.8216
25.5371
28.4654
31.5039
34.5854
37.6658
40.7152
43.713
46.645
49.5016
52.2762
54.9648
57.5649
60.0756
62.4967
64.829
67.0738
69.2328
71.3082
73.3022
75.2174
77.0564
78.8219
80.5166
82.1433
83.7047
85.2036
86.6426
88.0242
89.3511
17.6233
18.0951
19.0401
20.3949
22.0449
23.887
25.8451
27.8668
29.9162
31.9684
34.006
36.0168
37.9918
39.925
41.8118
43.6493
45.4355
47.1692
48.8499
50.4776
52.0526
53.5755
55.0472
56.4687
57.8411
59.1657
60.4439
61.6771
62.8666
64.014
65.1205
66.1876
67.2167
17.5896
17.8082
18.3025
19.0753
20.0762
21.243
22.5218
23.8719
25.2637
26.6759
28.0933
29.5047
30.9021
32.2796
33.6328
34.9585
36.2545
37.5192
38.7515
39.9508
41.1168
42.2494
43.3488
44.4153
45.4494
46.4516
47.4226
48.363
49.2736
50.1551
51.0083
51.8339
52.6326
17.5758
17.6732
17.924
18.3539
18.9503
19.682
20.5146
21.4186
22.3704
23.3521
24.3503
25.3549
26.3586
27.3555
28.3415
29.3133
30.2685
31.2054
32.1226
33.0192
33.8945
34.7481
35.5799
36.3898
37.1778
37.9442
38.6891
39.4128
40.1158
40.7983
41.4609
42.1038
42.7275
17.5702
17.6104
17.7324
17.9633
18.3084
18.7568
19.2901
19.889
20.5362
21.2175
21.9217
22.6397
23.3649
24.0919
24.8165
25.5356
26.2467
26.9479
27.6378
28.3151
28.9792
29.6294
30.2652
30.8865
31.4929
32.0845
32.6612
33.2232
33.7705
34.3034
34.8219
35.3263
35.8168
17.5678
17.5817
17.6374
17.7559
17.9479
18.2137
18.5461
18.9344
19.3672
19.8343
20.3268
20.8373
21.3597
21.8894
22.4224
22.9557
23.4869
24.014
24.5354
25.0501
25.5569
26.0552
26.5444
27.024
27.4939
27.9536
28.4032
28.8424
29.2714
29.6901
30.0985
30.4967
30.8848
17.5669
17.5687
17.5913
17.6483
17.7501
17.9012
18.1009
18.3448
18.6268
18.9402
19.2785
19.6362
20.0084
20.3909
20.7804
21.174
21.5694
21.9647
22.3585
22.7494
23.1365
23.5189
23.896
24.2672
24.6321
24.9905
25.3421
25.6866
26.024
26.3542
26.6772
26.9928
27.3011
17.5665
17.563
17.5695
17.5941
17.6444
17.7258
17.8405
17.9877
18.1651
18.369
18.5955
18.8405
19.1005
19.3722
19.6527
19.9397
20.2311
20.5251
20.8204
21.1156
21.4098
21.7021
21.9918
22.2784
22.5614
22.8405
23.1152
23.3853
23.6508
23.9113
24.1668
24.4172
24.6625
17.5663
17.5605
17.5594
17.5675
17.5897
17.6303
17.6923
17.7769
17.8837
18.0113
18.1577
18.3205
18.4972
18.6856
18.8834
19.0888
19.2999
19.5153
19.7338
19.9541
20.1754
20.3968
20.6176
20.8373
21.0553
21.2713
21.485
21.6959
21.9039
22.1088
22.3104
22.5086
22.7033
17.5662
17.5595
17.5549
17.5548
17.5621
17.5799
17.6107
17.6561
17.7169
17.7929
17.8836
17.9876
18.1036
18.2302
18.3657
18.5089
18.6583
18.8128
18.9714
19.1329
19.2967
19.4619
19.628
19.7944
19.9605
20.1261
20.2906
20.4539
20.6157
20.7757
20.9338
21.0898
21.2435
17.5662
17.559
17.5529
17.5489
17.5487
17.5542
17.5672
17.5891
17.6211
17.6636
17.7166
17.7799
17.8528
17.9345
18.0241
18.1207
18.2233
18.3311
18.4432
18.559
18.6776
18.7985
18.9211
19.045
19.1696
19.2947
19.4198
19.5447
19.6691
19.7928
19.9155
20.0372
20.1576
17.5662
17.5588
17.552
17.5462
17.5424
17.5415
17.5447
17.5532
17.5679
17.5894
17.6181
17.6542
17.6975
17.7477
17.8043
17.8668
17.9347
18.0074
18.0842
18.1648
18.2484
18.3347
18.4233
18.5136
18.6053
18.698
18.7916
18.8857
18.98
19.0743
19.1685
19.2624
19.3558
17.5662
17.5588
17.5516
17.5451
17.5395
17.5354
17.5335
17.5346
17.5394
17.5483
17.562
17.5807
17.6044
17.6332
17.667
17.7055
17.7484
17.7954
17.8462
17.9004
17.9576
18.0175
18.0798
18.1441
18.2101
18.2776
18.3463
18.416
18.4865
18.5576
18.629
18.7006
18.7724
17.5662
17.5587
17.5515
17.5445
17.5381
17.5325
17.5281
17.5253
17.5246
17.5265
17.5312
17.5392
17.5506
17.5656
17.5843
17.6065
17.6322
17.6612
17.6934
17.7286
17.7666
17.807
17.8498
17.8946
17.9413
17.9896
18.0394
18.0905
18.1426
18.1956
18.2494
18.3038
18.3587
17.5662
17.5587
17.5514
17.5443
17.5376
17.5313
17.5256
17.5209
17.5174
17.5153
17.5151
17.517
17.5211
17.5277
17.5369
17.5487
17.5632
17.5804
17.6002
17.6225
17.6471
17.6741
17.7031
17.7342
17.7671
17.8017
17.8378
17.8753
17.914
17.9539
17.9947
18.0364
18.0788
17.5662
17.5587
17.5514
17.5442
17.5373
17.5307
17.5245
17.5189
17.514
17.5101
17.5074
17.506
17.5063
17.5083
17.5122
17.5181
17.5261
17.5363
17.5486
17.563
17.5795
17.5981
17.6186
17.6409
17.665
17.6907
17.718
17.7467
17.7767
17.8079
17.8402
17.8735
17.9077
17.5662
17.5587
17.5514
17.5442
17.5372
17.5306
17.5242
17.5183
17.513
17.5084
17.5048
17.5022
17.501
17.5012
17.503
17.5065
17.5117
17.5189
17.5279
17.5389
17.5517
17.5664
17.5829
17.6012
17.6212
17.6427
17.6657
17.6902
17.716
17.743
17.7711
17.8002
17.8303
17.5662
17.5587
17.5514
17.5442
17.5373
17.5307
17.5244
17.5187
17.5136
17.5094
17.5062
17.5041
17.5034
17.5042
17.5067
17.5108
17.5168
17.5246
17.5343
17.5459
17.5593
17.5746
17.5917
17.6104
17.6308
17.6528
17.6762
17.701
17.727
17.7543
17.7826
17.8119
17.8422
17.5662
17.5587
17.5514
17.5443
17.5376
17.5312
17.5255
17.5205
17.5166
17.5139
17.5127
17.5131
17.5153
17.5194
17.5256
17.5338
17.5442
17.5568
17.5714
17.5881
17.6068
17.6274
17.6498
17.674
17.6998
17.7271
17.7558
17.7858
17.817
17.8493
17.8826
17.9167
17.9517
17.5662
17.5587
17.5515
17.5446
17.5383
17.5328
17.5283
17.5254
17.5242
17.5251
17.5284
17.5344
17.543
17.5544
17.5687
17.5858
17.6056
17.6281
17.6531
17.6805
17.71
17.7417
17.7753
17.8106
17.8475
17.8859
17.9255
17.9663
18.0081
18.0509
18.0944
18.1386
18.1834
17.5662
17.5588
17.5518
17.5455
17.5403
17.5368
17.5355
17.5371
17.542
17.5507
17.5634
17.5803
17.6014
17.6267
17.656
17.689
17.7256
17.7655
17.8084
17.8539
17.902
17.9521
18.0042
18.0579
18.1131
18.1695
18.227
18.2853
18.3443
18.4039
18.4638
18.5241
18.5847
17.5663
17.5591
17.5527
17.548
17.5458
17.5473
17.5535
17.5653
17.5834
17.6079
17.6392
17.677
17.7211
17.771
17.8263
17.8865
17.9509
18.0192
18.0908
18.1651
18.2419
18.3207
18.401
18.4827
18.5654
18.6488
18.7328
18.817
18.9014
18.9857
19.0699
19.1537
19.2372
17.5663
17.5598
17.5555
17.5552
17.5611
17.5751
17.5988
17.6332
17.6786
17.7349
17.8015
17.8776
17.9624
18.0546
18.1535
18.2578
18.3668
18.4796
18.5954
18.7136
18.8335
18.9548
19.0768
19.1992
19.3218
19.4441
19.566
19.6872
19.8076
19.927
20.0452
20.1622
20.278
17.5666
17.5622
17.5642
17.5767
17.6039
17.6486
17.7124
17.7951
17.896
18.0132
18.145
18.289
18.4433
18.606
18.7753
18.9497
19.1279
19.3087
19.4912
19.6745
19.8581
20.0413
20.2236
20.4047
20.5843
20.7619
20.9376
21.111
21.282
21.4505
21.6165
21.7799
21.9405
17.5674
17.5706
17.5924
17.6417
17.7245
17.8427
17.995
18.1778
18.3868
18.6172
18.8646
19.125
19.3951
19.6719
19.953
20.2365
20.5208
20.8047
21.0871
21.3673
21.6445
21.9184
22.1886
22.4546
22.7164
22.9737
23.2264
23.4744
23.7178
23.9564
24.1903
24.4195
24.644
17.5706
17.6016
17.687
17.8408
18.0649
18.3527
18.6933
19.0751
19.4875
19.9213
20.3693
20.8257
21.286
21.7468
22.2053
22.6598
23.1087
23.5511
23.9861
24.4133
24.8323
25.2428
25.6447
26.038
26.4226
26.7986
27.1661
27.5251
27.8758
28.2184
28.5529
28.8796
29.1986
17.5854
17.7219
18.012
18.4558
19.0269
19.692
20.4205
21.1884
21.9778
22.7761
23.5742
24.3656
25.1458
25.912
26.6623
27.3959
28.112
28.8104
29.4912
30.1544
30.8003
31.4292
32.0414
32.6374
33.2174
33.782
34.3316
34.8665
35.3873
35.8942
36.3877
36.8683
37.3362
17.6614
18.2163
19.1615
20.3924
21.7983
23.2954
24.8285
26.3633
27.8794
29.3645
30.811
32.214
33.5724
34.8867
36.1579
37.3876
38.5771
39.7282
40.8422
41.9207
42.965
43.9766
44.9566
45.9063
46.8269
47.7195
48.585
49.4246
50.2392
51.0296
51.7968
52.5417
53.2649
18.1027
20.3856
23.4853
26.9261
30.4414
33.9034
37.2583
40.4818
43.5648
46.506
49.3034
51.9687
54.5134
56.9472
59.2786
61.5146
63.6615
65.7245
67.7085
69.6178
71.4563
73.2275
74.9347
76.581
78.1693
79.7021
81.182
82.6113
83.9924
85.3272
86.6178
87.866
89.0739
21.2182
31.4407
42.4859
53.1245
62.9728
72.0352
80.4369
88.194
95.3421
101.98
108.198
114.053
119.587
124.83
129.807
134.537
139.039
143.329
147.42
151.324
155.054
158.62
162.033
165.3
168.431
171.433
174.315
177.082
179.741
182.299
184.76
187.13
189.414
59.9537
123.961
170.318
207.141
238.336
266.971
293.908
319.086
342.453
364.002
383.806
401.992
418.711
434.116
448.348
461.537
473.799
485.233
495.929
505.963
515.403
524.308
532.728
540.71
548.291
555.508
562.392
568.968
575.262
581.296
587.088
592.657
598.021
1719.4
1778.23
1839.24
1895.41
1945.93
1992.23
2035.28
2075.52
2113.26
2148.7
2182.04
2213.4
2242.93
2270.74
2296.93
2321.61
2344.85
2366.75
2387.37
2406.81
2425.12
2442.37
2458.63
2473.95
2488.38
2501.98
2514.8
2526.88
2538.26
2548.99
2559.1
2568.63
2577.62
9372.75
8892
8341.22
7779.93
7245.1
6750.74
6302.6
5898.88
5534.45
5203.46
4900.86
4622.87
4366.8
4130.66
3912.85
3711.95
3526.58
3355.41
3197.19
3050.76
2915.03
2789.04
2671.89
2562.69
2460.65
2364.98
2274.94
2189.88
2109.19
2032.3
1958.74
1888.07
1819.9
1753.91
1689.78
1627.29
1566.2
1506.33
1447.55
1389.75
1332.83
1276.74
1221.47
1167.01
1113.39
1060.66
1008.89
958.179
908.628
860.355
813.487
768.153
724.479
682.585
642.581
604.56
568.6
534.755
503.06
473.525
446.136
420.859
397.637
376.399
357.055
339.506
323.644
309.355
296.525
285.036
274.776
265.633
257.5
250.278
243.87
238.186
233.144
228.665
224.678
221.117
217.92
215.035
212.411
210.003
207.772
205.684
203.707
201.814
199.983
198.194
196.428
194.673
192.915
191.144
189.353
187.531
185.681
183.771
181.96
179.231
3276.09
3322.82
3382.41
3440.35
3503.96
3571.04
3634.28
3685.25
3717.16
3725.65
3709.02
3667.78
3604.16
3521.49
3423.71
3314.97
3199.24
3080.05
2960.3
2842.18
2727.16
2616.16
2509.6
2407.63
2310.17
2217.05
2128.05
2042.89
1961.33
1883.07
1807.84
1735.37
1665.42
1597.74
1532.13
1468.38
1406.35
1345.9
1286.91
1229.29
1172.99
1117.97
1064.21
1011.72
960.529
910.673
862.214
815.221
769.775
725.958
683.857
643.553
605.121
568.626
534.122
501.645
471.216
442.838
416.495
392.153
369.763
349.259
330.563
313.587
298.234
284.402
271.987
260.883
250.985
242.193
234.408
227.537
221.49
216.184
211.541
207.486
203.95
200.871
198.188
195.846
193.795
191.988
190.383
188.941
187.629
186.415
185.272
184.175
183.105
182.043
180.974
179.884
178.763
177.601
176.391
175.124
173.805
172.405
171.056
168.963
1361.15
1366.32
1375.38
1387.14
1401.08
1417.33
1436.71
1460.82
1491.27
1528.83
1573.46
1624.2
1679.12
1735.48
1789.96
1839.06
1879.59
1909
1925.72
1929.26
1920.1
1899.49
1869.16
1831
1786.87
1738.39
1686.93
1633.55
1579.06
1524.06
1468.97
1414.11
1359.69
1305.88
1252.79
1200.5
1149.07
1098.55
1048.97
1000.38
952.807
906.303
860.913
816.69
773.692
731.985
691.636
652.715
615.292
579.433
545.198
512.641
481.804
452.719
425.404
399.862
376.085
354.049
333.715
315.035
297.949
282.386
268.271
255.521
244.051
233.775
224.605
216.457
209.248
202.899
197.333
192.479
188.269
184.639
181.528
178.881
176.644
174.767
173.203
171.909
170.842
169.964
169.242
168.64
168.131
167.687
167.283
166.897
166.512
166.11
165.677
165.201
164.671
164.078
163.416
162.677
161.864
160.954
160.05
158.577
728.59
730.516
732.562
734.647
736.771
739.064
741.761
745.057
749.166
754.64
762.073
772.041
785.046
801.464
821.471
844.979
871.579
900.509
930.675
960.726
989.181
1014.59
1035.67
1051.45
1061.35
1065.15
1062.97
1055.22
1042.45
1025.31
1004.48
980.601
954.249
925.942
896.123
865.171
833.41
801.116
768.527
735.849
703.264
670.935
639.008
607.617
576.884
546.922
517.833
489.712
462.644
436.7
411.944
388.427
366.185
345.244
325.616
307.302
290.289
274.557
260.072
246.795
234.677
223.666
213.704
204.731
196.687
189.508
183.135
177.508
172.57
168.266
164.543
161.351
158.645
156.378
154.509
152.997
151.803
150.891
150.225
149.771
149.496
149.371
149.366
149.453
149.607
149.804
150.022
150.242
150.446
150.617
150.743
150.811
150.811
150.733
150.572
150.319
149.977
149.526
149.043
148.159
436.804
439.413
441.91
444.169
446.113
447.759
449.173
450.449
451.651
452.883
454.289
456.027
458.259
461.151
464.865
469.548
475.326
482.286
490.456
499.789
510.146
521.286
532.865
544.459
555.581
565.729
574.421
581.239
585.853
588.043
587.704
584.831
579.513
571.901
562.199
550.636
537.455
522.901
507.21
490.61
473.313
455.516
437.402
419.138
400.877
382.757
364.904
347.431
330.434
314.001
298.203
283.1
268.738
255.153
242.368
230.395
219.239
208.892
199.344
190.574
182.557
175.265
168.666
162.726
157.409
152.679
148.5
144.838
141.658
138.926
136.612
134.683
133.112
131.868
130.925
130.256
129.834
129.634
129.63
129.797
130.11
130.545
131.079
131.688
132.351
133.047
133.756
134.459
135.14
135.784
136.376
136.905
137.36
137.73
138.01
138.19
138.273
138.24
138.142
137.807
276.275
279.067
281.749
284.257
286.538
288.575
290.382
291.985
293.417
294.708
295.9
297.034
298.15
299.286
300.481
301.77
303.192
304.783
306.578
308.606
310.89
313.437
316.237
319.258
322.438
325.691
328.901
331.93
334.629
336.84
338.414
339.217
339.137
338.095
336.043
332.966
328.881
323.832
317.885
311.124
303.644
295.551
286.951
277.954
268.668
259.195
249.633
240.074
230.6
221.287
212.201
203.399
194.928
186.828
179.13
171.857
165.024
158.642
152.714
147.238
142.21
137.621
133.458
129.708
126.355
123.383
120.774
118.512
116.579
114.957
113.63
112.581
111.794
111.252
110.938
110.837
110.931
111.204
111.638
112.214
112.916
113.725
114.621
115.586
116.601
117.649
118.71
119.769
120.808
121.814
122.771
123.667
124.491
125.232
125.883
126.434
126.883
127.218
127.463
127.622
182.468
184.982
187.416
189.743
191.935
193.977
195.867
197.612
199.221
200.707
202.082
203.359
204.548
205.658
206.692
207.656
208.551
209.381
210.151
210.865
211.53
212.152
212.74
213.3
213.832
214.336
214.802
215.214
215.547
215.769
215.841
215.719
215.359
214.713
213.742
212.41
210.689
208.564
206.029
203.089
199.759
196.066
192.042
187.728
183.169
178.413
173.51
168.511
163.463
158.415
153.41
148.488
143.685
139.033
134.558
130.284
126.228
122.406
118.827
115.5
112.427
109.611
107.052
104.745
102.689
100.876
99.3023
97.9603
96.843
95.9433
95.2535
94.7657
94.4722
94.3644
94.4339
94.6713
95.0671
95.6107
96.2911
97.0962
98.0133
99.0287
100.128
101.296
102.518
103.778
105.059
106.347
107.625
108.88
110.097
111.262
112.364
113.392
114.336
115.187
115.94
116.584
117.12
117.71
125.922
127.998
130.024
131.989
133.877
135.678
137.389
139.01
140.543
141.99
143.356
144.645
145.858
146.996
148.057
149.038
149.934
150.741
151.454
152.069
152.582
152.992
153.299
153.505
153.612
153.623
153.542
153.371
153.111
152.761
152.317
151.775
151.126
150.361
149.467
148.433
147.249
145.905
144.394
142.711
140.856
138.832
136.647
134.313
131.843
129.256
126.573
123.815
121.006
118.17
115.33
112.509
109.73
107.011
104.373
101.831
99.3998
97.092
94.9179
92.886
91.003
89.2736
87.7014
86.2886
85.036
83.944
83.0118
82.2383
81.6218
81.1602
80.8513
80.6924
80.6804
80.8122
81.0839
81.4912
82.0294
82.6926
83.4745
84.3678
85.3639
86.4535
87.6262
88.8705
90.1743
91.5245
92.9076
94.3095
95.7163
97.1139
98.4886
99.8269
101.117
102.345
103.503
104.578
105.566
106.455
107.227
108.175
90.833
92.4814
94.1022
95.6886
97.2327
98.7284
100.172
101.563
102.899
104.181
105.41
106.586
107.708
108.776
109.786
110.735
111.617
112.428
113.161
113.811
114.373
114.843
115.216
115.491
115.667
115.744
115.724
115.608
115.4
115.102
114.718
114.249
113.697
113.063
112.349
111.552
110.674
109.712
108.667
107.538
106.325
105.031
103.658
102.211
100.697
99.1213
97.4943
95.826
94.1273
92.4102
90.687
88.9701
87.2718
85.6042
83.9787
82.4061
80.8963
79.4583
78.1
76.8284
75.6494
74.568
73.5883
72.7137
71.9466
71.2892
70.7428
70.3085
69.9871
69.7791
69.6846
69.7036
69.8358
70.0809
70.4378
70.9054
71.482
72.1651
72.9516
73.8378
74.8186
75.8883
77.04
78.2655
79.5558
80.9008
82.2895
83.7101
85.1503
86.5974
88.0386
89.4609
90.8517
92.1989
93.4912
94.7171
95.8692
96.9382
97.887
99.1157
68.3715
69.6625
70.9392
72.1976
73.4333
74.6425
75.8225
76.9716
78.0883
79.1719
80.222
81.2378
82.2184
83.162
84.0662
84.9277
85.7427
86.5068
87.2152
87.863
88.4454
88.958
89.3969
89.7587
90.0411
90.2424
90.3621
90.4004
90.3582
90.2371
90.0394
89.7676
89.4243
89.0123
88.5344
87.9931
87.391
86.7303
86.0134
85.2426
84.4202
83.5491
82.6322
81.673
80.6755
79.6445
78.585
77.5029
76.4046
75.2966
74.1862
73.0805
71.9871
70.9131
69.8659
68.8524
67.8791
66.9523
66.0776
65.2602
64.5048
63.8154
63.1956
62.6486
62.1771
61.7834
61.4696
61.2374
61.0884
61.0241
61.0457
61.1545
61.3514
61.6374
62.0132
62.4793
63.0358
63.6825
64.4186
65.2426
66.1524
67.1449
68.216
69.3608
70.573
71.8455
73.1699
74.537
75.9367
77.3581
78.7898
80.22
81.6369
83.0285
84.3834
85.6899
86.9393
88.1234
89.1913
90.6219
53.5324
54.5424
55.5457
56.5399
57.5225
58.491
59.4435
60.3785
61.2946
62.1908
63.0665
63.9207
64.7522
65.5596
66.341
67.0938
67.8152
68.502
69.1505
69.757
70.3177
70.8289
71.2872
71.6892
72.0325
72.3149
72.5348
72.6912
72.7839
72.8132
72.7798
72.6852
72.5309
72.3192
72.0523
71.7326
71.3628
70.9457
70.4839
69.9803
69.4378
68.8594
68.2482
67.6074
66.9406
66.2513
65.5435
64.8213
64.0891
63.3514
62.613
61.8786
61.1533
60.4419
59.7492
59.08
58.4389
57.8301
57.2578
56.7258
56.2375
55.7961
55.4045
55.0653
54.7809
54.5535
54.3849
54.277
54.2315
54.2502
54.3346
54.4863
54.7069
54.9978
55.3606
55.7965
56.3067
56.8922
57.5536
58.2911
59.1042
59.9921
60.9528
61.9839
63.0816
64.2415
65.4577
66.7236
68.0314
69.3727
70.7377
72.1166
73.4986
74.8727
76.2282
77.5536
78.8395
80.0791
81.2115
82.7676
43.4322
44.2259
45.0173
45.8049
46.5871
47.3623
48.1291
48.8863
49.6329
50.3679
51.0906
51.8
52.4953
53.1752
53.8382
54.4825
55.1061
55.7065
56.2811
56.8272
57.342
57.8225
58.266
58.6699
59.0317
59.3495
59.6214
59.8461
60.0228
60.1509
60.2304
60.2617
60.2454
60.1828
60.0752
59.9243
59.732
59.5006
59.2322
58.9293
58.5945
58.2305
57.8399
57.4258
56.991
56.5386
56.0719
55.5941
55.1086
54.6188
54.1284
53.6408
53.1597
52.6886
52.231
51.7905
51.3702
50.9734
50.6031
50.2621
49.9531
49.6785
49.4404
49.2411
49.0824
48.9662
48.894
48.8677
48.8886
48.9585
49.0788
49.2511
49.4772
49.7586
50.0971
50.4941
50.9515
51.4707
52.0531
52.6997
53.4114
54.1885
55.0308
55.9374
56.9068
57.9364
59.023
60.162
61.3483
62.5753
63.8358
65.1218
66.4243
67.7338
69.0407
70.3345
71.6058
72.8489
73.9973
75.609
36.3724
37.0001
37.6279
38.255
38.8802
39.5025
40.121
40.7346
41.3425
41.9441
42.5385
43.1252
43.7032
44.2716
44.8293
45.3751
45.9073
46.4243
46.9241
47.4049
47.8644
48.3006
48.7114
49.0946
49.4483
49.7707
50.0603
50.3157
50.5359
50.72
50.8675
50.9784
51.0526
51.0907
51.0933
51.0614
50.9963
50.8993
50.7721
50.6165
50.4344
50.2281
49.9997
49.7516
49.4862
49.2061
48.9138
48.612
48.3035
47.991
47.6772
47.365
47.0572
46.7565
46.4655
46.187
45.9234
45.6772
45.4506
45.2458
45.0648
44.9094
44.7815
44.6826
44.6142
44.5778
44.5748
44.6064
44.6741
44.7792
44.923
45.1071
45.3327
45.6016
45.9154
46.2756
46.684
47.1424
47.6523
48.2154
48.8329
49.5061
50.2356
51.022
51.8648
52.7633
53.7159
54.7202
55.7728
56.8696
58.0053
59.1739
60.3686
61.5817
62.8049
64.0292
65.246
66.4509
67.5751
69.1819
31.3256
31.8248
32.3256
32.8275
33.3295
33.8311
34.3315
34.8299
35.3258
35.8185
36.3075
36.7922
37.272
37.7461
38.2136
38.6736
39.1251
39.5668
39.9973
40.4152
40.8189
41.207
41.5777
41.9296
42.2611
42.5707
42.8571
43.1193
43.356
43.5666
43.7503
43.9069
44.0359
44.1376
44.2121
44.2599
44.2817
44.2784
44.251
44.2009
44.1293
44.0379
43.9284
43.8025
43.6622
43.5096
43.3466
43.1753
42.9981
42.8171
42.6344
42.4524
42.2733
42.0991
41.9321
41.7742
41.6275
41.4938
41.3748
41.2723
41.1877
41.1225
41.0781
41.0556
41.0563
41.0812
41.1315
41.2081
41.3122
41.4449
41.6072
41.8004
42.0256
42.2844
42.578
42.908
43.2761
43.6837
44.1327
44.6247
45.1614
45.7441
46.3742
47.0527
47.7803
48.5572
49.3832
50.2572
51.1775
52.1418
53.1468
54.1883
55.2613
56.3601
57.4782
58.6082
59.7425
60.8784
61.9477
63.5011
27.6522
28.0508
28.452
28.8551
29.2597
29.6653
30.0714
30.4773
30.8826
31.2869
31.6896
32.0904
32.4887
32.8839
33.2754
33.6625
34.0445
34.4204
34.7892
35.1499
35.5015
35.8427
36.1724
36.4893
36.7924
37.0805
37.3526
37.6076
37.8448
38.0633
38.2625
38.442
38.6014
38.7406
38.8596
38.9585
39.0377
39.0976
39.1391
39.1628
39.1697
39.161
39.1379
39.1018
39.054
38.9961
38.9298
38.8567
38.7785
38.697
38.614
38.5311
38.4503
38.3731
38.3012
38.2363
38.1799
38.1334
38.0983
38.0757
38.0668
38.0728
38.0946
38.1332
38.1895
38.2642
38.3582
38.4723
38.6073
38.7639
38.9432
39.146
39.3733
39.6262
39.906
40.2139
40.5513
40.9197
41.3206
41.7556
42.2263
42.7344
43.2812
43.8682
44.4966
45.1671
45.8802
46.6361
47.4343
48.2736
49.1522
50.0678
51.0169
51.9955
52.9989
54.0215
55.057
56.104
57.0975
58.5621
24.9425
25.2613
25.5831
25.9076
26.2343
26.5629
26.893
27.2241
27.5558
27.888
28.22
28.5517
28.8825
29.2121
29.5399
29.8656
30.1884
30.5078
30.823
31.1333
31.4379
31.7359
32.0266
32.3089
32.5821
32.8453
33.0976
33.3384
33.5668
33.7823
33.9844
34.1725
34.3464
34.5057
34.6505
34.7806
34.8963
34.9979
35.0857
35.1602
35.2222
35.2724
35.3116
35.3409
35.3613
35.374
35.3802
35.3813
35.3785
35.3732
35.3668
35.3607
35.3563
35.3548
35.3577
35.3661
35.3812
35.4042
35.4361
35.4779
35.5304
35.5944
35.6707
35.7599
35.8627
35.9796
36.1112
36.2581
36.4208
36.5999
36.7961
37.0101
37.2426
37.4945
37.7667
38.0603
38.3765
38.7164
39.0814
39.473
39.8925
40.3416
40.8217
41.3342
41.8805
42.4618
43.079
43.7328
44.4236
45.151
45.9145
46.7128
47.5441
48.4056
49.2943
50.2061
51.1361
52.0843
52.9902
54.3433
22.9262
23.1809
23.4389
23.6999
23.9637
24.2298
24.4981
24.7682
25.0399
25.3128
25.5867
25.8612
26.1361
26.4111
26.6857
26.9597
27.2325
27.5037
27.7729
28.0394
28.3027
28.5622
28.8172
29.0671
29.3114
29.5492
29.7801
30.0034
30.2186
30.4253
30.6228
30.8109
30.9893
31.1577
31.316
31.4642
31.6022
31.7303
31.8487
31.9577
32.0578
32.1494
32.2334
32.3103
32.3809
32.4462
32.507
32.5643
32.6192
32.6728
32.7259
32.7799
32.8356
32.8942
32.9566
33.0238
33.0968
33.1762
33.263
33.3577
33.4611
33.5737
33.6959
33.8283
33.9711
34.1249
34.29
34.4666
34.6552
34.8562
35.0699
35.2969
35.5377
35.793
36.0633
36.3496
36.6528
36.9738
37.3138
37.674
38.0556
38.46
38.8886
39.3427
39.8237
40.3328
40.8714
41.4402
42.0402
42.6717
43.3347
44.029
44.7537
45.5073
46.2879
47.0928
47.9186
48.7662
49.5805
50.8109
21.4202
21.6229
21.829
22.0383
22.2506
22.4658
22.6835
22.9036
23.1258
23.3499
23.5757
23.8029
24.0313
24.2607
24.4909
24.7214
24.952
25.1825
25.4123
25.6412
25.8687
26.0944
26.3178
26.5385
26.7559
26.9698
27.1795
27.3847
27.585
27.7799
27.9692
28.1525
28.3295
28.5002
28.6644
28.822
28.973
29.1175
29.2556
29.3877
29.514
29.6349
29.7509
29.8624
29.9702
30.0747
30.1768
30.2772
30.3766
30.4758
30.5758
30.6772
30.7809
30.8877
30.9983
31.1135
31.2338
31.3599
31.4924
31.6316
31.778
31.9321
32.0939
32.2639
32.4422
32.6291
32.8246
33.0289
33.2423
33.4649
33.6969
33.9387
34.1906
34.453
34.7263
35.0113
35.3085
35.6188
35.9431
36.2822
36.6373
37.0094
37.3999
37.8099
38.2408
38.6937
39.1698
39.6703
40.1961
40.7481
41.3267
41.9321
42.5643
43.2226
43.906
44.613
45.3412
46.0926
46.8173
47.9235
20.2966
20.4568
20.6205
20.7876
20.9578
21.1311
21.3072
21.4861
21.6675
21.8512
22.0372
22.2251
22.4149
22.6064
22.7993
22.9935
23.1888
23.3848
23.5814
23.7782
23.9751
24.1716
24.3674
24.5623
24.756
24.948
25.1381
25.3259
25.5112
25.6937
25.8731
26.0493
26.222
26.3912
26.5566
26.7184
26.8764
27.0308
27.1816
27.3291
27.4735
27.6151
27.7542
27.8912
28.0266
28.1608
28.2945
28.4281
28.5623
28.6976
28.8348
28.9743
29.1168
29.2629
29.4132
29.568
29.7279
29.8933
30.0645
30.2418
30.4254
30.6156
30.8124
31.0159
31.2262
31.4432
31.6671
31.8977
32.1351
32.3794
32.6306
32.8888
33.1541
33.4269
33.7074
33.996
34.2933
34.5996
34.9158
35.2426
35.5808
35.9314
36.2953
36.6737
37.0676
37.4781
37.9066
38.3539
38.8212
39.3093
39.8192
40.3512
40.9058
41.483
42.0824
42.7033
43.3443
44.0077
44.6494
45.637
19.4642
19.5899
19.719
19.8514
19.9872
20.1262
20.2682
20.4132
20.561
20.7115
20.8646
21.0201
21.1779
21.3379
21.5
21.664
21.8297
21.997
22.1657
22.3356
22.5066
22.6784
22.8507
23.0235
23.1964
23.3693
23.5419
23.714
23.8855
24.0561
24.2257
24.3941
24.5613
24.7271
24.8915
25.0545
25.2161
25.3764
25.5354
25.6935
25.8506
26.0072
26.1633
26.3195
26.476
26.6332
26.7915
26.9514
27.1134
27.2778
27.4451
27.6159
27.7904
27.9693
28.1527
28.3411
28.5348
28.7339
28.9387
29.1493
29.3658
29.5882
29.8164
30.0504
30.2901
30.5354
30.7862
31.0422
31.3034
31.5696
31.8408
32.1169
32.3979
32.6839
32.9751
33.2716
33.5737
33.8819
34.1965
34.5182
34.8477
35.1855
35.5326
35.8899
36.2582
36.6386
37.0321
37.4397
37.8624
38.3012
38.7569
39.2304
39.7221
40.2325
40.7618
41.3096
41.8754
42.4619
43.0297
43.9096
18.8562
18.954
19.0552
19.1598
19.2678
19.3789
19.4933
19.6108
19.7312
19.8546
19.9809
20.1099
20.2417
20.376
20.5128
20.652
20.7935
20.9372
21.083
21.2308
21.3804
21.5316
21.6845
21.8388
21.9943
22.1511
22.3088
22.4675
22.6269
22.787
22.9478
23.109
23.2707
23.4328
23.5954
23.7584
23.9219
24.086
24.2509
24.4166
24.5833
24.7513
24.9207
25.0919
25.2652
25.4409
25.6192
25.8006
25.9854
26.174
26.3666
26.5637
26.7655
26.9724
27.1845
27.4021
27.6253
27.8543
28.089
28.3295
28.5757
28.8276
29.0848
29.3473
29.6148
29.8871
30.1639
30.4449
30.7299
31.0186
31.3108
31.6063
31.905
32.2068
32.5117
32.8198
33.1311
33.4459
33.7646
34.0874
34.4148
34.7475
35.086
35.4311
35.7835
36.144
36.5136
36.8931
37.2836
37.6858
38.1006
38.529
38.9716
39.429
39.9016
40.3897
40.893
41.4147
41.9191
42.7053
18.4233
18.4993
18.5786
18.6613
18.7472
18.8365
18.929
19.0247
19.1235
19.2254
19.3305
19.4385
19.5495
19.6633
19.7801
19.8996
20.0219
20.1468
20.2744
20.4045
20.537
20.672
20.8093
20.9488
21.0905
21.2344
21.3802
21.5281
21.6779
21.8296
21.9831
22.1386
22.2958
22.455
22.6161
22.7791
22.9442
23.1116
23.2812
23.4532
23.628
23.8055
23.9862
24.1701
24.3577
24.549
24.7445
24.9444
25.149
25.3586
25.5734
25.7936
26.0195
26.2513
26.4891
26.733
26.9831
27.2392
27.5015
27.7697
28.0437
28.3233
28.6081
28.898
29.1924
29.4912
29.7938
30.1
30.4093
30.7213
31.0358
31.3523
31.6707
31.9908
32.3123
32.6352
32.9595
33.2853
33.6127
33.942
34.2734
34.6073
34.9442
35.2847
35.6294
35.979
36.3341
36.6957
37.0644
37.4412
37.8269
38.2223
38.6281
39.0451
39.474
39.915
40.3684
40.8375
41.2898
41.9978
18.1292
18.189
18.252
18.3183
18.3879
18.4607
18.5368
18.6161
18.6987
18.7845
18.8735
18.9657
19.0611
19.1596
19.2613
19.3661
19.4739
19.5848
19.6987
19.8156
19.9355
20.0583
20.1841
20.3127
20.4442
20.5786
20.7159
20.856
20.999
21.1448
21.2935
21.4452
21.5999
21.7576
21.9185
22.0826
22.2501
22.421
22.5956
22.7741
22.9565
23.1432
23.3343
23.5301
23.7308
23.9367
24.148
24.3649
24.5877
24.8166
25.0518
25.2935
25.5418
25.7969
26.0587
26.3273
26.6027
26.8848
27.1734
27.4683
27.7692
28.0758
28.3878
28.7047
29.0261
29.3515
29.6805
30.0125
30.3471
30.6838
31.0221
31.3616
31.7019
32.0427
32.3837
32.7248
33.0657
33.4064
33.747
34.0874
34.428
34.7688
35.1103
35.4529
35.797
36.1432
36.4921
36.8444
37.2007
37.5619
37.9286
38.3017
38.6819
39.07
39.4668
39.8726
40.288
40.7164
41.1277
41.7736
17.9486
17.9976
18.0498
18.1052
18.1637
18.2255
18.2905
18.3589
18.4305
18.5054
18.5837
18.6652
18.7501
18.8383
18.9299
19.0248
19.123
19.2246
19.3295
19.4378
19.5494
19.6645
19.7829
19.9047
20.03
20.1588
20.291
20.4268
20.5662
20.7093
20.8561
21.0067
21.1612
21.3198
21.4825
21.6496
21.821
21.9971
22.1779
22.3638
22.5548
22.7513
22.9533
23.1613
23.3754
23.5958
23.8228
24.0565
24.2973
24.5452
24.8005
25.0633
25.3336
25.6115
25.897
26.1901
26.4906
26.7984
27.1133
27.4349
27.7629
28.097
28.4366
28.7812
29.1304
29.4836
29.8401
30.1995
30.561
30.9242
31.2885
31.6532