/*--------------------------------*- C++ -*----------------------------------*\
| =========                 |                                                 |
| \\      /  F ield         | OpenFOAM: The Open Source CFD Toolbox           |
|  \\    /   O peration     | Version:  4.1                                   |
|   \\  /    A nd           | Web:      www.OpenFOAM.org                      |
|    \\/     M anipulation  |                                                 |
\*---------------------------------------------------------------------------*/
FoamFile
{
    version     2.0;
    format      ascii;
    class       volScalarField;
    location    "2000";
    object      p;
}
// * * * * * * * * * * * * * * * * * * * * * * * * * * * * * * * * * * * * * //

dimensions      [0 2 -2 0 0 0 0];

internalField   nonuniform List<scalar> 
6820
(
6.15788
-4.54103
-8.06766
-8.81289
-9.20549
-9.53674
-9.7251
-9.81843
-9.88132
-9.934
-9.97706
-10.0121
-10.0423
-10.0694
-10.0943
-10.1172
-10.1386
-10.1588
-10.1779
-10.1963
-10.2139
-10.2308
-10.2473
-10.2632
-10.2787
-10.2937
-10.3083
-10.3222
-10.3353
-10.3475
-10.3577
-10.3676
-10.3638
-15.5614
-12.0141
-11.2123
-10.4079
-10.0248
-9.9426
-9.92867
-9.9238
-9.93581
-9.96089
-9.98899
-10.016
-10.0419
-10.0668
-10.0905
-10.1129
-10.1342
-10.1544
-10.1737
-10.1922
-10.21
-10.2272
-10.2439
-10.2601
-10.2758
-10.291
-10.3058
-10.3202
-10.3338
-10.347
-10.3588
-10.3712
-10.3765
-13.3709
-9.86295
-9.60086
-9.59061
-9.57793
-9.66846
-9.76165
-9.82388
-9.87451
-9.92167
-9.96314
-9.99858
-10.0298
-10.058
-10.0838
-10.1075
-10.1296
-10.1504
-10.1701
-10.1888
-10.2068
-10.2241
-10.2409
-10.2572
-10.273
-10.2884
-10.3033
-10.3179
-10.332
-10.3458
-10.3588
-10.3725
-10.3834
-10.944
-9.4731
-9.62357
-9.73389
-9.714
-9.76311
-9.82723
-9.87082
-9.90704
-9.94308
-9.97675
-10.0069
-10.0345
-10.0602
-10.0842
-10.1068
-10.1281
-10.1483
-10.1676
-10.1861
-10.204
-10.2212
-10.238
-10.2543
-10.2702
-10.2857
-10.3009
-10.3158
-10.3304
-10.3449
-10.3591
-10.374
-10.3883
-10.4917
-9.77716
-9.81581
-9.82671
-9.7772
-9.79911
-9.84559
-9.88182
-9.91419
-9.94737
-9.97915
-10.0083
-10.0352
-10.0603
-10.084
-10.1062
-10.1273
-10.1473
-10.1665
-10.1849
-10.2026
-10.2198
-10.2365
-10.2528
-10.2687
-10.2843
-10.2996
-10.3148
-10.3297
-10.3447
-10.3598
-10.3756
-10.3919
-10.411
-9.93132
-9.88328
-9.85728
-9.81342
-9.82671
-9.8632
-9.89524
-9.92517
-9.95583
-9.98548
-10.013
-10.0388
-10.063
-10.0858
-10.1074
-10.128
-10.1476
-10.1664
-10.1845
-10.2021
-10.2191
-10.2357
-10.2519
-10.2677
-10.2834
-10.2988
-10.3141
-10.3294
-10.3448
-10.3605
-10.3769
-10.3944
-10.2881
-9.96168
-9.90739
-9.88193
-9.84871
-9.85672
-9.88456
-9.91183
-9.93858
-9.96624
-9.99341
-10.0191
-10.0435
-10.0665
-10.0885
-10.1094
-10.1294
-10.1485
-10.167
-10.1848
-10.2021
-10.2189
-10.2353
-10.2514
-10.2672
-10.2828
-10.2983
-10.3137
-10.3292
-10.3449
-10.361
-10.3779
-10.3959
-10.1791
-9.97364
-9.92894
-9.9067
-9.88081
-9.88506
-9.906
-9.92883
-9.95244
-9.97727
-10.0021
-10.026
-10.0489
-10.0709
-10.0919
-10.1121
-10.1314
-10.1501
-10.1681
-10.1856
-10.2026
-10.2192
-10.2354
-10.2514
-10.2671
-10.2826
-10.2981
-10.3136
-10.3292
-10.345
-10.3613
-10.3783
-10.3965
-10.1081
-9.98442
-9.94689
-9.92698
-9.90713
-9.90958
-9.92573
-9.94504
-9.96598
-9.98834
-10.011
-10.0332
-10.0548
-10.0757
-10.0958
-10.1152
-10.1339
-10.1521
-10.1696
-10.1867
-10.2034
-10.2198
-10.2358
-10.2516
-10.2672
-10.2826
-10.298
-10.3135
-10.3291
-10.345
-10.3613
-10.3783
-10.3962
-10.0638
-9.99104
-9.95989
-9.94286
-9.92834
-9.93031
-9.94331
-9.95998
-9.97871
-9.99898
-10.0198
-10.0405
-10.0608
-10.0806
-10.0998
-10.1185
-10.1366
-10.1542
-10.1714
-10.1881
-10.2045
-10.2205
-10.2363
-10.2519
-10.2673
-10.2827
-10.298
-10.3133
-10.3289
-10.3446
-10.3608
-10.3776
-10.3951
-10.036
-9.99439
-9.96969
-9.95583
-9.94567
-9.94776
-9.95871
-9.97341
-9.99035
-10.0089
-10.0281
-10.0474
-10.0666
-10.0854
-10.1038
-10.1218
-10.1393
-10.1564
-10.1731
-10.1894
-10.2055
-10.2213
-10.2368
-10.2522
-10.2674
-10.2826
-10.2977
-10.313
-10.3283
-10.3439
-10.3599
-10.3763
-10.3933
-10.0195
-9.99647
-9.97776
-9.96689
-9.96008
-9.9625
-9.97209
-9.9853
-10.0008
-10.0178
-10.0357
-10.0538
-10.0719
-10.0899
-10.1075
-10.1248
-10.1418
-10.1584
-10.1747
-10.1906
-10.2064
-10.2218
-10.2371
-10.2523
-10.2673
-10.2823
-10.2972
-10.3123
-10.3274
-10.3427
-10.3583
-10.3743
-10.3907
-10.0107
-9.99843
-9.9848
-9.97659
-9.97232
-9.97511
-9.98376
-9.99579
-10.0101
-10.0258
-10.0425
-10.0596
-10.0768
-10.0939
-10.1108
-10.1275
-10.1439
-10.1601
-10.1759
-10.1916
-10.2069
-10.2221
-10.2372
-10.2521
-10.2668
-10.2816
-10.2963
-10.3111
-10.326
-10.341
-10.3562
-10.3716
-10.3873
-10.0069
-10.0008
-9.99121
-9.9853
-9.98295
-9.98609
-9.99404
-10.0051
-10.0183
-10.033
-10.0486
-10.0647
-10.081
-10.0974
-10.1137
-10.1298
-10.1457
-10.1614
-10.1768
-10.1921
-10.2072
-10.2221
-10.2368
-10.2514
-10.266
-10.2804
-10.2949
-10.3094
-10.3239
-10.3385
-10.3533
-10.3682
-10.3832
-10.0065
-10.0037
-9.99724
-9.99325
-9.99236
-9.99578
-10.0032
-10.0134
-10.0257
-10.0394
-10.054
-10.0693
-10.0848
-10.1004
-10.116
-10.1316
-10.147
-10.1623
-10.1773
-10.1922
-10.207
-10.2216
-10.236
-10.2503
-10.2646
-10.2788
-10.2929
-10.3071
-10.3212
-10.3354
-10.3497
-10.364
-10.3784
-10.0083
-10.0071
-10.003
-10.0006
-10.0008
-10.0045
-10.0114
-10.0209
-10.0323
-10.0451
-10.0589
-10.0732
-10.088
-10.103
-10.118
-10.133
-10.1479
-10.1627
-10.1774
-10.1919
-10.2063
-10.2206
-10.2347
-10.2487
-10.2627
-10.2766
-10.2904
-10.3042
-10.3179
-10.3317
-10.3454
-10.3592
-10.3729
-10.0114
-10.0111
-10.0087
-10.0075
-10.0085
-10.0123
-10.0189
-10.0277
-10.0383
-10.0502
-10.0632
-10.0768
-10.0908
-10.1051
-10.1195
-10.1339
-10.1484
-10.1627
-10.177
-10.1912
-10.2052
-10.2191
-10.2329
-10.2467
-10.2603
-10.2738
-10.2873
-10.3006
-10.314
-10.3273
-10.3405
-10.3536
-10.3667
-10.0154
-10.0155
-10.0142
-10.014
-10.0155
-10.0194
-10.0256
-10.0339
-10.0437
-10.0549
-10.067
-10.0798
-10.0932
-10.1068
-10.1206
-10.1345
-10.1485
-10.1624
-10.1762
-10.19
-10.2037
-10.2172
-10.2307
-10.2441
-10.2573
-10.2705
-10.2836
-10.2965
-10.3094
-10.3222
-10.3349
-10.3475
-10.3599
-10.0199
-10.0201
-10.0197
-10.0201
-10.022
-10.0259
-10.0318
-10.0394
-10.0486
-10.0591
-10.0704
-10.0825
-10.0951
-10.1081
-10.1214
-10.1347
-10.1482
-10.1616
-10.1751
-10.1884
-10.2017
-10.2149
-10.228
-10.241
-10.2539
-10.2667
-10.2794
-10.2919
-10.3043
-10.3166
-10.3288
-10.3408
-10.3526
-10.0247
-10.025
-10.025
-10.0258
-10.028
-10.0318
-10.0374
-10.0445
-10.053
-10.0628
-10.0734
-10.0848
-10.0968
-10.1091
-10.1218
-10.1346
-10.1476
-10.1606
-10.1736
-10.1865
-10.1994
-10.2122
-10.225
-10.2376
-10.2501
-10.2624
-10.2747
-10.2868
-10.2987
-10.3105
-10.3222
-10.3336
-10.3448
-10.0297
-10.0299
-10.0303
-10.0313
-10.0335
-10.0372
-10.0424
-10.049
-10.057
-10.066
-10.076
-10.0867
-10.098
-10.1098
-10.1219
-10.1342
-10.1466
-10.1592
-10.1717
-10.1843
-10.1968
-10.2092
-10.2215
-10.2337
-10.2458
-10.2578
-10.2696
-10.2813
-10.2927
-10.304
-10.3151
-10.326
-10.3366
-10.0347
-10.0349
-10.0354
-10.0365
-10.0387
-10.0421
-10.0469
-10.053
-10.0604
-10.0688
-10.0781
-10.0882
-10.0989
-10.1101
-10.1216
-10.1334
-10.1454
-10.1575
-10.1696
-10.1817
-10.1938
-10.2058
-10.2177
-10.2296
-10.2412
-10.2528
-10.2642
-10.2753
-10.2864
-10.2972
-10.3077
-10.3181
-10.3282
-10.0397
-10.0399
-10.0404
-10.0414
-10.0434
-10.0465
-10.0509
-10.0565
-10.0632
-10.071
-10.0798
-10.0893
-10.0994
-10.11
-10.121
-10.1323
-10.1438
-10.1554
-10.1671
-10.1788
-10.1905
-10.2021
-10.2137
-10.2251
-10.2363
-10.2475
-10.2584
-10.2691
-10.2797
-10.29
-10.3
-10.3099
-10.3194
-10.0447
-10.0448
-10.0452
-10.0461
-10.0478
-10.0505
-10.0544
-10.0594
-10.0656
-10.0728
-10.0809
-10.0898
-10.0994
-10.1095
-10.12
-10.1309
-10.1419
-10.1531
-10.1644
-10.1757
-10.187
-10.1982
-10.2093
-10.2203
-10.2312
-10.2419
-10.2524
-10.2626
-10.2727
-10.2825
-10.2921
-10.3014
-10.3104
-10.0497
-10.0498
-10.05
-10.0506
-10.0518
-10.054
-10.0573
-10.0617
-10.0673
-10.0739
-10.0815
-10.0899
-10.0989
-10.1085
-10.1186
-10.129
-10.1396
-10.1504
-10.1613
-10.1722
-10.1831
-10.1939
-10.2047
-10.2153
-10.2257
-10.236
-10.2461
-10.2559
-10.2655
-10.2749
-10.284
-10.2928
-10.3013
-10.0548
-10.0549
-10.0548
-10.0548
-10.0554
-10.057
-10.0597
-10.0635
-10.0684
-10.0745
-10.0815
-10.0893
-10.0979
-10.1071
-10.1167
-10.1267
-10.1369
-10.1473
-10.1578
-10.1684
-10.1789
-10.1894
-10.1997
-10.21
-10.22
-10.2299
-10.2396
-10.249
-10.2582
-10.2671
-10.2757
-10.2841
-10.2921
-10.06
-10.0601
-10.0595
-10.0589
-10.0587
-10.0595
-10.0614
-10.0645
-10.0688
-10.0743
-10.0808
-10.0882
-10.0963
-10.105
-10.1143
-10.1239
-10.1338
-10.1438
-10.154
-10.1642
-10.1744
-10.1845
-10.1945
-10.2044
-10.2141
-10.2236
-10.2329
-10.2419
-10.2506
-10.2591
-10.2673
-10.2752
-10.2827
-10.0656
-10.0657
-10.0644
-10.0628
-10.0616
-10.0614
-10.0624
-10.0648
-10.0685
-10.0733
-10.0793
-10.0863
-10.094
-10.1024
-10.1113
-10.1206
-10.1301
-10.1399
-10.1498
-10.1597
-10.1696
-10.1794
-10.189
-10.1986
-10.2079
-10.2171
-10.226
-10.2346
-10.2429
-10.251
-10.2588
-10.2662
-10.2733
-10.0719
-10.0719
-10.0696
-10.0666
-10.0641
-10.0627
-10.0627
-10.0642
-10.0671
-10.0715
-10.077
-10.0835
-10.0909
-10.099
-10.1076
-10.1166
-10.1259
-10.1354
-10.1451
-10.1547
-10.1643
-10.1738
-10.1832
-10.1924
-10.2015
-10.2103
-10.2188
-10.2271
-10.2351
-10.2427
-10.2501
-10.2571
-10.2639
-10.0792
-10.0791
-10.0753
-10.0703
-10.066
-10.0632
-10.0619
-10.0625
-10.0647
-10.0685
-10.0736
-10.0798
-10.0869
-10.0948
-10.1032
-10.112
-10.1211
-10.1304
-10.1398
-10.1492
-10.1586
-10.1679
-10.177
-10.1859
-10.1947
-10.2031
-10.2114
-10.2193
-10.2269
-10.2343
-10.2413
-10.2479
-10.2543
-10.0884
-10.088
-10.0818
-10.0739
-10.0673
-10.0626
-10.06
-10.0595
-10.061
-10.0643
-10.069
-10.075
-10.0819
-10.0896
-10.0979
-10.1065
-10.1155
-10.1247
-10.1339
-10.1431
-10.1523
-10.1614
-10.1703
-10.179
-10.1874
-10.1957
-10.2036
-10.2112
-10.2186
-10.2256
-10.2322
-10.2386
-10.2446
-10.1008
-10.0996
-10.0894
-10.0774
-10.0677
-10.0606
-10.0564
-10.0548
-10.0557
-10.0585
-10.063
-10.0688
-10.0756
-10.0832
-10.0914
-10.1
-10.1089
-10.118
-10.1271
-10.1362
-10.1453
-10.1542
-10.1629
-10.1714
-10.1797
-10.1876
-10.1953
-10.2027
-10.2098
-10.2165
-10.2229
-10.229
-10.2347
-10.1191
-10.1153
-10.0982
-10.0802
-10.0665
-10.0567
-10.0506
-10.048
-10.0482
-10.0507
-10.055
-10.0608
-10.0676
-10.0752
-10.0835
-10.0921
-10.101
-10.1101
-10.1192
-10.1283
-10.1372
-10.1461
-10.1547
-10.1631
-10.1712
-10.179
-10.1865
-10.1937
-10.2006
-10.2071
-10.2133
-10.2191
-10.2245
-10.1495
-10.1382
-10.1077
-10.0809
-10.0624
-10.0494
-10.0415
-10.038
-10.0379
-10.0402
-10.0445
-10.0504
-10.0573
-10.0651
-10.0735
-10.0823
-10.0913
-10.1005
-10.1096
-10.1188
-10.1278
-10.1366
-10.1452
-10.1535
-10.1616
-10.1693
-10.1768
-10.1839
-10.1906
-10.197
-10.2031
-10.2088
-10.2141
-10.2044
-10.1761
-10.121
-10.0802
-10.054
-10.0363
-10.0264
-10.0224
-10.0224
-10.0251
-10.0301
-10.0366
-10.0443
-10.0528
-10.0617
-10.071
-10.0804
-10.0899
-10.0994
-10.1087
-10.1179
-10.1268
-10.1354
-10.1438
-10.1519
-10.1596
-10.167
-10.174
-10.1807
-10.1869
-10.1928
-10.1984
-10.2035
-10.2875
-10.2244
-10.1398
-10.0863
-10.0476
-10.0195
-10.0044
-9.99785
-9.99609
-9.998
-10.0029
-10.01
-10.0185
-10.0279
-10.038
-10.0484
-10.059
-10.0696
-10.0802
-10.0905
-10.1006
-10.1104
-10.1199
-10.129
-10.1377
-10.1461
-10.154
-10.1615
-10.1686
-10.1753
-10.1816
-10.1874
-10.1927
-10.4377
-10.2042
-10.0748
-10.0615
-10.0467
-10.0292
-10.0233
-10.0228
-10.0231
-10.0246
-10.0278
-10.0325
-10.0381
-10.0445
-10.0516
-10.0593
-10.0673
-10.0755
-10.0838
-10.0922
-10.1006
-10.1088
-10.1169
-10.1248
-10.1324
-10.1398
-10.1468
-10.1536
-10.16
-10.166
-10.1718
-10.1772
-10.1823
-11.394
-10.1707
-9.58045
-9.50117
-9.51431
-9.55192
-9.60743
-9.66336
-9.71403
-9.76072
-9.80371
-9.84253
-9.87726
-9.90842
-9.93647
-9.9618
-9.98474
-10.0056
-10.0246
-10.042
-10.058
-10.0727
-10.0863
-10.0989
-10.1105
-10.1212
-10.1312
-10.1404
-10.1489
-10.1567
-10.1639
-10.1704
-10.1763
-15.163
-12.9602
-11.929
-11.2927
-10.8655
-10.6148
-10.4529
-10.3298
-10.2375
-10.1732
-10.1296
-10.1001
-10.0807
-10.069
-10.063
-10.0611
-10.0622
-10.0655
-10.0704
-10.0764
-10.0831
-10.0903
-10.0977
-10.1053
-10.1128
-10.1202
-10.1274
-10.1344
-10.1412
-10.1476
-10.1537
-10.1596
-10.1651
-1.24937
-5.34203
-7.46584
-8.23836
-8.67719
-9.0409
-9.30707
-9.48332
-9.6074
-9.70329
-9.7788
-9.83778
-9.88451
-9.92269
-9.95462
-9.98176
-10.0051
-10.0256
-10.0437
-10.06
-10.0747
-10.088
-10.1002
-10.1115
-10.1218
-10.1314
-10.1402
-10.1484
-10.1559
-10.1628
-10.1692
-10.175
-10.1803
-10.3476
-10.1316
-10.4212
-10.6907
-10.7948
-10.8269
-10.8379
-10.8351
-10.8249
-10.8169
-10.8179
-10.831
-10.8575
-10.8967
-10.9469
-11.0055
-11.0697
-11.1364
-11.2029
-11.2668
-11.3259
-11.3787
-11.4237
-11.46
-11.4871
-11.5044
-11.5119
-11.5094
-11.4969
-11.4746
-11.4424
-11.4004
-11.3485
-11.2867
-11.215
-11.1331
-11.0409
-10.9383
-10.8249
-10.7007
-10.5653
-10.4186
-10.2603
-10.0903
-9.90842
-9.7146
-9.50887
-9.29135
-9.06226
-8.82193
-8.57083
-8.30953
-8.03875
-7.75933
-7.47224
-7.17857
-6.87953
-6.5764
-6.27057
-5.96347
-5.65655
-5.35128
-5.04911
-4.75144
-4.45958
-4.17476
-3.89809
-3.63055
-3.37296
-3.12601
-2.89021
-2.66595
-2.45346
-2.25285
-2.06409
-1.88707
-1.72153
-1.56717
-1.42357
-1.29028
-1.16681
-1.05261
-0.947143
-0.849865
-0.76023
-0.677707
-0.601782
-0.531973
-0.467803
-0.408865
-0.354677
-0.305003
-0.259111
-0.21741
-0.177763
-0.143562
-0.106025
-0.0824327
-0.0340991
-0.0420666
-10.3944
-10.3937
-10.588
-10.7329
-10.7647
-10.7586
-10.7507
-10.741
-10.7318
-10.7299
-10.7394
-10.7615
-10.7957
-10.841
-10.8955
-10.9567
-11.0222
-11.0894
-11.1559
-11.2194
-11.2782
-11.3305
-11.3751
-11.4111
-11.4379
-11.4551
-11.4625
-11.46
-11.4476
-11.4254
-11.3933
-11.3514
-11.2996
-11.238
-11.1664
-11.0847
-10.9928
-10.8904
-10.7774
-10.6536
-10.5187
-10.3725
-10.2149
-10.0457
-9.86477
-9.67207
-9.46763
-9.25159
-9.02416
-8.78568
-8.53662
-8.27754
-8.00915
-7.73228
-7.44787
-7.15699
-6.86082
-6.56061
-6.25771
-5.95352
-5.64945
-5.34694
-5.04741
-4.75222
-4.46267
-4.17996
-3.90518
-3.6393
-3.38315
-3.1374
-2.90259
-2.67909
-2.46717
-2.26692
-2.07836
-1.90137
-1.73572
-1.58112
-1.43718
-1.30346
-1.17947
-1.06471
-0.958635
-0.860715
-0.770413
-0.687209
-0.610596
-0.540094
-0.47523
-0.415601
-0.36072
-0.310362
-0.263766
-0.221406
-0.180989
-0.146292
-0.107636
-0.0845567
-0.0330356
-0.0472257
-10.4072
-10.422
-10.5092
-10.6105
-10.6672
-10.6958
-10.7148
-10.7249
-10.7281
-10.7311
-10.7394
-10.7559
-10.782
-10.8183
-10.864
-10.9177
-10.9773
-11.0401
-11.1036
-11.1653
-11.2229
-11.2746
-11.3189
-11.3548
-11.3817
-11.3991
-11.4067
-11.4045
-11.3924
-11.3705
-11.3388
-11.2972
-11.2458
-11.1845
-11.1133
-11.032
-10.9404
-10.8385
-10.726
-10.6028
-10.4685
-10.3232
-10.1664
-9.99823
-9.81845
-9.62708
-9.42415
-9.20978
-8.98423
-8.74781
-8.50098
-8.24431
-7.9785
-7.70434
-7.42278
-7.13484
-6.84167
-6.54451
-6.24466
-5.94348
-5.64237
-5.34271
-5.0459
-4.75328
-4.4661
-4.18557
-3.91275
-3.6486
-3.39394
-3.14945
-2.91567
-2.69298
-2.48165
-2.2818
-2.09345
-1.9165
-1.75074
-1.5959
-1.4516
-1.31742
-1.1929
-1.07754
-0.970825
-0.872223
-0.781214
-0.697286
-0.619938
-0.548699
-0.483096
-0.42273
-0.367113
-0.316025
-0.268686
-0.225619
-0.184408
-0.149153
-0.109402
-0.0866961
-0.03219
-0.0521443
-10.4111
-10.4357
-10.5038
-10.5975
-10.6609
-10.6907
-10.7051
-10.7119
-10.7142
-10.7175
-10.7266
-10.744
-10.7704
-10.8058
-10.8493
-10.8994
-10.954
-11.0112
-11.0687
-11.1245
-11.1768
-11.2241
-11.265
-11.2985
-11.3237
-11.3401
-11.3472
-11.3449
-11.3329
-11.3113
-11.2799
-11.2387
-11.1877
-11.1269
-11.0562
-10.9754
-10.8844
-10.7831
-10.6713
-10.5487
-10.4153
-10.2709
-10.1152
-9.94818
-9.76974
-9.57986
-9.37859
-9.16608
-8.94255
-8.70834
-8.4639
-8.20979
-7.94669
-7.67538
-7.39677
-7.11188
-6.82183
-6.52782
-6.23111
-5.93305
-5.63498
-5.33828
-5.04428
-4.75431
-4.46961
-4.19134
-3.92056
-3.65823
-3.40515
-3.16199
-2.92931
-2.70749
-2.4968
-2.29739
-2.10928
-1.9324
-1.76655
-1.61146
-1.46681
-1.33217
-1.2071
-1.09112
-0.983723
-0.884404
-0.792651
-0.707958
-0.629835
-0.557813
-0.491427
-0.430279
-0.373879
-0.322017
-0.273892
-0.230075
-0.188036
-0.152171
-0.111324
-0.0888901
-0.0315274
-0.0568692
-10.4153
-10.4464
-10.5028
-10.5752
-10.6281
-10.6563
-10.6733
-10.6855
-10.6946
-10.7037
-10.7166
-10.7355
-10.7615
-10.7947
-10.8348
-10.8805
-10.9305
-10.9829
-11.0357
-11.0872
-11.1355
-11.1792
-11.2168
-11.2473
-11.2701
-11.2844
-11.2899
-11.2863
-11.2735
-11.2513
-11.2196
-11.1784
-11.1275
-11.067
-10.9966
-10.9162
-10.8257
-10.725
-10.6139
-10.4921
-10.3596
-10.2161
-10.0616
-9.89581
-9.7188
-9.53051
-9.33101
-9.12045
-8.89905
-8.66715
-8.4252
-8.17373
-7.91343
-7.64505
-7.3695
-7.08776
-6.80091
-6.51014
-6.21668
-5.92182
-5.6269
-5.33325
-5.04217
-4.75497
-4.47285
-4.19696
-3.92834
-3.66793
-3.41652
-3.1748
-2.94331
-2.72244
-2.51247
-2.31356
-2.12575
-1.94897
-1.78306
-1.62776
-1.48275
-1.34765
-1.22202
-1.10541
-0.997318
-0.897257
-0.804726
-0.719234
-0.640295
-0.56745
-0.500237
-0.438263
-0.381037
-0.328355
-0.279403
-0.234788
-0.19189
-0.15536
-0.113419
-0.0911412
-0.0310718
-0.061351
-10.4183
-10.4507
-10.4978
-10.5553
-10.6026
-10.6332
-10.654
-10.6696
-10.6818
-10.6933
-10.7075
-10.7265
-10.7514
-10.7825
-10.8196
-10.8616
-10.9074
-10.9553
-11.0036
-11.0506
-11.0947
-11.1346
-11.1688
-11.1966
-11.2169
-11.2292
-11.2332
-11.2283
-11.2145
-11.1915
-11.1593
-11.1177
-11.0666
-11.006
-10.9356
-10.8555
-10.7653
-10.665
-10.5544
-10.4334
-10.3017
-10.1592
-10.0057
-9.84123
-9.66565
-9.47898
-9.28128
-9.0727
-8.85348
-8.62394
-8.38453
-8.13578
-7.87834
-7.61297
-7.34055
-7.06203
-6.77848
-6.49105
-6.20094
-5.90941
-5.61775
-5.32727
-5.03925
-4.75494
-4.47554
-4.20216
-3.93583
-3.67746
-3.42786
-3.18769
-2.95748
-2.73766
-2.5285
-2.33017
-2.14273
-1.96611
-1.80018
-1.6447
-1.49937
-1.36382
-1.23764
-1.12039
-1.01159
-0.910765
-0.817432
-0.731109
-0.65132
-0.577614
-0.509535
-0.446692
-0.388598
-0.335052
-0.285232
-0.239774
-0.195983
-0.15873
-0.115702
-0.0934462
-0.0308553
-0.0655277
-10.4196
-10.4512
-10.4922
-10.54
-10.5823
-10.6128
-10.6349
-10.6523
-10.6668
-10.6806
-10.6964
-10.7159
-10.7403
-10.7698
-10.8043
-10.843
-10.8848
-10.9284
-10.9723
-11.015
-11.0549
-11.0909
-11.1217
-11.1463
-11.164
-11.1742
-11.1762
-11.1699
-11.1549
-11.1309
-11.098
-11.0559
-11.0045
-10.9436
-10.8732
-10.7931
-10.7032
-10.6032
-10.4931
-10.3726
-10.2417
-10.1
-9.94765
-9.7844
-9.61023
-9.42516
-9.22926
-9.02267
-8.80564
-8.5785
-8.34166
-8.09567
-7.84116
-7.57888
-7.30966
-7.03446
-6.75431
-6.47032
-6.18368
-5.89559
-5.60733
-5.32016
-5.03532
-4.75405
-4.4775
-4.20676
-3.94286
-3.68667
-3.43899
-3.20049
-2.9717
-2.75303
-2.54478
-2.34711
-2.16011
-1.98373
-1.81783
-1.66222
-1.51659
-1.38062
-1.2539
-1.13601
-1.0265
-0.924903
-0.83075
-0.743572
-0.662905
-0.588305
-0.519323
-0.455573
-0.396571
-0.342119
-0.29139
-0.245042
-0.200328
-0.162291
-0.118187
-0.0958043
-0.0309032
-0.0693467
-10.4196
-10.4498
-10.4862
-10.527
-10.5646
-10.5941
-10.617
-10.6358
-10.6521
-10.6677
-10.6847
-10.7046
-10.7283
-10.7562
-10.7883
-10.8239
-10.8621
-10.9017
-10.9415
-10.98
-11.016
-11.0482
-11.0755
-11.0971
-11.112
-11.1197
-11.1197
-11.1117
-11.0952
-11.0701
-11.0362
-10.9934
-10.9414
-10.8802
-10.8096
-10.7294
-10.6395
-10.5398
-10.43
-10.31
-10.1797
-10.0389
-9.88754
-9.72547
-9.55268
-9.36919
-9.17507
-8.97048
-8.75566
-8.53092
-8.2967
-8.05352
-7.802
-7.54286
-7.27693
-7.00513
-6.72847
-6.44803
-6.16495
-5.88043
-5.59568
-5.31193
-5.0304
-4.75229
-4.47872
-4.21076
-3.9494
-3.69551
-3.44988
-3.21316
-2.98588
-2.76847
-2.56121
-2.3643
-2.17781
-2.00173
-1.83593
-1.68023
-1.53435
-1.39798
-1.27074
-1.15223
-1.04201
-0.939638
-0.844654
-0.756604
-0.675036
-0.599515
-0.529598
-0.464906
-0.404958
-0.349561
-0.297884
-0.250603
-0.204936
-0.166052
-0.120886
-0.0982153
-0.0312356
-0.0727638
-10.4186
-10.4471
-10.4799
-10.5155
-10.5491
-10.5773
-10.6004
-10.62
-10.6376
-10.6544
-10.6722
-10.6921
-10.7152
-10.7416
-10.7714
-10.8041
-10.8389
-10.8748
-10.9107
-10.9453
-10.9774
-11.006
-11.03
-11.0484
-11.0606
-11.0659
-11.0638
-11.0539
-11.0359
-11.0095
-10.9745
-10.9308
-10.8781
-10.8163
-10.7453
-10.6649
-10.575
-10.4753
-10.3658
-10.2462
-10.1165
-9.97644
-9.82598
-9.66504
-9.49358
-9.31163
-9.11928
-8.91667
-8.70405
-8.48174
-8.25015
-8.0098
-7.76129
-7.50535
-7.24276
-6.97442
-6.70132
-6.4245
-6.14507
-5.86418
-5.58303
-5.30281
-5.02468
-4.74982
-4.47933
-4.21425
-3.95553
-3.70405
-3.46056
-3.22571
-3.00004
-2.78397
-2.57779
-2.3817
-2.1958
-2.02007
-1.85442
-1.69868
-1.55259
-1.41586
-1.28812
-1.16901
-1.05809
-0.954937
-0.859115
-0.770182
-0.687694
-0.611229
-0.540351
-0.474687
-0.41376
-0.357379
-0.30472
-0.256461
-0.209812
-0.17002
-0.123806
-0.100679
-0.0318669
-0.0757422
-10.4166
-10.4434
-10.4732
-10.5048
-10.5352
-10.5619
-10.5847
-10.6048
-10.623
-10.6407
-10.6588
-10.6787
-10.701
-10.726
-10.7536
-10.7836
-10.8152
-10.8476
-10.8798
-10.9107
-10.9391
-10.9642
-10.9849
-11.0003
-11.0097
-11.0126
-11.0083
-10.9966
-10.9769
-10.9491
-10.913
-10.8683
-10.8148
-10.7524
-10.681
-10.6003
-10.5101
-10.4105
-10.3011
-10.1819
-10.0526
-9.91325
-9.76367
-9.6038
-9.43363
-9.25319
-9.06257
-8.86192
-8.65148
-8.43158
-8.20263
-7.96511
-7.71964
-7.4669
-7.20768
-6.94284
-6.67333
-6.40017
-6.12443
-5.84724
-5.56974
-5.29309
-5.01844
-4.7469
-4.47955
-4.21741
-3.96141
-3.71239
-3.47112
-3.23822
-3.01422
-2.79956
-2.59452
-2.39932
-2.21406
-2.03875
-1.87329
-1.71755
-1.57128
-1.43421
-1.30601
-1.1863
-1.07469
-0.970768
-0.874107
-0.784281
-0.70086
-0.623432
-0.551569
-0.484905
-0.422969
-0.365572
-0.311898
-0.262621
-0.214963
-0.174199
-0.126954
-0.103197
-0.0328061
-0.0782542
-10.4138
-10.439
-10.4663
-10.4948
-10.5224
-10.5475
-10.5698
-10.5899
-10.6085
-10.6265
-10.6448
-10.6644
-10.6858
-10.7094
-10.735
-10.7623
-10.791
-10.82
-10.8487
-10.876
-10.901
-10.9226
-10.94
-10.9525
-10.9592
-10.9596
-10.9532
-10.9395
-10.9182
-10.889
-10.8516
-10.8059
-10.7516
-10.6885
-10.6165
-10.5355
-10.4452
-10.3455
-10.2362
-10.1173
-9.9885
-9.84979
-9.70105
-9.54224
-9.37333
-9.19437
-9.00546
-8.80675
-8.59849
-8.38099
-8.15466
-7.91998
-7.67755
-7.42802
-7.17216
-6.91082
-6.64492
-6.37543
-6.10341
-5.82994
-5.55612
-5.28308
-5.01193
-4.74375
-4.47959
-4.22043
-3.96719
-3.7207
-3.48169
-3.25078
-3.02852
-2.81531
-2.61146
-2.4172
-2.23262
-2.05776
-1.89254
-1.73683
-1.59041
-1.45303
-1.32437
-1.20409
-1.0918
-0.987105
-0.889603
-0.798878
-0.714513
-0.636106
-0.563239
-0.495551
-0.43258
-0.374136
-0.319415
-0.269082
-0.220389
-0.178592
-0.130332
-0.105766
-0.0340559
-0.080282
-10.4103
-10.4339
-10.4591
-10.485
-10.5103
-10.5339
-10.5555
-10.5753
-10.5939
-10.6119
-10.6302
-10.6493
-10.6698
-10.6918
-10.7154
-10.7404
-10.7661
-10.792
-10.8174
-10.8413
-10.8628
-10.8811
-10.8954
-10.9049
-10.9089
-10.9069
-10.8983
-10.8827
-10.8597
-10.829
-10.7904
-10.7436
-10.6884
-10.6247
-10.5522
-10.4707
-10.3802
-10.2805
-10.1713
-10.0527
-9.92435
-9.78628
-9.63838
-9.48061
-9.31297
-9.13549
-8.94829
-8.75152
-8.54543
-8.33033
-8.10661
-7.87477
-7.63536
-7.38904
-7.13655
-6.87871
-6.61642
-6.35061
-6.08231
-5.81256
-5.54244
-5.27302
-5.00538
-4.74059
-4.47963
-4.22349
-3.97304
-3.7291
-3.49238
-3.26351
-3.04301
-2.83129
-2.62867
-2.43537
-2.25151
-2.07713
-1.91217
-1.75652
-1.60998
-1.47231
-1.34321
-1.22236
-1.10939
-1.00393
-0.905584
-0.813954
-0.728635
-0.649234
-0.575345
-0.506612
-0.442581
-0.383062
-0.327267
-0.275842
-0.22609
-0.1832
-0.133942
-0.108389
-0.0356123
-0.0818185
-10.406
-10.4282
-10.4515
-10.4753
-10.4987
-10.5208
-10.5415
-10.5608
-10.5792
-10.597
-10.6149
-10.6334
-10.6528
-10.6734
-10.695
-10.7176
-10.7407
-10.7636
-10.7858
-10.8064
-10.8247
-10.8398
-10.851
-10.8576
-10.859
-10.8545
-10.8437
-10.8262
-10.8015
-10.7693
-10.7294
-10.6815
-10.6254
-10.561
-10.4879
-10.4061
-10.3154
-10.2156
-10.1065
-9.98814
-9.86029
-9.72288
-9.57583
-9.41911
-9.25274
-9.07675
-8.89126
-8.69644
-8.49252
-8.27982
-8.05872
-7.8297
-7.59332
-7.35021
-7.10109
-6.84675
-6.58805
-6.32593
-6.06135
-5.79532
-5.52889
-5.26309
-4.99898
-4.73757
-4.47984
-4.22672
-3.97908
-3.7377
-3.5033
-3.27649
-3.05777
-2.84756
-2.6462
-2.45389
-2.27077
-2.09689
-1.93222
-1.77664
-1.62999
-1.49203
-1.36251
-1.2411
-1.12746
-1.02123
-0.922037
-0.829494
-0.743211
-0.662803
-0.587875
-0.518076
-0.452963
-0.392343
-0.335448
-0.282896
-0.232063
-0.188022
-0.137781
-0.111064
-0.0374657
-0.0828672
-10.4009
-10.4218
-10.4435
-10.4655
-10.4872
-10.508
-10.5277
-10.5464
-10.5643
-10.5817
-10.599
-10.6167
-10.635
-10.6541
-10.6739
-10.6942
-10.7146
-10.7347
-10.7539
-10.7714
-10.7865
-10.7986
-10.8068
-10.8106
-10.8094
-10.8025
-10.7895
-10.77
-10.7436
-10.7099
-10.6687
-10.6197
-10.5627
-10.4975
-10.4239
-10.3417
-10.2507
-10.1509
-10.042
-9.92386
-9.79648
-9.65973
-9.51355
-9.3579
-9.19281
-9.01832
-8.83456
-8.64169
-8.43995
-8.22965
-8.01118
-7.785
-7.55164
-7.31173
-7.06597
-6.81512
-6.56002
-6.30156
-6.04069
-5.77837
-5.51562
-5.25345
-4.99286
-4.73483
-4.48032
-4.23023
-3.9854
-3.74661
-3.51453
-3.28978
-3.07287
-2.8642
-2.66409
-2.47279
-2.29043
-2.11707
-1.95269
-1.7972
-1.65045
-1.51223
-1.38228
-1.26031
-1.146
-1.039
-0.938954
-0.84549
-0.75823
-0.676802
-0.600818
-0.529935
-0.463718
-0.401971
-0.343952
-0.290241
-0.238304
-0.193056
-0.141844
-0.113791
-0.0396002
-0.0834423
-10.3952
-10.4149
-10.4351
-10.4555
-10.4757
-10.4953
-10.514
-10.5319
-10.5491
-10.5659
-10.5826
-10.5994
-10.6165
-10.634
-10.652
-10.6701
-10.6881
-10.7055
-10.7217
-10.7363
-10.7484
-10.7575
-10.7629
-10.764
-10.7602
-10.7509
-10.7358
-10.7144
-10.6862
-10.651
-10.6085
-10.5584
-10.5005
-10.4345
-10.3603
-10.2777
-10.1865
-10.0866
-9.97778
-9.85999
-9.7331
-9.59703
-9.45172
-9.29716
-9.13336
-8.96039
-8.77836
-8.58745
-8.3879
-8.18002
-7.96417
-7.74082
-7.51048
-7.27377
-7.03136
-6.78399
-6.53247
-6.27767
-6.02049
-5.76187
-5.50279
-5.24422
-4.98713
-4.73248
-4.48119
-4.23412
-3.9921
-3.75589
-3.52615
-3.30347
-3.08836
-2.88123
-2.6824
-2.49212
-2.31053
-2.13769
-1.97362
-1.81822
-1.67138
-1.53289
-1.40251
-1.27999
-1.165
-1.05723
-0.956326
-0.861933
-0.773685
-0.691221
-0.614164
-0.542178
-0.474837
-0.411941
-0.352773
-0.297872
-0.24481
-0.198298
-0.146126
-0.116571
-0.0419955
-0.0835679
-10.3888
-10.4073
-10.4262
-10.4453
-10.4641
-10.4825
-10.5002
-10.5173
-10.5338
-10.5498
-10.5656
-10.5814
-10.5973
-10.6133
-10.6294
-10.6454
-10.661
-10.6759
-10.6894
-10.7011
-10.7104
-10.7166
-10.7193
-10.7177
-10.7114
-10.6999
-10.6826
-10.6593
-10.6294
-10.5927
-10.5489
-10.4976
-10.4388
-10.372
-10.2973
-10.2143
-10.1228
-10.0229
-9.9142
-9.79672
-9.67033
-9.53494
-9.39053
-9.23706
-9.07457
-8.90313
-8.72285
-8.53392
-8.33657
-8.13109
-7.91787
-7.69734
-7.47003
-7.2365
-6.99743
-6.75352
-6.50557
-6.2544
-6.00089
-5.74595
-5.49052
-5.23554
-4.98193
-4.73064
-4.48254
-4.23849
-3.99927
-3.76563
-3.53821
-3.3176
-3.1043
-2.89871
-2.70116
-2.5119
-2.33108
-2.15878
-1.99501
-1.83972
-1.69278
-1.55402
-1.42322
-1.30014
-1.18448
-1.07592
-0.974149
-0.878814
-0.789566
-0.706052
-0.627906
-0.554797
-0.486312
-0.422243
-0.361903
-0.305783
-0.251573
-0.203747
-0.150619
-0.119406
-0.0446266
-0.0832767
-10.3818
-10.3993
-10.417
-10.4348
-10.4524
-10.4696
-10.4864
-10.5025
-10.5181
-10.5333
-10.5482
-10.5629
-10.5775
-10.592
-10.6063
-10.6203
-10.6336
-10.646
-10.6569
-10.6659
-10.6725
-10.676
-10.676
-10.6719
-10.6633
-10.6495
-10.6301
-10.6049
-10.5733
-10.5351
-10.49
-10.4376
-10.3778
-10.3104
-10.235
-10.1516
-10.06
-9.95996
-9.85143
-9.73427
-9.60838
-9.4737
-9.33019
-9.17784
-9.01667
-8.84677
-8.66825
-8.4813
-8.28614
-8.08308
-7.87248
-7.65477
-7.43046
-7.20011
-6.96435
-6.72389
-6.47947
-6.23191
-5.98205
-5.73076
-5.47895
-5.22752
-4.97737
-4.72941
-4.48448
-4.24342
-4.00698
-3.77589
-3.55079
-3.33224
-3.12073
-2.91668
-2.72041
-2.53216
-2.35211
-2.18034
-2.01688
-1.86168
-1.71465
-1.57562
-1.4444
-1.32075
-1.20441
-1.09506
-0.992412
-0.896126
-0.805863
-0.721285
-0.642033
-0.567783
-0.498134
-0.43287
-0.371336
-0.313968
-0.258588
-0.209399
-0.155314
-0.122298
-0.0474653
-0.0826085
-10.3742
-10.3907
-10.4073
-10.424
-10.4405
-10.4566
-10.4723
-10.4875
-10.5022
-10.5164
-10.5303
-10.5439
-10.5572
-10.5702
-10.5827
-10.5947
-10.6059
-10.6159
-10.6244
-10.6309
-10.6348
-10.6358
-10.6333
-10.6268
-10.6157
-10.5998
-10.5785
-10.5514
-10.5182
-10.4785
-10.432
-10.3786
-10.3179
-10.2497
-10.1737
-10.09
-9.9981
-9.89806
-9.78967
-9.67285
-9.54749
-9.41353
-9.27094
-9.11971
-8.95988
-8.79152
-8.61477
-8.4298
-8.23684
-8.03619
-7.8282
-7.6133
-7.39198
-7.16478
-6.93232
-6.69527
-6.45436
-6.21038
-5.96412
-5.71644
-5.46821
-5.22029
-4.97357
-4.7289
-4.48712
-4.24901
-4.01533
-3.78677
-3.56395
-3.34744
-3.13772
-2.93519
-2.74018
-2.55294
-2.37364
-2.2024
-2.03924
-1.88414
-1.737
-1.5977
-1.46605
-1.34183
-1.22479
-1.11465
-1.01111
-0.913855
-0.822565
-0.736907
-0.656533
-0.581125
-0.510291
-0.443813
-0.381062
-0.322419
-0.265847
-0.215247
-0.160199
-0.125248
-0.0504805
-0.0816084
-10.3662
-10.3817
-10.3973
-10.4129
-10.4283
-10.4434
-10.4581
-10.4723
-10.4861
-10.4993
-10.5121
-10.5245
-10.5365
-10.5479
-10.5588
-10.5689
-10.578
-10.5858
-10.592
-10.596
-10.5975
-10.596
-10.5911
-10.5823
-10.569
-10.551
-10.5277
-10.4988
-10.464
-10.4229
-10.3752
-10.3207
-10.2591
-10.1901
-10.1137
-10.0295
-9.93746
-9.83739
-9.72918
-9.6127
-9.48788
-9.35466
-9.213
-9.06291
-8.90442
-8.73763
-8.56265
-8.37966
-8.1889
-7.99065
-7.78526
-7.57316
-7.3548
-7.13072
-6.90152
-6.66785
-6.43042
-6.18996
-5.94727
-5.70315
-5.45845
-5.21401
-4.97066
-4.72924
-4.49055
-4.25536
-4.0244
-3.79833
-3.57777
-3.36327
-3.1553
-2.95427
-2.7605
-2.57425
-2.39571
-2.22497
-2.0621
-1.90708
-1.75983
-1.62025
-1.48815
-1.36335
-1.24561
-1.13466
-1.03022
-0.931988
-0.839656
-0.752903
-0.671391
-0.594807
-0.522771
-0.455057
-0.391069
-0.331125
-0.273338
-0.221285
-0.16526
-0.128259
-0.0536389
-0.0803243
-10.3577
-10.3723
-10.387
-10.4015
-10.4159
-10.43
-10.4437
-10.457
-10.4697
-10.4819
-10.4937
-10.5048
-10.5155
-10.5254
-10.5347
-10.543
-10.5501
-10.5558
-10.5597
-10.5614
-10.5606
-10.5568
-10.5496