/*--------------------------------*- C++ -*----------------------------------*\
| =========                 |                                                 |
| \\      /  F ield         | OpenFOAM: The Open Source CFD Toolbox           |
|  \\    /   O peration     | Version:  4.1                                   |
|   \\  /    A nd           | Web:      www.OpenFOAM.org                      |
|    \\/     M anipulation  |                                                 |
\*---------------------------------------------------------------------------*/
FoamFile
{
    version     2.0;
    format      ascii;
    class       surfaceScalarField;
    location    "2000";
    object      phi;
}
// * * * * * * * * * * * * * * * * * * * * * * * * * * * * * * * * * * * * * //

dimensions      [0 3 -1 0 0 0 0];

internalField   nonuniform List<scalar> 
13452
(
6.28704e-05
-2.60189e-06
6.37403e-05
-8.69978e-07
6.46286e-05
-8.88282e-07
6.4105e-05
5.23571e-07
6.28898e-05
1.21529e-06
6.15445e-05
1.34523e-06
6.02725e-05
1.27202e-06
5.91139e-05
1.1586e-06
5.80686e-05
1.04528e-06
5.71283e-05
9.40334e-07
5.62815e-05
8.46827e-07
5.55161e-05
7.65387e-07
5.48213e-05
6.9479e-07
5.41881e-05
6.33247e-07
5.36088e-05
5.79209e-07
5.30774e-05
5.31479e-07
5.25883e-05
4.89096e-07
5.2137e-05
4.51269e-07
5.17196e-05
4.17353e-07
5.13328e-05
3.86826e-07
5.09736e-05
3.59261e-07
5.06393e-05
3.3431e-07
5.03276e-05
3.11684e-07
5.00364e-05
2.91155e-07
4.97639e-05
2.72548e-07
4.95081e-05
2.55744e-07
4.92674e-05
2.40699e-07
4.904e-05
2.27436e-07
4.88237e-05
2.16239e-07
4.86167e-05
2.0703e-07
4.84153e-05
2.01398e-07
4.82239e-05
1.91391e-07
1.8043e-07
4.80435e-05
6.30682e-05
-3.67972e-06
6.27994e-05
-6.01195e-07
6.21233e-05
-2.12203e-07
6.23359e-05
3.1096e-07
6.27935e-05
7.57661e-07
6.31929e-05
9.45858e-07
6.34611e-05
1.00381e-06
6.36058e-05
1.01394e-06
6.36526e-05
9.98475e-07
6.36273e-05
9.65593e-07
6.35508e-05
9.23368e-07
6.34383e-05
8.77893e-07
6.33008e-05
8.32238e-07
6.31464e-05
7.87696e-07
6.29807e-05
7.44915e-07
6.28079e-05
7.04266e-07
6.26311e-05
6.65903e-07
6.24525e-05
6.29835e-07
6.22739e-05
5.95995e-07
6.20964e-05
5.64292e-07
6.1921e-05
5.34618e-07
6.17485e-05
5.06866e-07
6.15792e-05
4.80934e-07
6.14137e-05
4.56737e-07
6.1252e-05
4.3421e-07
6.10944e-05
4.13318e-07
6.0941e-05
3.94084e-07
6.07919e-05
3.7653e-07
6.06472e-05
3.60957e-07
6.05073e-05
3.46937e-07
6.03724e-05
3.36309e-07
6.02408e-05
3.23024e-07
3.34072e-07
6.00871e-05
6.23306e-05
-2.24888e-06
6.26619e-05
-9.32551e-07
6.281e-05
-3.60284e-07
6.30954e-05
2.5556e-08
6.34245e-05
4.28519e-07
6.37126e-05
6.57852e-07
6.39516e-05
7.64754e-07
6.41451e-05
8.20459e-07
6.42963e-05
8.47228e-07
6.44106e-05
8.51344e-07
6.44939e-05
8.40026e-07
6.45519e-05
8.19885e-07
6.45893e-05
7.94878e-07
6.46099e-05
7.67122e-07
6.46168e-05
7.37978e-07
6.46127e-05
7.08411e-07
6.45995e-05
6.79059e-07
6.4579e-05
6.50312e-07
6.45526e-05
6.22415e-07
6.45214e-05
5.95518e-07
6.44863e-05
5.69715e-07
6.44481e-05
5.4506e-07
6.44074e-05
5.21585e-07
6.43649e-05
4.99314e-07
6.43208e-05
4.78279e-07
6.42756e-05
4.5852e-07
6.42296e-05
4.40127e-07
6.41829e-05
4.23184e-07
6.41359e-05
4.0798e-07
6.40884e-05
3.944e-07
6.40409e-05
3.83825e-07
6.39895e-05
3.74473e-07
3.79343e-07
6.39442e-05
6.47767e-05
-1.44247e-06
6.47349e-05
-8.90752e-07
6.47849e-05
-4.10329e-07
6.48931e-05
-8.26349e-08
6.50569e-05
2.64674e-07
6.52214e-05
4.93368e-07
6.53726e-05
6.1357e-07
6.55094e-05
6.83642e-07
6.56306e-05
7.26039e-07
6.57357e-05
7.46226e-07
6.58256e-05
7.50138e-07
6.59018e-05
7.43754e-07
6.59657e-05
7.30898e-07
6.60191e-05
7.13755e-07
6.60633e-05
6.93818e-07
6.60995e-05
6.72201e-07
6.61288e-05
6.49696e-07
6.61523e-05
6.2684e-07
6.61707e-05
6.04008e-07
6.61848e-05
5.81466e-07
6.61951e-05
5.59406e-07
6.62022e-05
5.37969e-07
6.62065e-05
5.1726e-07
6.62084e-05
4.97369e-07
6.62083e-05
4.7838e-07
6.62065e-05
4.60382e-07
6.62031e-05
4.43497e-07
6.61984e-05
4.27852e-07
6.61927e-05
4.13702e-07
6.6186e-05
4.01151e-07
6.61786e-05
3.91147e-07
6.61696e-05
3.83479e-07
3.83738e-07
6.61652e-05
6.70079e-05
-9.93575e-07
6.68589e-05
-7.41782e-07
6.68314e-05
-3.8286e-07
6.68578e-05
-1.08998e-07
6.69422e-05
1.80308e-07
6.70457e-05
3.89827e-07
6.71479e-05
5.11349e-07
6.7245e-05
5.86555e-07
6.73357e-05
6.35342e-07
6.74188e-05
6.63102e-07
6.7494e-05
6.74993e-07
6.75615e-05
6.76295e-07
6.76218e-05
6.70548e-07
6.76757e-05
6.59879e-07
6.77237e-05
6.45782e-07
6.77665e-05
6.29391e-07
6.78047e-05
6.11536e-07
6.78387e-05
5.92807e-07
6.78691e-05
5.7363e-07
6.78962e-05
5.54322e-07
6.79205e-05
5.35122e-07
6.79423e-05
5.16211e-07
6.79618e-05
4.97735e-07
6.79794e-05
4.79813e-07
6.79952e-05
4.62559e-07
6.80095e-05
4.46084e-07
6.80225e-05
4.30516e-07
6.80343e-05
4.15995e-07
6.80453e-05
4.02732e-07
6.80555e-05
3.909e-07
6.80656e-05
3.81087e-07
6.80757e-05
3.73397e-07
3.69847e-07
6.80896e-05
6.90833e-05
-6.92872e-07
6.89333e-05
-5.91801e-07
6.88863e-05
-3.35801e-07
6.88865e-05
-1.09222e-07
6.8934e-05
1.32803e-07
6.90039e-05
3.19986e-07
6.90771e-05
4.38111e-07
6.91489e-05
5.148e-07
6.9218e-05
5.66214e-07
6.92833e-05
5.97753e-07
6.93442e-05
6.14117e-07
6.94005e-05
6.19965e-07
6.94525e-05
6.1855e-07
6.95005e-05
6.11936e-07
6.95447e-05
6.01592e-07
6.95854e-05
5.88639e-07
6.9623e-05
5.73909e-07
6.96578e-05
5.58006e-07
6.96901e-05
5.41379e-07
6.97201e-05
5.24367e-07
6.97479e-05
5.0723e-07
6.9774e-05
4.90169e-07
6.97984e-05
4.73348e-07
6.98213e-05
4.56901e-07
6.98429e-05
4.40951e-07
6.98634e-05
4.25615e-07
6.98829e-05
4.11013e-07
6.99016e-05
3.97271e-07
6.99198e-05
3.84551e-07
6.99377e-05
3.72994e-07
6.99559e-05
3.62902e-07
6.9975e-05
3.54286e-07
3.47584e-07
6.99972e-05
7.11508e-05
-4.77353e-07
7.10202e-05
-4.61194e-07
7.09675e-05
-2.83101e-07
7.09558e-05
-9.75282e-08
7.09831e-05
1.05545e-07
7.10322e-05
2.70856e-07
7.10875e-05
3.82849e-07
7.11435e-05
4.58771e-07
7.11988e-05
5.10902e-07
7.12522e-05
5.44344e-07
7.13029e-05
5.634e-07
7.13507e-05
5.72165e-07
7.13957e-05
5.73614e-07
7.14379e-05
5.69732e-07
7.14775e-05
5.6196e-07
7.15147e-05
5.51394e-07
7.15498e-05
5.38857e-07
7.15828e-05
5.24958e-07
7.16141e-05
5.10155e-07
7.16436e-05
4.94798e-07
7.16717e-05
4.79158e-07
7.16984e-05
4.63446e-07
7.17239e-05
4.47833e-07
7.17484e-05
4.32459e-07
7.17719e-05
4.17447e-07
7.17946e-05
4.02907e-07
7.18167e-05
3.88947e-07
7.18383e-05
3.75664e-07
7.18597e-05
3.63165e-07
7.18811e-05
3.51524e-07
7.19032e-05
3.40838e-07
7.19265e-05
3.30982e-07
3.21777e-07
7.19523e-05
7.32508e-05
-3.22852e-07
7.31391e-05
-3.49557e-07
7.30844e-05
-2.28376e-07
7.30656e-05
-7.8713e-08
7.30803e-05
9.08845e-08
7.31156e-05
2.35483e-07
7.31589e-05
3.39605e-07
7.32046e-05
4.13081e-07
7.32508e-05
4.64688e-07
7.32962e-05
4.98916e-07
7.334e-05
5.19611e-07
7.33818e-05
5.30347e-07
7.34216e-05
5.33816e-07
7.34594e-05
5.31908e-07
7.34954e-05
5.26021e-07
7.35296e-05
5.17221e-07
7.35621e-05
5.06317e-07
7.35931e-05
4.93916e-07
7.36228e-05
4.80481e-07
7.36512e-05
4.66368e-07
7.36785e-05
4.5185e-07
7.37048e-05
4.37146e-07
7.37302e-05
4.22429e-07
7.37549e-05
4.07839e-07
7.37788e-05
3.93494e-07
7.38022e-05
3.79494e-07
7.38253e-05
3.65927e-07
7.38481e-05
3.5286e-07
7.38709e-05
3.40349e-07
7.3894e-05
3.28404e-07
7.39178e-05
3.16989e-07
7.39429e-05
3.05898e-07
2.94758e-07
7.39699e-05
7.5393e-05
-2.13414e-07
7.5299e-05
-2.55563e-07
7.5245e-05
-1.74385e-07
7.52219e-05
-5.55699e-08
7.5228e-05
8.48296e-08
7.52534e-05
2.10034e-07
7.52878e-05
3.05186e-07
7.5326e-05
3.74898e-07
7.53657e-05
4.25008e-07
7.54054e-05
4.59191e-07
7.54443e-05
4.80765e-07
7.54818e-05
4.92809e-07
7.55179e-05
4.9773e-07
7.55525e-05
4.97299e-07
7.55857e-05
4.92852e-07
7.56175e-05
4.85419e-07
7.5648e-05
4.75789e-07
7.56773e-05
4.64563e-07
7.57056e-05
4.52201e-07
7.57329e-05
4.3906e-07
7.57594e-05
4.25418e-07
7.5785e-05
4.11494e-07
7.581e-05
3.97459e-07
7.58344e-05
3.83453e-07
7.58583e-05
3.69586e-07
7.58818e-05
3.55945e-07
7.59052e-05
3.42599e-07
7.59284e-05
3.29588e-07
7.59519e-05
3.16926e-07
7.59757e-05
3.04576e-07
7.60002e-05
2.92432e-07
7.60259e-05
2.80261e-07
2.6767e-07
7.6053e-05
7.75831e-05
-1.36895e-07
7.75059e-05
-1.78403e-07
7.74552e-05
-1.23674e-07
7.74299e-05
-3.02553e-08
7.74298e-05
8.48994e-08
7.74477e-05
1.92157e-07
7.74751e-05
2.7772e-07
7.75074e-05
3.42656e-07
7.75419e-05
3.90447e-07
7.75773e-05
4.23881e-07
7.76123e-05
4.45704e-07
7.76466e-05
4.58518e-07
7.76799e-05
4.64446e-07
7.77121e-05
4.65112e-07
7.77432e-05
4.61778e-07
7.77732e-05
4.55424e-07
7.78021e-05
4.46812e-07
7.78302e-05
4.36532e-07
7.78573e-05
4.25037e-07
7.78837e-05
4.12682e-07
7.79094e-05
3.99745e-07
7.79344e-05
3.86441e-07
7.79589e-05
3.72943e-07
7.7983e-05
3.59382e-07
7.80067e-05
3.45862e-07
7.80302e-05
3.32459e-07
7.80536e-05
3.19224e-07
7.8077e-05
3.06177e-07
7.81006e-05
2.93302e-07
7.81247e-05
2.80534e-07
7.81494e-05
2.67742e-07
7.81749e-05
2.54701e-07
2.41065e-07
7.82015e-05
7.98256e-05
-8.41777e-08
7.9764e-05
-1.16853e-07
7.97186e-05
-7.8227e-08
7.9693e-05
-4.68379e-09
7.96888e-05
8.91508e-08
7.97008e-05
1.80116e-07
7.97226e-05
2.55909e-07
7.97499e-05
3.15356e-07
7.97802e-05
3.60149e-07
7.98119e-05
3.92221e-07
7.98439e-05
4.1374e-07
7.98755e-05
4.26855e-07
7.99066e-05
4.33401e-07
7.99368e-05
4.34844e-07
7.99663e-05
4.32349e-07
7.99948e-05
4.26841e-07
8.00226e-05
4.19048e-07
8.00496e-05
4.09536e-07
8.00759e-05
3.98753e-07
8.01015e-05
3.87045e-07
8.01266e-05
3.74685e-07
8.01511e-05
3.61888e-07
8.01753e-05
3.48819e-07
8.0199e-05
3.35606e-07
8.02226e-05
3.22346e-07
8.02459e-05
3.09104e-07
8.02692e-05
2.95917e-07
8.02926e-05
2.82791e-07
8.03162e-05
2.69696e-07
8.03402e-05
2.56554e-07
8.03647e-05
2.43235e-07
8.03899e-05
2.29542e-07
2.15194e-07
8.04157e-05
8.21247e-05
-4.84503e-08
8.2077e-05
-6.91432e-08
8.20381e-05
-3.92836e-08
8.20139e-05
1.94737e-08
8.20072e-05
9.58581e-08
8.20149e-05
1.72419e-07
8.20321e-05
2.38675e-07
8.20553e-05
2.92231e-07
8.20819e-05
3.33511e-07
8.21104e-05
3.63704e-07
8.21397e-05
3.84435e-07
8.21691e-05
3.97432e-07
8.21983e-05
4.04247e-07
8.2227e-05
4.06175e-07
8.2255e-05
4.04278e-07
8.22825e-05
3.99412e-07
8.23092e-05
3.92264e-07
8.23354e-05
3.83375e-07
8.2361e-05
3.73174e-07
8.2386e-05
3.62e-07
8.24106e-05
3.5012e-07
8.24347e-05
3.3774e-07
8.24585e-05
3.25023e-07
8.24821e-05
3.12091e-07
8.25054e-05
2.99032e-07
8.25286e-05
2.85904e-07
8.25517e-05
2.72737e-07
8.2575e-05
2.59528e-07
8.25985e-05
2.46239e-07
8.26222e-05
2.32797e-07
8.26464e-05
2.19085e-07
8.2671e-05
2.04942e-07
1.90153e-07
8.2696e-05
8.4484e-05
-2.46533e-08
8.4448e-05
-3.32041e-08
8.44161e-05
-7.33139e-09
8.43946e-05
4.09261e-08
8.4387e-05
1.03495e-07
8.43917e-05
1.67702e-07
8.44054e-05
2.25021e-07
8.4425e-05
2.72588e-07
8.44485e-05
3.10028e-07
8.44743e-05
3.37939e-07
8.45012e-05
3.57475e-07
8.45287e-05
3.69983e-07
8.45562e-05
3.76749e-07
8.45834e-05
3.78897e-07
8.46103e-05
3.77376e-07
8.46368e-05
3.72967e-07
8.46627e-05
3.66308e-07
8.46882e-05
3.57909e-07
8.47132e-05
3.48181e-07
8.47378e-05
3.37446e-07
8.47619e-05
3.25963e-07
8.47857e-05
3.13932e-07
8.48092e-05
3.01508e-07
8.48325e-05
2.88807e-07
8.48556e-05
2.75912e-07
8.48787e-05
2.62877e-07
8.49017e-05
2.49725e-07
8.49248e-05
2.3645e-07
8.4948e-05
2.23017e-07
8.49714e-05
2.09362e-07
8.49951e-05
1.9539e-07
8.50191e-05
1.80976e-07
1.65961e-07
8.50433e-05
8.69066e-05
-9.09153e-09
8.68803e-05
-6.91218e-09
8.68552e-05
1.77779e-08
8.68373e-05
5.88555e-08
8.683e-05
1.10812e-07
8.68329e-05
1.64737e-07
8.6844e-05
2.13991e-07
8.68608e-05
2.5575e-07
8.68816e-05
2.89214e-07
8.6905e-05
3.14571e-07
8.69299e-05
3.3259e-07
8.69555e-05
3.44296e-07
8.69816e-05
3.50735e-07
8.70076e-05
3.52863e-07
8.70335e-05
3.51513e-07
8.7059e-05
3.4739e-07
8.70843e-05
3.41077e-07
8.71091e-05
3.33049e-07
8.71336e-05
3.23693e-07
8.71577e-05
3.13314e-07
8.71815e-05
3.02159e-07
8.72051e-05
2.90419e-07
8.72283e-05
2.78243e-07
8.72514e-05
2.6574e-07
8.72743e-05
2.52989e-07
8.72972e-05
2.4004e-07
8.732e-05
2.26914e-07
8.73428e-05
2.13607e-07
8.73657e-05
2.00091e-07
8.73888e-05
1.86314e-07
8.7412e-05
1.72204e-07
8.74353e-05
1.5767e-07
1.42601e-07
8.74586e-05
8.93956e-05
8.74842e-10
8.93769e-05
1.1727e-08
8.93581e-05
3.66427e-08
8.9344e-05
7.29163e-08
8.93379e-05
1.16899e-07
8.93402e-05
1.62488e-07
8.93495e-05
2.04702e-07
8.93642e-05
2.41049e-07
8.93828e-05
2.70584e-07
8.94041e-05
2.93246e-07
8.94272e-05
3.09523e-07
8.94513e-05
3.20181e-07
8.9476e-05
3.26056e-07
8.95009e-05
3.27952e-07
8.95258e-05
3.2659e-07
8.95506e-05
3.22596e-07
8.95752e-05
3.16498e-07
8.95995e-05
3.08732e-07
8.96235e-05
2.99657e-07
8.96473e-05
2.89561e-07
8.96708e-05
2.78674e-07
8.9694e-05
2.67179e-07
8.9717e-05
2.55215e-07
8.97399e-05
2.42888e-07
8.97626e-05
2.30272e-07
8.97852e-05
2.17415e-07
8.98078e-05
2.04338e-07
8.98304e-05
1.91042e-07
8.9853e-05
1.77506e-07
8.98756e-05
1.63695e-07
8.98982e-05
1.49556e-07
8.99209e-05
1.3503e-07
1.20041e-07
8.99434e-05
9.19536e-05
7.09184e-09
9.19409e-05
2.44687e-08
9.19274e-05
5.01167e-08
9.19172e-05
8.31587e-08
9.19129e-05
1.2121e-07
9.19152e-05
1.60161e-07
9.19235e-05
1.96391e-07
9.19367e-05
2.27857e-07
9.19536e-05
2.53655e-07
9.19733e-05
2.73605e-07
9.19948e-05
2.88012e-07
9.20175e-05
2.97444e-07
9.2041e-05
3.02569e-07
9.20649e-05
3.04054e-07
9.2089e-05
3.02521e-07
9.21131e-05
2.98517e-07
9.2137e-05
2.92516e-07
9.21609e-05
2.84914e-07
9.21845e-05
2.76039e-07
9.22079e-05
2.66159e-07
9.22311e-05
2.55489e-07
9.2254e-05
2.442e-07
9.22768e-05
2.32423e-07
9.22995e-05
2.20259e-07
9.2322e-05
2.07778e-07
9.23443e-05
1.95026e-07
9.23667e-05
1.82028e-07
9.23889e-05
1.68789e-07
9.24111e-05
1.55298e-07
9.24333e-05
1.41534e-07
9.24554e-05
1.27463e-07
9.24773e-05
1.1305e-07
9.82468e-08
9.24991e-05
9.45834e-05
1.08276e-08
9.45751e-05
3.2783e-08
9.45661e-05
5.91483e-08
9.45593e-05
8.99173e-08
9.4557e-05
1.23527e-07
9.45599e-05
1.5723e-07
9.45679e-05
1.8846e-07
9.45801e-05
2.15633e-07
9.45958e-05
2.3798e-07
9.46141e-05
2.55301e-07
9.46343e-05
2.67795e-07
9.46558e-05
2.75892e-07
9.46783e-05
2.8013e-07
9.47013e-05
2.81065e-07
9.47246e-05
2.79226e-07
9.4748e-05
2.75094e-07
9.47714e-05
2.69086e-07
9.47948e-05
2.61561e-07
9.4818e-05
2.52815e-07
9.48411e-05
2.43094e-07
9.48639e-05
2.32597e-07
9.48867e-05
2.21483e-07
9.49092e-05
2.09875e-07
9.49316e-05
1.97867e-07
9.49539e-05
1.85527e-07
9.4976e-05
1.729e-07
9.4998e-05
1.60014e-07
9.50199e-05
1.4688e-07
9.50417e-05
1.33496e-07
9.50634e-05
1.19853e-07
9.50849e-05
1.05933e-07
9.51062e-05
9.17196e-08
7.71856e-08
9.51273e-05
9.72874e-05
1.29411e-08
9.72823e-05
3.78569e-08
9.72768e-05
6.46689e-08
9.7273e-05
9.36969e-08
9.72727e-05
1.23896e-07
9.72765e-05
1.53428e-07
9.72844e-05
1.80505e-07
9.72961e-05
2.03955e-07
9.73109e-05
2.23181e-07
9.73282e-05
2.38021e-07
9.73473e-05
2.48624e-07
9.73679e-05
2.55337e-07
9.73894e-05
2.586e-07
9.74116e-05
2.58879e-07
9.74342e-05
2.56631e-07
9.7457e-05
2.52271e-07
9.748e-05
2.4617e-07
9.75029e-05
2.38646e-07
9.75257e-05
2.29968e-07
9.75485e-05
2.20358e-07
9.7571e-05
2.09998e-07
9.75935e-05
1.99035e-07
9.76158e-05
1.87584e-07
9.76379e-05
1.75732e-07
9.76599e-05
1.63544e-07
9.76817e-05
1.51066e-07
9.77034e-05
1.38327e-07
9.7725e-05
1.25345e-07
9.77463e-05
1.12125e-07
9.77675e-05
9.86679e-08
9.77885e-05
8.49706e-08
9.78092e-05
7.10283e-08
5.68298e-08
9.78295e-05
0.000100068
1.40093e-08
0.000100065
4.06241e-08
0.000100062
6.75295e-08
0.000100061
9.50802e-08
0.000100062
1.22552e-07
0.000100067
1.48705e-07
0.000100075
1.72313e-07
0.000100087
1.92543e-07
0.000100101
2.08975e-07
0.000100117
2.21511e-07
0.000100136
2.30292e-07
0.000100155
2.35614e-07
0.000100176
2.37851e-07
0.000100198
2.37404e-07
0.00010022
2.34667e-07
0.000100242
2.30002e-07
0.000100264
2.23736e-07
0.000100287
2.16152e-07
0.000100309
2.0749e-07
0.000100332
1.9795e-07
0.000100354
1.87699e-07
0.000100376
1.76869e-07
0.000100398
1.65567e-07
0.00010042
1.53875e-07
0.000100442
1.41854e-07
0.000100463
1.29549e-07
0.000100485
1.16994e-07
0.000100506
1.04208e-07
0.000100527
9.12043e-08
0.000100547
7.79921e-08
0.000100568
6.45776e-08
0.000100588
5.09656e-08
3.71563e-08
0.000100607
0.000102928
1.44194e-08
0.000102926
4.1809e-08
0.000102926
6.84749e-08
0.000102926
9.46646e-08
0.000102929
1.19849e-07
0.000102934
1.43183e-07
0.000102943
1.63841e-07
0.000102954
1.81266e-07
0.000102968
1.95193e-07
0.000102984
2.05601e-07
0.000103001
2.12644e-07
0.00010302
2.16595e-07
0.00010304
2.17785e-07
0.000103061
2.16565e-07
0.000103083
2.13281e-07
0.000103104
2.08251e-07
0.000103126
2.01763e-07
0.000103148
1.94068e-07
0.00010317
1.85379e-07
0.000103193
1.75878e-07
0.000103215
1.65712e-07
0.000103236
1.55002e-07
0.000103258
1.43847e-07
0.00010328
1.3232e-07
0.000103301
1.20483e-07
0.000103322
1.08378e-07
0.000103343
9.60396e-08
0.000103364
8.34911e-08
0.000103384
7.07511e-08
0.000103405
5.78343e-08
0.000103424
4.47536e-08
0.000103444
3.15212e-08
1.81441e-08
0.000103463
0.000105869
1.44347e-08
0.000105869
4.19733e-08
0.000105869
6.81451e-08
0.000105871
9.30273e-08
0.000105874
1.16207e-07
0.00010588
1.37109e-07
0.000105889
1.55196e-07
0.0001059
1.70129e-07
0.000105913
1.81785e-07
0.000105929
1.90216e-07
0.000105946
1.95603e-07
0.000105964
1.9821e-07
0.000105984
1.98344e-07
0.000106004
1.9632e-07
0.000106025
1.92445e-07
0.000106046
1.87002e-07
0.000106068
1.80245e-07
0.000106089
1.72397e-07
0.000106111
1.63646e-07
0.000106133
1.54155e-07
0.000106154
1.44055e-07
0.000106176
1.33456e-07
0.000106197
1.22445e-07
0.000106218
1.11094e-07
0.00010624
9.94564e-08
0.00010626
8.75757e-08
0.000106281
7.54852e-08
0.000106301
6.32117e-08
0.000106321
5.07762e-08
0.000106341
3.81983e-08
0.00010636
2.54947e-08
0.000106379
1.26827e-08
-2.2727e-10
0.000106397
0.000108894
1.42403e-08
0.000108894
4.15624e-08
0.000108895
6.70936e-08
0.000108897
9.07159e-08
0.000108901
1.12086e-07
0.000108908
1.30817e-07
0.000108916
1.46597e-07
0.000108927
1.59264e-07
0.00010894
1.68817e-07
0.000108955
1.75381e-07
0.000108971
1.79172e-07
0.000108989
1.80456e-07
0.000109008
1.79525e-07
0.000109028
1.76669e-07
0.000109048
1.72164e-07
0.000109069
1.66265e-07
0.00010909
1.59197e-07
0.000109111
1.51156e-07
0.000109132
1.4231e-07
0.000109154
1.32803e-07
0.000109175
1.22752e-07
0.000109196
1.12254e-07
0.000109217
1.01388e-07
0.000109238
9.02181e-08
0.000109259
7.87952e-08
0.000109279
6.71597e-08
0.000109299
5.53452e-08
0.000109319
4.33783e-08
0.000109339
3.12832e-08
0.000109358
1.90805e-08
0.000109377
6.79058e-09
0.000109395
-5.56795e-09
-1.79819e-08
0.000109413
0.000112005
1.3976e-08
0.000112005
4.09476e-08
0.000112007
6.58171e-08
0.000112009
8.8259e-08
0.000112013
1.0797e-07
0.000112019
1.24716e-07
0.000112028
1.38363e-07
0.000112038
1.48906e-07
0.00011205
1.5646e-07
0.000112064
1.61222e-07
0.00011208
1.63443e-07
0.000112097
1.63403e-07
0.000112115
1.61383e-07
0.000112134
1.57658e-07
0.000112154
1.5248e-07
0.000112174
1.46078e-07
0.000112195
1.38652e-07
0.000112216
1.30378e-07
0.000112236
1.21403e-07
0.000112257
1.11852e-07
0.000112278
1.01829e-07
0.000112299
9.14202e-08
0.00011232
8.06947e-08
0.00011234
6.971e-08
0.000112361
5.85122e-08
0.000112381
4.71392e-08
0.0001124
3.56227e-08
0.00011242
2.39894e-08
0.000112439
1.22633e-08
0.000112457
4.66396e-10
0.000112476
-1.13806e-08
0.000112493
-2.32583e-08
-3.51529e-08
0.00011251
0.000115205
1.37599e-08
0.000115205
4.04678e-08
0.000115206
6.47947e-08
0.000115208
8.61937e-08
0.000115212
1.0439e-07
0.000115217
1.19282e-07
0.000115225
1.30902e-07
0.000115234
1.39395e-07
0.000115246
1.44989e-07
0.000115259
1.47957e-07
0.000115274
1.48593e-07
0.00011529
1.47191e-07
0.000115307
1.44034e-07
0.000115326
1.39382e-07
0.000115345
1.3347e-07
0.000115364
1.26505e-07
0.000115384
1.18666e-07
0.000115404
1.10108e-07
0.000115425
1.0096e-07
0.000115445
9.13304e-08
0.000115466
8.13092e-08
0.000115486
7.09705e-08
0.000115507
6.03753e-08
0.000115527
4.95734e-08
0.000115547
3.86056e-08
0.000115566
2.75063e-08
0.000115586
1.63041e-08
0.000115605
5.02459e-09
0.000115623
-6.3096e-09
0.000115641
-1.76769e-08
0.000115659
-2.90575e-08
0.000115676
-4.04322e-08
-5.17885e-08
0.000115693
0.000118496
1.37091e-08
0.000118496
4.04733e-08
0.000118496
6.45385e-08
0.000118497
8.51104e-08
0.0001185
1.01945e-07
0.000118504
1.15082e-07
0.00011851
1.24723e-07
0.000118518
1.31172e-07
0.000118529
1.34779e-07
0.000118541
1.359e-07
0.000118554
1.34877e-07
0.000118569
1.3203e-07
0.000118586
1.27645e-07
0.000118603
1.21974e-07
0.000118621
1.15239e-07
0.00011864
1.07628e-07
0.00011866
9.93001e-08
0.000118679
9.03906e-08
0.000118699
8.10113e-08
0.000118719
7.12547e-08
0.00011874
6.11972e-08
0.00011876
5.09009e-08
0.00011878
4.04173e-08
0.000118799
2.97878e-08
0.000118819
1.90478e-08
0.000118838
8.22601e-09
0.000118857
-2.65185e-09
0.000118876
-1.3564e-08
0.000118894
-2.44892e-08
0.000118912
-3.54088e-08
0.000118929
-4.63038e-08
0.000118946
-5.7158e-08
-6.79595e-08
0.000118962
0.000121881
1.39612e-08
0.00012188
4.13812e-08
0.000121879
6.56618e-08
0.000121878
8.57197e-08
0.000121879
1.01365e-07
0.000121881
1.12813e-07
0.000121886
1.20461e-07
0.000121892
1.24794e-07
0.0001219
1.26304e-07
0.000121911
1.25444e-07
0.000121923
1.22619e-07
0.000121937
1.18178e-07
0.000121952
1.12418e-07
0.000121969
1.05589e-07
0.000121986
9.78998e-08
0.000122004
8.95229e-08
0.000122023
8.05998e-08
0.000122042
7.12467e-08
0.000122061
6.15575e-08
0.000122081
5.16091e-08
0.000122101
4.14629e-08
0.00012212
3.1169e-08
0.00012214
2.07675e-08
0.00012216
1.02919e-08
0.000122179
-2.30894e-10
0.000122198
-1.07773e-08
0.000122217
-2.13277e-08
0.000122235
-3.18635e-08
0.000122253
-4.23681e-08
0.00012227
-5.28251e-08
0.000122287
-6.32196e-08
0.000122303
-7.35373e-08
-8.37696e-08
0.000122319
0.000125363
1.47037e-08
0.00012536
4.37527e-08
0.000125357
6.89779e-08
0.000125354
8.89503e-08
0.000125352
1.03595e-07
0.000125351
1.13366e-07
0.000125353
1.18915e-07
0.000125356
1.20951e-07
0.000125363
1.20141e-07
0.000125371
1.1706e-07
0.000125381
1.12186e-07
0.000125394
1.05912e-07
0.000125408
9.85528e-08
0.000125423
9.03589e-08
0.000125439
8.15299e-08
0.000125456
7.22227e-08
0.000125474
6.2561e-08
0.000125493
5.26414e-08
0.000125512
4.25395e-08
0.000125531
3.23143e-08
0.000125551
2.20116e-08
0.00012557
1.16672e-08
0.00012559
1.30931e-09
0.000125609
-9.03958e-09
0.000125628
-1.93612e-08
0.000125647
-2.96402e-08
0.000125666
-3.9863e-08
0.000125684
-5.00172e-08
0.000125702
-6.00911e-08
0.000125719
-7.00729e-08
0.000125735
-7.99517e-08
0.000125752
-8.97174e-08
-9.93644e-08
0.000125767
0.000128944
1.62234e-08
0.000128939
4.84211e-08
0.000128932
7.56547e-08
0.000128925
9.60939e-08
0.000128919
1.09907e-07
0.000128914
1.17908e-07
0.000128912
1.21095e-07
0.000128913
1.2048e-07
0.000128916
1.16956e-07
0.000128922
1.11251e-07
0.00012893
1.03942e-07
0.00012894
9.54742e-08
0.000128953
8.61882e-08
0.000128967
7.63389e-08
0.000128982
6.61161e-08
0.000128999
5.56603e-08
0.000129016
4.50746e-08
0.000129034
3.44337e-08
0.000129053
2.37917e-08
0.000129072
1.3187e-08
0.000129091
2.64702e-09
0.000129111
-7.80938e-09
0.00012913
-1.81685e-08
0.00012915
-2.84211e-08
0.000129169
-3.85599e-08
0.000129188
-4.85794e-08
0.000129207
-5.84745e-08
0.000129225
-6.82403e-08
0.000129243
-7.78714e-08
0.00012926
-8.73624e-08
0.000129277
-9.67073e-08
0.000129293
-1.05901e-07
-1.14942e-07
0.000129308
0.000132626
1.8998e-08
0.000132618
5.671e-08
0.000132606
8.746e-08
0.000132593
1.0902e-07
0.000132581
1.22065e-07
0.000132571
1.27974e-07
0.000132564
1.28254e-07
0.00013256
1.24345e-07
0.00013256
1.17445e-07
0.000132562
1.0848e-07
0.000132568
9.81501e-08
0.000132577
8.69684e-08
0.000132587
7.53026e-08
0.0001326
6.34098e-08
0.000132615
5.1466e-08
0.000132631
3.95895e-08
0.000132648
2.7856e-08
0.000132666
1.63131e-08
0.000132685
4.98672e-09
0.000132705
-6.10937e-09
0.000132724
-1.69718e-08
0.000132744
-2.76017e-08
0.000132764
-3.80047e-08
0.000132784
-4.81865e-08
0.000132803
-5.8155e-08
0.000132823
-6.79159e-08
0.000132842
-7.74756e-08
0.00013286
-8.68378e-08
0.000132878
-9.60061e-08
0.000132896
-1.04982e-07
0.000132913
-1.13766e-07
0.000132929
-1.22359e-07
-1.30765e-07
0.000132945
0.000136413
2.38825e-08
0.000136399
7.08318e-08
0.00013638
1.07162e-07
0.000136358
1.30484e-07
0.000136338
1.42509e-07
0.00013632
1.45533e-07
0.000136307
1.41855e-07
0.000136297
1.33538e-07
0.000136293
1.22196e-07
0.000136292
1.09007e-07
0.000136295
9.4816e-08
0.000136302
8.02083e-08
0.000136312
6.55709e-08
0.000136324
5.11503e-08
0.000136338
3.70946e-08
0.000136355
2.34855e-08
0.000136372
1.03598e-08
0.000136391
-2.27459e-09
0.00013641
-1.44277e-08
0.00013643
-2.61199e-08
0.000136451
-3.73773e-08
0.000136471
-4.8228e-08
0.000136492
-5.87e-08
0.000136512
-6.88199e-08
0.000136533
-7.8612e-08
0.000136553
-8.8098e-08
0.000136573
-9.72965e-08
0.000136592
-1.06224e-07
0.000136611
-1.14892e-07
0.00013663
-1.23312e-07
0.000136647
-1.31493e-07
0.000136664
-1.39441e-07
-1.47167e-07
0.000136681
0.000140307
3.24959e-08
0.000140283
9.46215e-08
0.000140251
1.39165e-07
0.000140217
1.64532e-07
0.000140185
1.74515e-07
0.000140158
1.72946e-07
0.000140136
1.63383e-07
0.000140121
1.48817e-07
0.000140112
1.31402e-07
0.000140108
1.12609e-07
0.00014011
9.34285e-08
0.000140115
7.44914e-08
0.000140125
5.61732e-08
0.000140137
3.86756e-08
0.000140152
2.20894e-08
0.000140169
6.43353e-09
0.000140188
-8.3149e-09
0.000140208
-2.22047e-08
0.000140229
-3.52958e-08
0.00014025
-4.76537e-08
0.000140272
-5.93424e-08
0.000140294
-7.0424e-08
0.000140317
-8.09547e-08
0.000140339
-9.09861e-08
0.000140361
-1.00563e-07
0.000140382
-1.09726e-07
0.000140404
-1.18508e-07
0.000140424
-1.26939e-07
0.000140445
-1.35044e-07
0.000140464
-1.42843e-07
0.000140483
-1.50354e-07
0.000140501
-1.57591e-07
-1.64571e-07
0.000140519
0.000144309
4.80881e-08
0.000144269
1.34887e-07
0.000144217
1.9047e-07
0.000144165
2.1693e-07
0.000144117
2.2218e-07
0.000144078
2.12625e-07
0.000144047
1.93856e-07
0.000144026
1.70182e-07
0.000144013
1.44379e-07
0.000144007
1.18168e-07
0.000144008
9.26153e-08
0.000144014
6.8321e-08
0.000144025
4.55708e-08
0.000144039
2.44585e-08
0.000144056
4.96513e-09
0.000144076
-1.29904e-08
0.000144097
-2.95225e-08
0.000144119
-4.47581e-08
0.000144143
-5.88255e-08
0.000144167
-7.18469e-08
0.000144192
-8.39358e-08
0.000144217
-9.51942e-08
0.000144241
-1.05714e-07
0.000144266
-1.15574e-07
0.00014429
-1.24846e-07
0.000144314
-1.33589e-07
0.000144337
-1.41855e-07
0.00014436
-1.49689e-07
0.000144382
-1.57128e-07
0.000144404
-1.64204e-07
0.000144424
-1.70945e-07
0.000144444
-1.77373e-07
-1.83512e-07
0.000144463
0.000148418
7.75954e-08
0.000148349
2.03839e-07
0.000148268
2.71872e-07
0.00014819
2.95306e-07
0.000148122
2.89849e-07
0.000148069
2.66104e-07
0.00014803
2.32844e-07
0.000148004
1.96027e-07
0.000147989
1.58878e-07
0.000147984
1.23133e-07
0.000147987
8.97374e-08
0.000147996
5.9093e-08
0.000148011
3.12624e-08
0.000148029
6.13055e-09
0.00014805
-1.65001e-08
0.000148074
-3.68626e-08
0.0001481
-5.51974e-08
0.000148127
-7.17364e-08
0.000148155
-8.66939e-08
0.000148183
-1.00263e-07
0.000148212
-1.12615e-07
0.000148241
-1.239e-07
0.000148269
-1.3425e-07
0.000148297
-1.43776e-07
0.000148325
-1.52577e-07
0.000148352
-1.60735e-07
0.000148379
-1.68322e-07
0.000148404
-1.75398e-07
0.000148429
-1.82016e-07
0.000148453
-1.88218e-07
0.000148476
-1.94041e-07
0.000148499
-1.99519e-07
-2.04681e-07
0.00014852
0.000152631
1.36093e-07
0.000152511
3.23599e-07
0.000152383
3.99258e-07
0.00015227
4.08291e-07
0.00015218
3.80325e-07
0.000152114
3.32123e-07
0.00015207
2.76874e-07
0.000152044
2.21949e-07
0.000152033
1.70236e-07
0.000152033
1.22906e-07
0.000152042
8.04208e-08
0.000152059
4.27226e-08
0.00015208
9.46318e-09
0.000152106
-1.98038e-08
0.000152135
-4.5534e-08
0.000152167
-6.81647e-08
0.0001522
-8.80984e-08
0.000152234
-1.05696e-07
0.000152268
-1.21274e-07
0.000152303
-1.35108e-07
0.000152338
-1.47435e-07
0.000152372
-1.58458e-07
0.000152406
-1.68353e-07
0.00015244
-1.77266e-07
0.000152473
-1.85324e-07
0.000152505
-1.92635e-07
0.000152536
-1.9929e-07
0.000152566
-2.05365e-07
0.000152594
-2.10927e-07
0.000152622
-2.16031e-07
0.000152649
-2.20725e-07
0.000152674
-2.25048e-07
-2.29038e-07
0.000152699
0.000156933
2.54127e-07
0.000156722
5.34906e-07
0.000156526
5.95147e-07
0.000156371
5.63225e-07
0.00015626
4.91385e-07
0.000156189
4.03432e-07
0.000156149
3.17076e-07
0.000156132
2.39097e-07
0.000156132
1.70122e-07
0.000156145
1.098e-07
0.000156168
5.7642e-08
0.000156197
1.28067e-08
0.000156233
-2.56775e-08
0.000156272
-5.87088e-08
0.000156313
-8.7071e-08
0.000156356
-1.11447e-07
0.000156401
-1.32431e-07
0.000156446
-1.50531e-07
0.00015649
-1.66178e-07
0.000156535
-1.79738e-07
0.000156579
-1.91517e-07
0.000156622
-2.01776e-07
0.000156665
-2.10734e-07
0.000156706
-2.18574e-07
0.000156746
-2.25452e-07
0.000156785
-2.315e-07
0.000156823
-2.36828e-07
0.000156859
-2.41528e-07
0.000156894
-2.45681e-07
0.000156927
-2.49352e-07
0.000156959
-2.526e-07
0.000156989
-2.55472e-07
-2.58016e-07
0.000157018
0.00016129
5.02251e-07
0.000160918
9.06969e-07
0.00016063
8.8362e-07
0.000160432
7.60806e-07
0.000160312
6.1113e-07
0.000160253
4.6299e-07
0.000160234
3.36381e-07
0.000160241
2.3182e-07
0.000160267
1.44197e-07
0.000160306
7.0586e-08
0.000160354
9.18375e-09
0.000160409
-4.19454e-08
0.000160468
-8.46061e-08
0.00016053
-1.20258e-07
0.000160593
-1.50065e-07
0.000160656
-1.74994e-07
0.00016072
-1.95857e-07
0.000160782
-2.13325e-07
0.000160844
-2.27955e-07
0.000160905
-2.40206e-07
0.000160964
-2.50459e-07
0.000161021
-2.59031e-07
0.000161076
-2.66182e-07
0.00016113
-2.72134e-07
0.000161182
-2.77067e-07
0.000161231
-2.81133e-07
0.000161279
-2.84459e-07
0.000161324
-2.87151e-07
0.000161368
-2.89297e-07
0.00016141
-2.90972e-07
0.000161449
-2.92236e-07
0.000161487
-2.9314e-07
-2.93733e-07
0.000161523
0.000165509
1.14674e-06
0.000164895
1.52075e-06
0.000164546
1.23314e-06
0.000164348
9.58446e-07
0.000164265
6.94176e-07
0.000164259
4.69508e-07
0.000164294
3.00638e-07
0.000164355
1.7101e-07
0.000164433
6.63997e-08
0.000164522
-1.86232e-08
0.000164618
-8.71478e-08
0.000164719
-1.42303e-07
0.000164821
-1.86796e-07
0.000164923
-2.22675e-07
0.000165025
-2.51517e-07
0.000165125
-2.74614e-07
0.000165222
-2.93033e-07
0.000165316
-3.07636e-07
0.000165407
-3.1912e-07
0.000165495
-3.28048e-07
0.000165579
-3.34879e-07
0.00016566
-3.39985e-07
0.000165738
-3.4367e-07
0.000165812
-3.46182e-07
0.000165883
-3.47726e-07
0.00016595
-3.48469e-07
0.000166014
-3.48548e-07
0.000166075