/*--------------------------------*- C++ -*----------------------------------*\
| =========                 |                                                 |
| \\      /  F ield         | OpenFOAM: The Open Source CFD Toolbox           |
|  \\    /   O peration     | Version:  4.1                                   |
|   \\  /    A nd           | Web:      www.OpenFOAM.org                      |
|    \\/     M anipulation  |                                                 |
\*---------------------------------------------------------------------------*/
FoamFile
{
    version     2.0;
    format      ascii;
    class       volVectorField;
    location    "2000";
    object      U;
}
// * * * * * * * * * * * * * * * * * * * * * * * * * * * * * * * * * * * * * //

dimensions      [0 1 -1 0 0 0 0];

internalField   nonuniform List<vector> 
6820
(
(7.12051 -2.89958 0)
(7.72183 -2.2784 0)
(7.93531 -1.28315 0)
(7.87961 -0.658565 0)
(7.73232 -0.320701 0)
(7.56973 -0.148361 0)
(7.41011 -0.0616839 0)
(7.26102 -0.0176566 0)
(7.12627 0.00481376 0)
(7.00567 0.0160265 0)
(6.89735 0.0212394 0)
(6.79956 0.0232369 0)
(6.71094 0.0235139 0)
(6.63034 0.0228814 0)
(6.55675 0.0217888 0)
(6.48932 0.02049 0)
(6.42735 0.0191283 0)
(6.37024 0.017783 0)
(6.31748 0.0164962 0)
(6.26862 0.0152887 0)
(6.22329 0.0141694 0)
(6.18115 0.0131399 0)
(6.14189 0.0121986 0)
(6.10524 0.0113422 0)
(6.07098 0.0105674 0)
(6.03885 0.00987244 0)
(6.00866 0.00925871 0)
(5.98017 0.00872983 0)
(5.95317 0.00831136 0)
(5.92724 0.00799444 0)
(5.90245 0.00794914 0)
(5.87628 0.00804949 0)
(5.85595 0.00704294 0)
(7.59884 0.654127 0)
(7.43304 0.77761 0)
(7.36112 0.527756 0)
(7.34933 0.342769 0)
(7.39535 0.234375 0)
(7.45299 0.166654 0)
(7.49513 0.123346 0)
(7.51885 0.0959961 0)
(7.52909 0.078385 0)
(7.52978 0.0664998 0)
(7.52338 0.058123 0)
(7.51187 0.0520225 0)
(7.49681 0.0474355 0)
(7.47935 0.0438633 0)
(7.46028 0.0409848 0)
(7.44016 0.0385956 0)
(7.41941 0.0365618 0)
(7.39833 0.0347928 0)
(7.37715 0.0332264 0)
(7.35605 0.0318199 0)
(7.33515 0.030543 0)
(7.31455 0.0293748 0)
(7.29431 0.0283004 0)
(7.27448 0.02731 0)
(7.25511 0.0263984 0)
(7.2362 0.0255644 0)
(7.21778 0.0248137 0)
(7.19984 0.024157 0)
(7.18241 0.0236309 0)
(7.16539 0.0232482 0)
(7.14917 0.0232565 0)
(7.13276 0.0232955 0)
(7.11996 0.0260843 0)
(7.25567 -0.0497306 0)
(7.16457 -0.0746215 0)
(7.20132 -0.0871774 0)
(7.24037 -0.0571866 0)
(7.27477 -0.0216429 0)
(7.31088 0.00195993 0)
(7.34256 0.016625 0)
(7.36741 0.0264416 0)
(7.38683 0.0329448 0)
(7.40193 0.0369148 0)
(7.41321 0.039119 0)
(7.42121 0.0401886 0)
(7.42656 0.0405304 0)
(7.42979 0.0403921 0)
(7.4313 0.0399384 0)
(7.4314 0.0392848 0)
(7.43035 0.0385094 0)
(7.42838 0.0376644 0)
(7.42564 0.0367844 0)
(7.4223 0.0358934 0)
(7.41846 0.035008 0)
(7.41422 0.0341398 0)
(7.40966 0.0332976 0)
(7.40485 0.0324887 0)
(7.39985 0.0317203 0)
(7.39469 0.0310008 0)
(7.38942 0.0303431 0)
(7.38405 0.0297623 0)
(7.37863 0.0292982 0)
(7.37314 0.0289659 0)
(7.36772 0.0289512 0)
(7.36214 0.0291009 0)
(7.35748 0.0305665 0)
(7.29108 -0.0915081 0)
(7.22275 -0.0639328 0)
(7.23474 -0.0294728 0)
(7.25082 -0.00392882 0)
(7.2644 0.0156016 0)
(7.28272 0.0269931 0)
(7.30139 0.0329075 0)
(7.31764 0.0363623 0)
(7.33189 0.0384842 0)
(7.34452 0.0396064 0)
(7.35544 0.0400342 0)
(7.36469 0.0400439 0)
(7.37247 0.0397992 0)
(7.37899 0.0393851 0)
(7.38441 0.0388564 0)
(7.38888 0.0382541 0)
(7.39251 0.037607 0)
(7.39544 0.0369342 0)
(7.39776 0.0362489 0)
(7.39956 0.0355611 0)
(7.4009 0.0348784 0)
(7.40186 0.0342071 0)
(7.40248 0.0335527 0)
(7.40281 0.0329212 0)
(7.4029 0.0323194 0)
(7.40277 0.0317561 0)
(7.40246 0.0312449 0)
(7.40199 0.0308027 0)
(7.4014 0.0304639 0)
(7.40069 0.0302537 0)
(7.39998 0.0302875 0)
(7.39923 0.0305056 0)
(7.3989 0.0313965 0)
(7.31214 -0.0522565 0)
(7.26645 -0.0334735 0)
(7.26326 -0.014842 0)
(7.26622 -0.00264925 0)
(7.27139 0.0101306 0)
(7.28196 0.0195671 0)
(7.29393 0.02526 0)
(7.3049 0.029048 0)
(7.31503 0.031786 0)
(7.32448 0.0336501 0)
(7.33312 0.0348221 0)
(7.34087 0.0355152 0)
(7.34779 0.0358755 0)
(7.35398 0.0359884 0)
(7.35951 0.0359153 0)
(7.36443 0.0357053 0)
(7.36882 0.0353954 0)
(7.37273 0.035013 0)
(7.37621 0.0345784 0)
(7.37933 0.0341076 0)
(7.38211 0.0336134 0)
(7.3846 0.0331065 0)
(7.38684 0.032596 0)
(7.38884 0.0320909 0)
(7.39065 0.0316004 0)
(7.39227 0.0311354 0)
(7.39374 0.0307097 0)
(7.39509 0.0303405 0)
(7.39633 0.030055 0)
(7.3975 0.0298773 0)
(7.39867 0.02987 0)
(7.3999 0.0300132 0)
(7.40141 0.0304819 0)
(7.32016 -0.0320514 0)
(7.28758 -0.0252461 0)
(7.28069 -0.0140964 0)
(7.27975 -0.00455689 0)
(7.28192 0.00650197 0)
(7.28854 0.0153386 0)
(7.29664 0.0211178 0)
(7.30441 0.0251353 0)
(7.31183 0.0281008 0)
(7.31895 0.0301962 0)
(7.32565 0.0315994 0)
(7.33184 0.0325109 0)
(7.33756 0.0330723 0)
(7.34283 0.0333708 0)
(7.34769 0.0334695 0)
(7.35218 0.0334179 0)
(7.35631 0.0332538 0)
(7.36013 0.0330052 0)
(7.36366 0.0326932 0)
(7.36694 0.0323347 0)
(7.36999 0.031943 0)
(7.37283 0.0315295 0)
(7.37549 0.0311038 0)
(7.37798 0.0306752 0)
(7.38033 0.0302532 0)
(7.38255 0.0298481 0)
(7.38466 0.0294724 0)
(7.38667 0.0291406 0)
(7.38863 0.0288722 0)
(7.39056 0.0286843 0)
(7.39253 0.0286072 0)
(7.39459 0.028628 0)
(7.39688 0.0287923 0)
(7.32441 -0.0221713 0)
(7.30054 -0.0208445 0)
(7.2931 -0.0128343 0)
(7.29071 -0.00453445 0)
(7.29137 0.00495677 0)
(7.29565 0.0128544 0)
(7.3014 0.0183654 0)
(7.30722 0.0223271 0)
(7.31293 0.0252868 0)
(7.31854 0.0274295 0)
(7.32391 0.0289224 0)
(7.32898 0.0299412 0)
(7.33374 0.0306133 0)
(7.33821 0.0310218 0)
(7.34241 0.0312272 0)
(7.34636 0.0312771 0)
(7.35007 0.031208 0)
(7.35356 0.0310472 0)
(7.35686 0.0308159 0)
(7.35998 0.0305309 0)
(7.36293 0.0302058 0)
(7.36574 0.0298518 0)
(7.36842 0.0294789 0)
(7.37098 0.0290962 0)
(7.37344 0.0287126 0)
(7.37581 0.0283376 0)
(7.37811 0.0279814 0)
(7.38036 0.027655 0)
(7.38258 0.0273708 0)
(7.38481 0.0271382 0)
(7.38709 0.0269668 0)
(7.38947 0.0268406 0)
(7.39206 0.0267503 0)
(7.32735 -0.0153979 0)
(7.30976 -0.0162702 0)
(7.30244 -0.0106187 0)
(7.29932 -0.00378576 0)
(7.29908 0.00416061 0)
(7.30187 0.0110836 0)
(7.30609 0.0162187 0)
(7.31062 0.0200413 0)
(7.31523 0.0229422 0)
(7.31983 0.0250882 0)
(7.32431 0.0266286 0)
(7.32859 0.0277137 0)
(7.33266 0.028457 0)
(7.33654 0.0289369 0)
(7.34022 0.0292119 0)
(7.34372 0.0293276 0)
(7.34705 0.0293193 0)
(7.35022 0.0292142 0)
(7.35325 0.0290332 0)
(7.35615 0.0287931 0)
(7.35893 0.0285075 0)
(7.3616 0.0281877 0)
(7.36418 0.0278433 0)
(7.36668 0.0274831 0)
(7.3691 0.0271153 0)
(7.37147 0.0267478 0)
(7.37379 0.0263885 0)
(7.37608 0.0260447 0)
(7.37837 0.025723 0)
(7.38069 0.0254258 0)
(7.38306 0.0251506 0)
(7.38554 0.0248775 0)
(7.38818 0.0245776 0)
(7.32939 -0.0103228 0)
(7.31652 -0.0120772 0)
(7.30969 -0.0082968 0)
(7.30624 -0.00285071 0)
(7.30542 0.0037494 0)
(7.30719 0.00977465 0)
(7.31032 0.0144951 0)
(7.31393 0.0181312 0)
(7.31774 0.0209395 0)
(7.32163 0.0230574 0)
(7.32546 0.0246131 0)
(7.32918 0.0257342 0)
(7.33275 0.0265212 0)
(7.33619 0.027047 0)
(7.33948 0.0273676 0)
(7.34263 0.0275267 0)
(7.34565 0.0275584 0)
(7.34856 0.0274892 0)
(7.35135 0.0273401 0)
(7.35405 0.0271274 0)
(7.35666 0.0268648 0)
(7.35918 0.0265632 0)
(7.36164 0.026232 0)
(7.36404 0.0258793 0)
(7.36638 0.0255123 0)
(7.36869 0.0251375 0)
(7.37096 0.0247603 0)
(7.37323 0.024385 0)
(7.37551 0.0240135 0)
(7.37782 0.023643 0)
(7.38019 0.0232648 0)
(7.38266 0.022857 0)
(7.38524 0.0223866 0)
(7.33074 -0.00670184 0)
(7.32148 -0.00859925 0)
(7.31542 -0.00610215 0)
(7.31195 -0.00180801 0)
(7.31077 0.00363807 0)
(7.31179 0.00883704 0)
(7.31411 0.0131152 0)
(7.31701 0.0165208 0)
(7.3202 0.0192022 0)
(7.32353 0.0212617 0)
(7.32687 0.0228046 0)
(7.33015 0.0239371 0)
(7.33335 0.0247467 0)
(7.33644 0.0253001 0)
(7.33943 0.0256498 0)
(7.34231 0.0258372 0)
(7.34509 0.0258951 0)
(7.34778 0.0258491 0)
(7.35038 0.0257198 0)
(7.35291 0.0255232 0)
(7.35537 0.0252727 0)
(7.35776 0.0249789 0)
(7.3601 0.0246506 0)
(7.36239 0.0242954 0)
(7.36465 0.0239194 0)
(7.36688 0.0235275 0)
(7.36909 0.0231233 0)
(7.37131 0.0227084 0)
(7.37354 0.0222815 0)
(7.3758 0.0218368 0)
(7.37812 0.0213624 0)
(7.38051 0.0208371 0)
(7.38298 0.0202296 0)
(7.33161 -0.00420187 0)
(7.32508 -0.00580981 0)
(7.31996 -0.00409966 0)
(7.31671 -0.000715159 0)
(7.31534 0.00374891 0)
(7.31583 0.00819246 0)
(7.31752 0.0120156 0)
(7.31985 0.0151569 0)
(7.32254 0.017681 0)
(7.32541 0.0196551 0)
(7.32835 0.0211606 0)
(7.33128 0.0222832 0)
(7.33416 0.0230976 0)
(7.33698 0.0236635 0)
(7.33972 0.0240292 0)
(7.34238 0.0242333 0)
(7.34497 0.0243069 0)
(7.34748 0.0242748 0)
(7.34992 0.0241565 0)
(7.35231 0.023968 0)
(7.35463 0.0237218 0)
(7.35691 0.0234284 0)
(7.35914 0.0230961 0)
(7.36134 0.0227315 0)
(7.36351 0.0223398 0)
(7.36567 0.0219248 0)
(7.36781 0.0214885 0)
(7.36996 0.0210304 0)
(7.37212 0.0205474 0)
(7.37432 0.0200319 0)
(7.37655 0.0194715 0)
(7.37885 0.0188469 0)
(7.3812 0.018131 0)
(7.33217 -0.00250014 0)
(7.32765 -0.00362203 0)
(7.32352 -0.00234562 0)
(7.32064 0.000352468 0)
(7.31925 0.00400264 0)
(7.31938 0.0077713 0)
(7.3206 0.0111451 0)
(7.32246 0.0140012 0)
(7.32472 0.0163442 0)
(7.32721 0.0182096 0)
(7.32981 0.0196555 0)
(7.33245 0.0207491 0)
(7.33507 0.0215522 0)
(7.33765 0.022117 0)
(7.34018 0.022487 0)
(7.34266 0.0226979 0)
(7.34508 0.0227786 0)
(7.34744 0.0227525 0)
(7.34975 0.0226384 0)
(7.35201 0.0224515 0)
(7.35422 0.0222039 0)
(7.3564 0.0219055 0)
(7.35853 0.0215639 0)
(7.36065 0.0211852 0)
(7.36274 0.0207738 0)
(7.36481 0.0203322 0)
(7.36689 0.0198613 0)
(7.36896 0.0193595 0)
(7.37106 0.0188225 0)
(7.37317 0.0182425 0)
(7.37532 0.0176074 0)
(7.3775 0.0169007 0)
(7.37973 0.0161003 0)
(7.33251 -0.00135786 0)
(7.32945 -0.00195197 0)
(7.32626 -0.000877009 0)
(7.32384 0.00132868 0)
(7.32255 0.00432733 0)
(7.32248 0.0075107 0)
(7.32335 0.0104581 0)
(7.32485 0.0130214 0)
(7.32676 0.0151671 0)
(7.32892 0.0169049 0)
(7.33123 0.0182724 0)
(7.3336 0.0193196 0)
(7.33599 0.0200966 0)
(7.33837 0.0206478 0)
(7.34072 0.0210115 0)
(7.34304 0.0212199 0)
(7.34531 0.0212998 0)
(7.34755 0.0212729 0)
(7.34973 0.021157 0)
(7.35188 0.0209664 0)
(7.354 0.0207127 0)
(7.35608 0.020405 0)
(7.35813 0.0200505 0)
(7.36016 0.0196545 0)
(7.36218 0.0192207 0)
(7.36418 0.0187508 0)
(7.36618 0.018245 0)
(7.36819 0.0177009 0)
(7.3702 0.017114 0)
(7.37223 0.0164767 0)
(7.37428 0.0157783 0)
(7.37636 0.0150051 0)
(7.37845 0.0141395 0)
(7.33272 -0.000604433 0)
(7.33069 -0.000714058 0)
(7.32832 0.000299479 0)
(7.3264 0.00216777 0)
(7.3253 0.00466189 0)
(7.32514 0.00735299 0)
(7.32578 0.00991056 0)
(7.327 0.0121867 0)
(7.32862 0.0141274 0)
(7.33051 0.0157241 0)
(7.33256 0.0169977 0)
(7.33471 0.0179837 0)
(7.33689 0.0187211 0)
(7.33909 0.019247 0)
(7.34129 0.0195944 0)
(7.34346 0.019792 0)
(7.3456 0.0198638 0)
(7.34772 0.0198299 0)
(7.3498 0.0197069 0)
(7.35185 0.019508 0)
(7.35387 0.0192442 0)
(7.35587 0.0189238 0)
(7.35784 0.0185536 0)
(7.3598 0.0181381 0)
(7.36174 0.0176804 0)
(7.36367 0.0171819 0)
(7.3656 0.0166421 0)
(7.36753 0.0160585 0)
(7.36946 0.0154265 0)
(7.37141 0.0147395 0)
(7.37336 0.0139885 0)
(7.37533 0.0131623 0)
(7.3773 0.0122475 0)
(7.33284 -0.000117246 0)
(7.33153 0.000175954 0)
(7.32984 0.00120131 0)
(7.3284 0.00284561 0)
(7.32753 0.00495905 0)
(7.32738 0.00724741 0)
(7.32788 0.00946054 0)
(7.3289 0.0114657 0)
(7.33029 0.013202 0)
(7.33195 0.0146502 0)
(7.33379 0.0158187 0)
(7.33573 0.0167314 0)
(7.33774 0.0174178 0)
(7.33978 0.017908 0)
(7.34183 0.0182301 0)
(7.34387 0.0184088 0)
(7.3459 0.0184659 0)
(7.3479 0.0184193 0)
(7.34989 0.0182842 0)
(7.35185 0.018073 0)
(7.35378 0.0177957 0)
(7.3557 0.0174599 0)
(7.3576 0.0170718 0)
(7.35948 0.0166355 0)
(7.36135 0.0161536 0)
(7.36321 0.0156269 0)
(7.36507 0.0150549 0)
(7.36693 0.0144352 0)
(7.36878 0.0137636 0)
(7.37064 0.0130344 0)
(7.3725 0.0122403 0)
(7.37436 0.0113727 0)
(7.37622 0.0104214 0)
(7.33292 0.000190506 0)
(7.33209 0.000794655 0)
(7.33093 0.00186058 0)
(7.32991 0.00335707 0)
(7.32929 0.00518734 0)
(7.32921 0.00715301 0)
(7.32965 0.00907025 0)
(7.33053 0.0108281 0)
(7.33175 0.012368 0)
(7.33323 0.0136662 0)
(7.33488 0.0147229 0)
(7.33666 0.0155534 0)
(7.33851 0.0161795 0)
(7.3404 0.0166251 0)
(7.34232 0.0169137 0)
(7.34424 0.0170666 0)
(7.34616 0.0171027 0)
(7.34807 0.0170382 0)
(7.34996 0.0168868 0)
(7.35184 0.0166596 0)
(7.3537 0.0163658 0)
(7.35554 0.0160124 0)
(7.35736 0.015605 0)
(7.35917 0.0151471 0)
(7.36098 0.014641 0)
(7.36277 0.0140874 0)
(7.36455 0.0134857 0)
(7.36633 0.0128336 0)
(7.36811 0.0121278 0)
(7.36988 0.0113635 0)
(7.37165 0.0105349 0)
(7.37341 0.00963561 0)
(7.37516 0.00865814 0)
(7.33296 0.00037893 0)
(7.33245 0.00120745 0)
(7.33171 0.00231604 0)
(7.33104 0.00371159 0)
(7.33065 0.0053308 0)
(7.33067 0.00704056 0)
(7.3311 0.00870852 0)
(7.33189 0.0102464 0)
(7.33299 0.0116032 0)
(7.33432 0.0127547 0)
(7.33583 0.0136972 0)
(7.33746 0.0144398 0)
(7.33917 0.0149987 0)
(7.34093 0.0153926 0)
(7.34273 0.0156409 0)
(7.34455 0.0157618 0)
(7.34637 0.0157716 0)
(7.34818 0.0156845 0)
(7.34999 0.0155128 0)
(7.35178 0.0152665 0)
(7.35357 0.0149538 0)
(7.35533 0.0145811 0)
(7.35709 0.0141533 0)
(7.35883 0.0136736 0)
(7.36057 0.0131441 0)
(7.36229 0.0125652 0)
(7.364 0.0119365 0)
(7.36571 0.0112561 0)
(7.3674 0.0105213 0)
(7.36909 0.0097283 0)
(7.37077 0.00887286 0)
(7.37244 0.00795014 0)
(7.37408 0.00695483 0)
(7.33298 0.000488931 0)
(7.33269 0.00146786 0)
(7.33224 0.00260753 0)
(7.33185 0.00392809 0)
(7.33167 0.00538654 0)
(7.33179 0.00689279 0)
(7.33223 0.00835257 0)
(7.33298 0.00969811 0)
(7.33399 0.0108875 0)
(7.33521 0.0118995 0)
(7.3366 0.0127288 0)
(7.3381 0.013381 0)
(7.33969 0.0138681 0)
(7.34135 0.014205 0)
(7.34304 0.0144077 0)
(7.34475 0.0144913 0)
(7.34648 0.0144702 0)
(7.34821 0.0143565 0)
(7.34993 0.0141612 0)
(7.35165 0.0138931 0)
(7.35336 0.0135596 0)
(7.35506 0.0131663 0)
(7.35675 0.0127175 0)
(7.35843 0.0122163 0)
(7.36009 0.0116643 0)
(7.36174 0.0110622 0)
(7.36339 0.0104094 0)
(7.36502 0.0097047 0)
(7.36664 0.00894585 0)
(7.36824 0.00813014 0)
(7.36983 0.0072544 0)
(7.37141 0.00631525 0)
(7.37296 0.00530895 0)
(7.33299 0.000548036 0)
(7.33284 0.00161836 0)
(7.33261 0.00277238 0)
(7.33242 0.00403046 0)
(7.3324 0.00536149 0)
(7.33261 0.0067032 0)
(7.33309 0.00798857 0)
(7.33381 0.0091668 0)
(7.33475 0.0102053 0)
(7.33589 0.0110867 0)
(7.33717 0.0118062 0)
(7.33857 0.0123678 0)
(7.34006 0.0127807 0)
(7.34161 0.013057 0)
(7.34321 0.0132099 0)
(7.34483 0.0132524 0)
(7.34647 0.0131965 0)
(7.34812 0.0130531 0)
(7.34977 0.0128314 0)
(7.35142 0.0125393 0)
(7.35306 0.0121834 0)
(7.35469 0.0117686 0)
(7.35631 0.0112988 0)
(7.35792 0.0107765 0)
(7.35952 0.0102035 0)
(7.3611 0.0095802 0)
(7.36267 0.00890643 0)
(7.36423 0.00818122 0)
(7.36577 0.00740303 0)
(7.3673 0.0065699 0)
(7.36881 0.00567965 0)
(7.37029 0.00472999 0)
(7.37175 0.00371838 0)
(7.333 0.000574687 0)
(7.33294 0.00169204 0)
(7.33284 0.00284374 0)
(7.3328 0.00404421 0)
(7.3329 0.0052691 0)
(7.33318 0.00647399 0)
(7.33368 0.00761108 0)
(7.33439 0.00864306 0)
(7.33528 0.00954558 0)
(7.33635 0.0103058 0)
(7.33755 0.0109204 0)
(7.33886 0.0113926 0)
(7.34026 0.0117305 0)
(7.34172 0.011944 0)
(7.34323 0.0120444 0)
(7.34477 0.0120427 0)
(7.34633 0.0119492 0)
(7.3479 0.0117732 0)
(7.34948 0.0115229 0)
(7.35105 0.0112053 0)
(7.35262 0.0108258 0)
(7.35419 0.010389 0)
(7.35574 0.00989826 0)
(7.35728 0.00935586 0)
(7.35881 0.00876326 0)
(7.36033 0.00812109 0)
(7.36183 0.00742932 0)
(7.36332 0.00668732 0)
(7.36479 0.00589407 0)
(7.36624 0.00504831 0)
(7.36766 0.0041486 0)
(7.36907 0.00319349 0)
(7.37044 0.00218135 0)
(7.333 0.000581308 0)
(7.33299 0.00171443 0)
(7.33299 0.00285015 0)
(7.33304 0.00399444 0)
(7.33321 0.00512657 0)
(7.33354 0.00621381 0)
(7.33405 0.00722193 0)
(7.33473 0.00812417 0)
(7.33559 0.00890333 0)
(7.33659 0.00955086 0)
(7.33772 0.0100653 0)
(7.33895 0.0104504 0)
(7.34026 0.0107134 0)
(7.34164 0.0108629 0)
(7.34307 0.0109089 0)
(7.34453 0.0108606 0)
(7.34601 0.0107272 0)
(7.34751 0.0105167 0)
(7.34902 0.0102362 0)
(7.35052 0.00989161 0)
(7.35203 0.00948786 0)
(7.35353 0.00902884 0)
(7.35501 0.00851749 0)
(7.35649 0.0079559 0)
(7.35796 0.00734538 0)
(7.35941 0.0066866 0)
(7.36084 0.00597968 0)
(7.36226 0.00522433 0)
(7.36365 0.00441995 0)
(7.36503 0.0035658 0)
(7.36638 0.00266104 0)
(7.3677 0.00170486 0)
(7.36899 0.000696241 0)
(7.333 0.000576465 0)
(7.33302 0.00170551 0)
(7.33306 0.00281609 0)
(7.33316 0.00390496 0)
(7.33337 0.00495316 0)
(7.33372 0.00593587 0)
(7.33422 0.00682877 0)
(7.33487 0.0076135 0)
(7.33568 0.00827896 0)
(7.33662 0.00882062 0)
(7.33767 0.0092392 0)
(7.33883 0.00953921 0)
(7.34006 0.00972758 0)
(7.34136 0.00981248 0)
(7.34271 0.0098025 0)
(7.34409 0.00970605 0)
(7.3455 0.00953094 0)
(7.34693 0.00928422 0)
(7.34837 0.008972 0)
(7.34981 0.00859946 0)
(7.35124 0.00817084 0)
(7.35268 0.00768951 0)
(7.3541 0.00715804 0)
(7.35551 0.00657827 0)
(7.35691 0.00595142 0)
(7.3583 0.00527817 0)
(7.35967 0.00455879 0)
(7.36101 0.00379322 0)
(7.36234 0.0029812 0)
(7.36364 0.0021224 0)
(7.36492 0.00121644 0)
(7.36616 0.000262926 0)
(7.36738 -0.000738677 0)
(7.333 0.000566367 0)
(7.33303 0.0016814 0)
(7.33309 0.00276294 0)
(7.3332 0.00379835 0)
(7.33341 0.00476931 0)
(7.33373 0.00565672 0)
(7.3342 0.00644397 0)
(7.33481 0.00711969 0)
(7.33556 0.00767823 0)
(7.33643 0.00811881 0)
(7.33741 0.00844441 0)
(7.33849 0.00866059 0)
(7.33964 0.00877446 0)
(7.34086 0.00879383 0)
(7.34213 0.00872657 0)
(7.34344 0.00858023 0)
(7.34478 0.00836171 0)
(7.34613 0.00807717 0)
(7.3475 0.00773191 0)
(7.34887 0.00733042 0)
(7.35024 0.00687634 0)
(7.35161 0.0063726 0)
(7.35297 0.0058214 0)
(7.35432 0.00522437 0)
(7.35566 0.00458261 0)
(7.35698 0.00389681 0)
(7.35828 0.00316732 0)
(7.35956 0.00239428 0)
(7.36082 0.00157769 0)
(7.36206 0.000717489 0)
(7.36326 -0.000186387 0)
(7.36444 -0.001134 0)
(7.36558 -0.0021256 0)
(7.333 0.000555952 0)
(7.33302 0.0016561 0)
(7.33307 0.00271048 0)
(7.33315 0.00369683 0)
(7.33333 0.00459676 0)
(7.33361 0.00539583 0)
(7.33402 0.00608397 0)
(7.33456 0.00665612 0)
(7.33523 0.00711177 0)
(7.33602 0.00745381 0)
(7.33691 0.0076876 0)
(7.33791 0.00781997 0)
(7.33898 0.00785847 0)
(7.34011 0.0078108 0)
(7.3413 0.00768438 0)
(7.34253 0.0074861 0)
(7.3438 0.00722214 0)
(7.34508 0.00689791 0)
(7.34638 0.00651802 0)
(7.34768 0.00608634 0)
(7.34899 0.005606 0)
(7.3503 0.00507948 0)
(7.3516 0.00450868 0)
(7.35289 0.00389501 0)
(7.35416 0.00323945 0)
(7.35542 0.00254266 0)
(7.35666 0.00180504 0)
(7.35788 0.00102685 0)
(7.35908 0.000208247 0)
(7.36025 -0.000650625 0)
(7.36139 -0.00154962 0)
(7.3625 -0.00248861 0)
(7.36358 -0.00346763 0)
(7.333 0.00054973 0)
(7.333 0.00164315 0)
(7.333 0.00267871 0)
(7.33304 0.00362373 0)
(7.33314 0.00445949 0)
(7.33334 0.00517599 0)
(7.33365 0.00576935 0)
(7.3341 0.00624076 0)
(7.33467 0.0065949 0)
(7.33536 0.00683854 0)
(7.33616 0.00697957 0)
(7.33706 0.00702633 0)
(7.33804 0.00698707 0)
(7.33909 0.00686959 0)
(7.34019 0.00668107 0)
(7.34134 0.00642791 0)
(7.34253 0.00611569 0)
(7.34374 0.00574921 0)
(7.34497 0.0053325 0)
(7.34621 0.00486884 0)
(7.34746 0.0043609 0)
(7.3487 0.00381077 0)
(7.34994 0.00322003 0)
(7.35117 0.00258988 0)
(7.35239 0.00192116 0)
(7.3536 0.00121445 0)
(7.35478 0.000470183 0)
(7.35594 -0.000311355 0)
(7.35708 -0.00112991 0)
(7.3582 -0.00198522 0)
(7.35928 -0.00287703 0)
(7.36033 -0.0038051 0)
(7.36135 -0.00476937 0)
(7.333 0.000552574 0)
(7.33297 0.00165755 0)
(7.3329 0.00269016 0)
(7.33283 0.0036058 0)
(7.33282 0.00438564 0)
(7.3329 0.00502463 0)
(7.33309 0.00552561 0)
(7.33341 0.0058965 0)
(7.33386 0.00614768 0)
(7.33443 0.00629017 0)
(7.33512 0.0063348 0)
(7.3359 0.00629171 0)
(7.33678 0.0061701 0)
(7.33774 0.00597811 0)
(7.33875 0.00572283 0)
(7.33982 0.00541035 0)
(7.34093 0.00504577 0)
(7.34207 0.00463336 0)
(7.34324 0.0041766 0)
(7.34442 0.00367829 0)
(7.3456 0.00314063 0)
(7.34679 0.00256532 0)
(7.34798 0.00195366 0)
(7.34916 0.00130657 0)
(7.35033 0.00062474 0)
(7.35148 -9.13491e-05 0)
(7.35261 -0.000841339 0)
(7.35373 -0.00162494 0)
(7.35482 -0.00244189 0)
(7.35588 -0.0032919 0)
(7.35691 -0.00417468 0)
(7.35792 -0.00508993 0)
(7.35889 -0.00603758 0)
(7.333 0.000570667 0)
(7.33291 0.00171828 0)
(7.33273 0.00277326 0)
(7.33252 0.0036766 0)
(7.33235 0.00441041 0)
(7.33226 0.00497615 0)
(7.33229 0.0053847 0)
(7.33244 0.00565196 0)
(7.33273 0.00579499 0)
(7.33316 0.00582982 0)
(7.33371 0.00577075 0)
(7.33438 0.00563015 0)
(7.33515 0.00541849 0)
(7.336 0.00514451 0)
(7.33693 0.0048154 0)
(7.33792 0.00443703 0)
(7.33895 0.00401415 0)
(7.34003 0.00355054 0)
(7.34113 0.00304917 0)
(7.34225 0.00251234 0)
(7.34339 0.00194182 0)
(7.34453 0.0013389 0)
(7.34567 0.00070452 0)
(7.34681 3.93459e-05 0)
(7.34793 -0.000656167 0)
(7.34905 -0.0013817 0)
(7.35014 -0.00213701 0)
(7.35122 -0.00292189 0)
(7.35227 -0.00373614 0)
(7.35329 -0.00457951 0)
(7.35429 -0.00545175 0)
(7.35525 -0.00635259 0)
(7.35618 -0.00728199 0)
(7.33299 0.000612957 0)
(7.33282 0.0018522 0)
(7.33248 0.00296725 0)
(7.33207 0.00388141 0)
(7.33167 0.00458038 0)
(7.33135 0.00507508 0)
(7.33115 0.00538706 0)
(7.3311 0.00554242 0)
(7.3312 0.00556653 0)
(7.33146 0.00548159 0)
(7.33186 0.00530622 0)
(7.33239 0.00505561 0)
(7.33305 0.00474192 0)
(7.3338 0.00437471 0)
(7.33464 0.00396145 0)
(7.33555 0.0035079 0)
(7.33652 0.00301846 0)
(7.33754 0.00249644 0)
(7.3386 0.00194428 0)
(7.33968 0.00136377 0)
(7.34077 0.000756135 0)
(7.34188 0.000122229 0)
(7.34299 -0.000537415 0)
(7.3441 -0.00122248 0)
(7.34519 -0.00193281 0)
(7.34628 -0.00266832 0)
(7.34735 -0.00342896 0)
(7.3484 -0.0042147 0)
(7.34942 -0.00502547 0)
(7.35042 -0.00586113 0)
(7.35139 -0.00672152 0)
(7.35233 -0.00760651 0)
(7.35323 -0.00851611 0)
(7.33298 0.000693731 0)
(7.33269 0.00210058 0)
(7.33211 0.00333003 0)
(7.33139 0.00428462 0)
(7.33067 0.00495946 0)
(7.33004 0.00538024 0)
(7.32955 0.00558373 0)
(7.32924 0.00561001 0)
(7.32912 0.00549543 0)
(7.32919 0.00527011 0)
(7.32943 0.00495815 0)
(7.32983 0.0045783 0)
(7.33037 0.00414483 0)
(7.33103 0.00366837 0)
(7.3318 0.0031567 0)
(7.33265 0.00261548 0)
(7.33358 0.00204867 0)
(7.33456 0.00145901 0)
(7.33558 0.000848301 0)
(7.33664 0.000217672 0)
(7.33771 -0.000432265 0)
(7.33881 -0.00110125 0)
(7.3399 -0.00178926 0)
(7.341 -0.00249644 0)
(7.34209 -0.00322302 0)
(7.34317 -0.00396926 0)
(7.34423 -0.00473541 0)
(7.34527 -0.00552168 0)
(7.34629 -0.00632822 0)
(7.34728 -0.0071551 0)
(7.34824 -0.00800233 0)
(7.34916 -0.00886993 0)
(7.35006 -0.00975804 0)
(7.33297 0.000837545 0)
(7.33247 0.00253046 0)
(7.33152 0.00395083 0)
(7.33036 0.00498067 0)
(7.3292 0.00563669 0)
(7.32815 0.00596883 0)
(7.32731 0.00603703 0)
(7.32669 0.00590171 0)
(7.32631 0.00561428 0)
(7.32617 0.00521521 0)
(7.32625 0.00473554 0)
(7.32653 0.00419836 0)
(7.32698 0.00362031 0)
(7.32758 0.00301302 0)
(7.3283 0.00238447 0)
(7.32912 0.0017399 0)
(7.33003 0.00108259 0)
(7.331 0.00041441 0)
(7.33203 -0.000263742 0)
(7.33309 -0.000951641 0)
(7.33418 -0.00164952 0)
(7.33529 -0.00235788 0)
(7.3364 -0.0030774 0)
(7.33751 -0.00380883 0)
(7.33862 -0.00455293 0)
(7.33971 -0.00531044 0)
(7.34079 -0.006082 0)
(7.34184 -0.00686818 0)
(7.34287 -0.00766943 0)
(7.34387 -0.00848611 0)
(7.34484 -0.00931848 0)
(7.34578 -0.0101668 0)
(7.34668 -0.0110313 0)
(7.33294 0.00108938 0)
(7.33211 0.00325515 0)
(7.33057 0.00497011 0)
(7.32876 0.00610904 0)
(7.32698 0.00673487 0)
(7.3254 0.00693843 0)
(7.32411 0.00681711 0)
(7.32315 0.00646214 0)
(7.32251 0.00594577 0)
(7.32218 0.00532172 0)
(7.32213 0.00462932 0)
(7.32233 0.00389626 0)
(7.32273 0.00314122 0)
(7.32331 0.00237625 0)
(7.32403 0.00160876 0)
(7.32488 0.000842921 0)
(7.32581 8.06898e-05 0)
(7.32683 -0.000677471 0)
(7.3279 -0.00143204 0)
(7.32901 -0.00218409 0)
(7.33015 -0.00293502 0)
(7.33131 -0.0036864 0)
(7.33247 -0.00443981 0)
(7.33363 -0.00519681 0)
(7.33479 -0.00595887 0)
(7.33593 -0.00672733 0)
(7.33705 -0.00750337 0)
(7.33815 -0.008288 0)
(7.33922 -0.0090821 0)
(7.34025 -0.00988636 0)
(7.34126 -0.0107014 0)
(7.34223 -0.0115276 0)
(7.34316 -0.0123657 0)
(7.33289 0.00153864 0)
(7.33145 0.00447382 0)
(7.32898 0.00661045 0)
(7.32621 0.00787113 0)
(7.32361 0.00841427 0)
(7.32136 0.00840007 0)
(7.31957 0.00798816 0)
(7.31826 0.00731661 0)
(7.3174 0.00648525 0)
(7.31694 0.0055631 0)
(7.31683 0.00459772 0)
(7.31702 0.00362026 0)
(7.31745 0.00264972 0)
(7.31809 0.00169683 0)
(7.3189 0.000766924 0)
(7.31983 -0.000138213 0)
(7.32087 -0.00101902 0)
(7.32199 -0.00187731 0)
(7.32316 -0.00271562 0)
(7.32438 -0.00353686 0)
(7.32562 -0.00434404 0)
(7.32688 -0.00514012 0)
(7.32814 -0.00592789 0)
(7.3294 -0.00670995 0)
(7.33064 -0.00748864 0)
(7.33186 -0.00826606 0)
(7.33306 -0.00904405 0)
(7.33424 -0.00982421 0)
(7.33538 -0.0106079 0)
(7.33648 -0.0113962 0)
(7.33755 -0.0121902 0)
(7.33858 -0.0129906 0)
(7.33956 -0.0137983 0)
(7.33277 0.00237478 0)
(7.33022 0.00655494 0)
(7.32624 0.00923325 0)
(7.3221 0.0105504 0)
(7.31843 0.0108618 0)
(7.31541 0.010448 0)
(7.31313 0.00957073 0)
(7.31155 0.00843401 0)
(7.31057 0.00716799 0)
(7.31011 0.00585422 0)
(7.31008 0.00454459 0)
(7.3104 0.00326933 0)
(7.31099 0.00204373 0)
(7.31181 0.000873909 0)
(7.3128 -0.000239427 0)
(7.31393 -0.00129877 0)
(7.31516 -0.00230842 0)
(7.31646 -0.00327351 0)
(7.31782 -0.00419949 0)
(7.31922 -0.00509169 0)
(7.32063 -0.0059552 0)
(7.32205 -0.00679471 0)
(7.32347 -0.0076145 0)
(7.32487 -0.00841841 0)
(7.32626 -0.00920983 0)
(7.32761 -0.00999176 0)
(7.32894 -0.0107668 0)
(7.33023 -0.0115372 0)
(7.33148 -0.0123049 0)
(7.33269 -0.0130716 0)
(7.33385 -0.0138386 0)
(7.33497 -0.0146072 0)
(7.33604 -0.0153785 0)
(7.33248 0.00396248 0)
(7.32783 0.0101566 0)
(7.32139 0.0134338 0)
(7.31537 0.0145631 0)
(7.31044 0.0142939 0)
(7.3067 0.0131306 0)
(7.30409 0.011502 0)
(7.30245 0.00968908 0)
(7.30159 0.00783761 0)
(7.30136 0.00602685 0)
(7.30161 0.00430169 0)
(7.30225 0.00268195 0)
(7.30318 0.00117174 0)
(7.30434 -0.000232793 0)
(7.30567 -0.00153918 0)
(7.30713 -0.00275673 0)
(7.30868 -0.00389537 0)
(7.31029 -0.00496483 0)
(7.31194 -0.00597428 0)
(7.31361 -0.00693212 0)
(7.31529 -0.00784591 0)
(7.31696 -0.00872239 0)
(7.31861 -0.00956751 0)
(7.32024 -0.0103865 0)
(7.32183 -0.0111839 0)
(7.32338 -0.0119636 0)
(7.32489 -0.0127292 0)
(7.32636 -0.0134834 0)
(7.32777 -0.014229 0)
(7.32914 -0.0149678 0)
(7.33045 -0.0157019 0)
(7.3317 -0.0164328 0)
(7.3329 -0.0171617 0)
(7.33192 0.00692353 0)
(7.32311 0.0161365 0)
(7.31274 0.0198093 0)
(7.30432 0.0202562 0)
(7.29817 0.0188185 0)
(7.29399 0.0163603 0)
(7.29148 0.0135758 0)
(7.29022 0.0108117 0)
(7.28988 0.00818487 0)
(7.29023 0.00574453 0)
(7.2911 0.00351338 0)
(7.29235 0.00148963 0)
(7.29389 -0.000342388 0)
(7.29563 -0.00200244 0)
(7.29752 -0.00351049 0)
(7.29951 -0.00488565 0)
(7.30157 -0.00614575 0)
(7.30365 -0.00730684 0)
(7.30575 -0.00838315 0)
(7.30785 -0.00938713 0)
(7.30992 -0.0103296 0)
(7.31197 -0.0112201 0)
(7.31397 -0.0120666 0)
(7.31592 -0.0128761 0)
(7.31783 -0.0136547 0)
(7.31967 -0.0144075 0)
(7.32146 -0.0151389 0)
(7.32318 -0.0158528 0)
(7.32484 -0.0165523 0)
(7.32643 -0.0172404 0)
(7.32795 -0.0179193 0)
(7.3294 -0.0185913 0)
(7.33079 -0.0192585 0)
(7.33066 0.013816 0)
(7.31338 0.026345 0)
(7.29717 0.0284472 0)
(7.28626 0.0270606 0)
(7.27934 0.0238834 0)
(7.27544 0.0198573 0)
(7.27381 0.015863 0)
(7.27368 0.0122022 0)
(7.2745 0.00887612 0)
(7.27603 0.0058675 0)
(7.27806 0.00316676 0)
(7.28043 0.000748394 0)
(7.28303 -0.00142001 0)
(7.28578 -0.00336874 0)
(7.28862 -0.00512456 0)
(7.2915 -0.0067118 0)
(7.29439 -0.00815263 0)
(7.29726 -0.00946673 0)
(7.30009 -0.0106714 0)
(7.30287 -0.0117816 0)
(7.30558 -0.0128106 0)
(7.30822 -0.0137697 0)
(7.31078 -0.0146688 0)
(7.31326 -0.0155165 0)
(7.31565 -0.0163201 0)
(7.31795 -0.017086 0)
(7.32016 -0.0178197 0)
(7.32227 -0.0185259 0)
(7.3243 -0.0192085 0)
(7.32624 -0.0198711 0)
(7.32808 -0.0205163 0)
(7.32983 -0.0211465 0)
(7.3315 -0.0217632 0)
(7.32447 0.0352529 0)
(7.28905 0.0484152 0)
(7.26649 0.0395877 0)
(7.25598 0.0291992 0)
(7.2507 0.0198781 0)
(7.2489 0.0120337 0)
(7.24973 0.00591272 0)
(7.25205 0.00117562 0)
(7.25519 -0.00258285 0)
(7.25891 -0.00559879 0)
(7.26304 -0.00802561 0)
(7.26742 -0.0100023 0)
(7.27191 -0.0116415 0)
(7.27644 -0.0130238 0)
(7.28095 -0.0142073 0)
(7.28539 -0.0152356 0)
(7.28974 -0.0161422 0)
(7.29397 -0.016953 0)
(7.29807 -0.0176879 0)
(7.30202 -0.0183623 0)
(7.30583 -0.0189882 0)
(7.30948 -0.0195751 0)
(7.31298 -0.0201308 0)
(7.31632 -0.0206613 0)
(7.31952 -0.0211713 0)
(7.32256 -0.021665 0)
(7.32546 -0.0221455 0)
(7.32822 -0.0226155 0)
(7.33084 -0.0230774 0)
(7.33333 -0.0235332 0)
(7.33569 -0.0239849 0)
(7.33792 -0.0244348 0)
(7.34004 -0.0248858 0)
(7.29541 0.0831414 0)
(7.21833 0.128044 0)
(7.18707 0.129005 0)
(7.18632 0.113963 0)
(7.19295 0.0941338 0)
(7.20193 0.0760904 0)
(7.21231 0.0610613 0)
(7.22297 0.0481511 0)
(7.2335 0.0368373 0)
(7.24384 0.027022 0)
(7.2539 0.018608 0)
(7.26354 0.0114379 0)
(7.27271 0.00534257 0)
(7.2814 0.000171024 0)
(7.2896 -0.00421153 0)
(7.29733 -0.00792664 0)
(7.3046 -0.0110811 0)
(7.31144 -0.0137662 0)
(7.31786 -0.0160585 0)
(7.32388 -0.0180226 0)
(7.32954 -0.0197123 0)
(7.33485 -0.0211727 0)
(7.33984 -0.0224414 0)
(7.34451 -0.0235496 0)
(7.3489 -0.0245233 0)
(7.35301 -0.0253842 0)
(7.35687 -0.0261505 0)
(7.36048 -0.026837 0)
(7.36386 -0.0274563 0)
(7.36703 -0.0280187 0)
(7.36998 -0.0285325 0)
(7.37274 -0.0290038 0)
(7.3753 -0.0294398 0)
(7.32717 -0.156814 0)
(7.19692 -0.284093 0)
(7.13361 -0.280647 0)
(7.11315 -0.247166 0)
(7.11508 -0.214555 0)
(7.13554 -0.184254 0)
(7.16564 -0.15703 0)
(7.19803 -0.134036 0)
(7.22997 -0.115222 0)
(7.26033 -0.0998975 0)
(7.28836 -0.0873946 0)
(7.31375 -0.0772154 0)
(7.33648 -0.0689512 0)
(7.35673 -0.0622443 0)
(7.37473 -0.0567932 0)
(7.39067 -0.0523549 0)
(7.40478 -0.0487356 0)
(7.41726 -0.0457796 0)
(7.4283 -0.0433615 0)
(7.43805 -0.0413804 0)
(7.44667 -0.0397555 0)
(7.45427 -0.0384216 0)
(7.46098 -0.0373266 0)
(7.46689 -0.036428 0)
(7.47208 -0.0356917 0)
(7.47664 -0.0350899 0)
(7.48063 -0.0346001 0)
(7.4841 -0.0342038 0)
(7.48712 -0.0338859 0)
(7.48972 -0.0336337 0)
(7.49196 -0.0334365 0)
(7.49386 -0.0332855 0)
(7.49548 -0.0331691 0)
(7.33086 1.21499 0)
(7.63822 1.23053 0)
(7.81865 0.920168 0)
(7.8759 0.647915 0)
(7.88919 0.449902 0)
(7.88325 0.310866 0)
(7.8619 0.213001 0)
(7.83007 0.143229 0)
(7.79309 0.0928992 0)