/*--------------------------------*- C++ -*----------------------------------*\
| =========                 |                                                 |
| \\      /  F ield         | OpenFOAM: The Open Source CFD Toolbox           |
|  \\    /   O peration     | Version:  4.1                                   |
|   \\  /    A nd           | Web:      www.OpenFOAM.org                      |
|    \\/     M anipulation  |                                                 |
\*---------------------------------------------------------------------------*/
FoamFile
{
    version     2.0;
    format      ascii;
    class       volScalarField;
    location    "500";
    object      epsilon;
}
// * * * * * * * * * * * * * * * * * * * * * * * * * * * * * * * * * * * * * //

dimensions      [0 2 -3 0 0 0 0];

internalField   nonuniform List<scalar> 
6820
(
105.266
143.991
186.348
230.922
275.886
319.398
359.83
395.945
426.989
452.666
473.054
488.506
499.543
506.77
510.807
512.248
511.63
509.424
506.028
501.773
496.929
491.712
486.29
480.795
475.328
469.965
464.76
459.763
454.958
450.585
445.577
445.259
423.812
8.29011
15.9003
22.4184
28.6687
35.0357
41.4782
47.8158
53.8798
59.5369
64.6933
69.2983
73.3419
76.8456
79.8526
82.4179
84.6009
86.4609
88.0527
89.4256
90.622
91.6775
92.6215
93.4775
94.2638
94.9943
95.6791
96.3247
96.9355
97.5093
98.0603
98.5248
99.1508
99.2476
3.96314
5.25657
6.61244
7.86034
8.98633
10.02
10.9814
11.8766
12.7062
13.4706
14.1709
14.8095
15.3898
15.9163
16.3941
16.8288
17.2258
17.5905
17.9278
18.2425
18.5386
18.8196
19.0887
19.3484
19.6009
19.848
20.0908
20.3304
20.5671
20.8018
21.0329
21.2605
21.4889
3.56001
3.77406
4.11206
4.49695
4.88093
5.24453
5.58216
5.89296
6.17759
6.43725
6.67339
6.88758
7.08141
7.25652
7.41453
7.55703
7.68553
7.80151
7.90635
8.00135
8.08771
8.16655
8.23891
8.30571
8.36781
8.42598
8.4809
8.5332
8.58342
8.6321
8.67962
8.72664
8.77331
3.52137
3.52456
3.57972
3.67702
3.8
3.93473
4.072
4.20644
4.3351
4.45643
4.56972
4.67473
4.7715
4.86025
4.94131
5.0151
5.08205
5.14262
5.19729
5.24651
5.29075
5.33044
5.366
5.39783
5.4263
5.45176
5.47454
5.49494
5.51323
5.52966
5.54447
5.55788
5.57008
3.5192
3.48502
3.46593
3.46518
3.48166
3.51175
3.55133
3.59673
3.64514
3.69452
3.74346
3.79099
3.83648
3.87953
3.91991
3.95749
3.99225
4.02421
4.05346
4.08007
4.10419
4.12594
4.14547
4.16291
4.17841
4.19211
4.20415
4.21466
4.22375
4.23154
4.23814
4.24361
4.24809
3.51939
3.47993
3.44464
3.41561
3.39411
3.3804
3.37385
3.37335
3.37763
3.38549
3.39589
3.40797
3.42103
3.43455
3.4481
3.4614
3.4742
3.48634
3.49773
3.50828
3.51795
3.52673
3.53461
3.54162
3.54776
3.55307
3.55758
3.56134
3.56437
3.56672
3.56841
3.56949
3.56999
3.51947
3.47945
3.44133
3.40568
3.37315
3.34425
3.31922
3.29806
3.28052
3.26626
3.25482
3.24577
3.23868
3.23318
3.22892
3.22562
3.22304
3.22098
3.21927
3.2178
3.21644
3.21513
3.21378
3.21236
3.21082
3.20914
3.20729
3.20527
3.20305
3.20065
3.19804
3.19524
3.19224
3.51948
3.47942
3.4409
3.40399
3.36885
3.33565
3.30457
3.27571
3.24914
3.22481
3.20264
3.18249
3.1642
3.14758
3.13245
3.11864
3.10598
3.09432
3.08353
3.07348
3.06407
3.05522
3.04683
3.03884
3.0312
3.02385
3.01675
3.00986
3.00315
2.9966
2.99017
2.98385
2.97762
3.51948
3.47942
3.44085
3.40374
3.36808
3.33388
3.30115
3.26994
3.24026
3.21213
3.18553
3.16045
3.13683
3.1146
3.0937
3.07403
3.05552
3.03808
3.02161
3.00605
2.99131
2.97732
2.96403
2.95136
2.93926
2.92768
2.91659
2.90592
2.89566
2.88577
2.87621
2.86695
2.85798
3.51948
3.47941
3.44083
3.40369
3.36795
3.33354
3.30044
3.26862
3.23804
3.20871
3.18058
3.15365
3.1279
3.10327
3.07975
3.0573
3.03586
3.01539
2.99584
2.97717
2.95932
2.94226
2.92593
2.91028
2.89529
2.8809
2.86708
2.8538
2.84101
2.8287
2.81683
2.80538
2.79431
3.51948
3.47941
3.44082
3.40367
3.36791
3.33347
3.30029
3.26833
3.23753
3.20787
3.17929
3.15178
3.12529
3.0998
3.07527
3.05167
3.02898
3.00715
2.98616
2.96598
2.94656
2.92789
2.90992
2.89263
2.87598
2.85994
2.84449
2.8296
2.81524
2.80138
2.788
2.77507
2.76258
3.51948
3.47941
3.44081
3.40366
3.36789
3.33343
3.30024
3.26824
3.2374
3.20765
3.17896
3.15128
3.12458
3.09881
3.07394
3.04995
3.02679
3.00444
2.98286
2.96204
2.94194
2.92254
2.90381
2.88571
2.86824
2.85136
2.83506
2.8193
2.80406
2.78933
2.77509
2.7613
2.74796
3.51948
3.4794
3.44081
3.40365
3.36787
3.33341
3.30021
3.2682
3.23734
3.20757
3.17885
3.15113
3.12436
3.09851
3.07355
3.04943
3.02612
3.00359
2.98181
2.96075
2.94039
2.92069
2.90165
2.88322
2.86539
2.84813
2.83143
2.81526
2.7996
2.78444
2.76975
2.75552
2.74172
3.51948
3.4794
3.4408
3.40364
3.36786
3.33339
3.30018
3.26817
3.2373
3.20752
3.17879
3.15105
3.12427
3.0984
3.0734
3.04924
3.02588
3.00329
2.98144
2.96031
2.93985
2.92006
2.90089
2.88234
2.86436
2.84696
2.83009
2.81375
2.79791
2.78255
2.76767
2.75323
2.73922
3.51948
3.4794
3.4408
3.40363
3.36785
3.33338
3.30016
3.26814
3.23727
3.20748
3.17874
3.15099
3.1242
3.09832
3.07331
3.04913
3.02576
3.00315
2.98128
2.96012
2.93963
2.9198
2.90059
2.88199
2.86396
2.8465
2.82957
2.81316
2.79725
2.78181
2.76684
2.75232
2.73822
3.51948
3.47939
3.44079
3.40362
3.36784
3.33336
3.30014
3.26812
3.23724
3.20745
3.1787
3.15094
3.12414
3.09825
3.07323
3.04905
3.02567
3.00305
2.98117
2.95999
2.93949
2.91964
2.90042
2.8818
2.86375
2.84626
2.82931
2.81287
2.79693
2.78146
2.76646
2.7519
2.73776
3.51947
3.47939
3.44079
3.40362
3.36783
3.33335
3.30012
3.2681
3.23721
3.20741
3.17866
3.1509
3.12409
3.09819
3.07317
3.04898
3.02559
3.00296
2.98107
2.95989
2.93938
2.91952
2.90029
2.88165
2.8636
2.8461
2.82913
2.81268
2.79672
2.78124
2.76622
2.75164
2.73748
3.51947
3.47939
3.44078
3.40361
3.36782
3.33334
3.30011
3.26808
3.23718
3.20738
3.17862
3.15086
3.12404
3.09814
3.07311
3.04891
3.02551
3.00288
2.98098
2.95979
2.93928
2.91941
2.90017
2.88153
2.86346
2.84595
2.82898
2.81251
2.79655
2.78106
2.76602
2.75143
2.73727
3.51947
3.47939
3.44078
3.40361
3.36781
3.33333
3.3001
3.26806
3.23716
3.20736
3.17859
3.15082
3.124
3.09809
3.07306
3.04885
3.02545
3.00281
2.9809
2.95971
2.93918
2.91931
2.90006
2.88141
2.86334
2.84582
2.82884
2.81237
2.79639
2.78089
2.76585
2.75125
2.73708
3.51947
3.47939
3.44078
3.4036
3.36781
3.33332
3.30008
3.26804
3.23714
3.20733
3.17856
3.15079
3.12396
3.09805
3.07301
3.0488
3.02539
3.00274
2.98083
2.95963
2.9391
2.91922
2.89996
2.88131
2.86323
2.8457
2.82871
2.81223
2.79625
2.78074
2.76569
2.75108
2.7369
3.51947
3.47939
3.44078
3.4036
3.3678
3.33331
3.30007
3.26803
3.23713
3.20731
3.17854
3.15076
3.12393
3.09801
3.07296
3.04875
3.02533
3.00268
2.98076
2.95955
2.93902
2.91913
2.89987
2.88121
2.86312
2.84559
2.82859
2.81211
2.79611
2.7806
2.76554
2.75093
2.73674
3.51947
3.47939
3.44077
3.4036
3.3678
3.3333
3.30006
3.26802
3.23711
3.20729
3.17852
3.15073
3.1239
3.09798
3.07292
3.0487
3.02528
3.00263
2.9807
2.95949
2.93895
2.91905
2.89979
2.88112
2.86302
2.84549
2.82848
2.81199
2.79599
2.78047
2.76541
2.75079
2.73659
3.51947
3.47939
3.44077
3.4036
3.36779
3.3333
3.30006
3.26801
3.2371
3.20728
3.1785
3.15071
3.12387
3.09794
3.07289
3.04866
3.02524
3.00258
2.98065
2.95943
2.93888
2.91898
2.89971
2.88103
2.86294
2.84539
2.82838
2.81188
2.79588
2.78035
2.76528
2.75066
2.73645
3.51947
3.47938
3.44077
3.40359
3.36779
3.33329
3.30005
3.268
3.23709
3.20726
3.17848
3.15069
3.12385
3.09792
3.07285
3.04863
3.0252
3.00253
2.9806
2.95937
2.93882
2.91892
2.89964
2.88096
2.86286
2.84531
2.82829
2.81179
2.79578
2.78024
2.76517
2.75054
2.73633
3.51947
3.47938
3.44077
3.40359
3.36779
3.33329
3.30004
3.26799
3.23708
3.20725
3.17847
3.15067
3.12383
3.09789
3.07283
3.0486
3.02516
3.00249
2.98056
2.95932
2.93877
2.91886
2.89958
2.88089
2.86278
2.84523
2.82821
2.8117
2.79568
2.78014
2.76506
2.75043
2.73621
3.51947
3.47938
3.44077
3.40359
3.36778
3.33329
3.30004
3.26799
3.23707
3.20724
3.17845
3.15066
3.12381
3.09787
3.0728
3.04857
3.02513
3.00246
2.98052
2.95928
2.93872
2.91881
2.89952
2.88083
2.86272
2.84516
2.82813
2.81162
2.7956
2.78006
2.76497
2.75033
2.73611
3.51947
3.47938
3.44077
3.40359
3.36778
3.33328
3.30004
3.26798
3.23706
3.20723
3.17844
3.15064
3.1238
3.09785
3.07278
3.04854
3.0251
3.00243
2.98048
2.95925
2.93868
2.91877
2.89947
2.88078
2.86266
2.8451
2.82807
2.81155
2.79553
2.77998
2.76489
2.75024
2.73602
3.51947
3.47938
3.44077
3.40359
3.36778
3.33328
3.30003
3.26798
3.23706
3.20723
3.17844
3.15063
3.12378
3.09784
3.07277
3.04853
3.02508
3.0024
2.98046
2.95921
2.93865
2.91873
2.89943
2.88074
2.86261
2.84505
2.82801
2.81149
2.79546
2.77991
2.76482
2.75017
2.73594
3.51947
3.47938
3.44077
3.40359
3.36778
3.33328
3.30003
3.26797
3.23706
3.20722
3.17843
3.15063
3.12377
3.09783
3.07275
3.04851
3.02507
3.00238
2.98044
2.95919
2.93862
2.9187
2.8994
2.8807
2.86258
2.84501
2.82797
2.81144
2.79541
2.77986
2.76476
2.75011
2.73588
3.51947
3.47938
3.44077
3.40359
3.36778
3.33328
3.30003
3.26797
3.23705
3.20722
3.17842
3.15062
3.12377
3.09782
3.07274
3.0485
3.02505
3.00237
2.98042
2.95917
2.9386
2.91868
2.89938
2.88068
2.86255
2.84498
2.82794
2.81141
2.79538
2.77983
2.76473
2.75008
2.73585
3.51947
3.47938
3.44077
3.40359
3.36778
3.33328
3.30003
3.26797
3.23705
3.20722
3.17842
3.15062
3.12377
3.09782
3.07275
3.0485
3.02506
3.00238
2.98043
2.95919
2.93862
2.9187
2.8994
2.88071
2.86259
2.84502
2.82799
2.81147
2.79545
2.7799
2.76482
2.75018
2.73596
3.51947
3.47938
3.44077
3.40359
3.36778
3.33328
3.30003
3.26797
3.23705
3.20722
3.17843
3.15063
3.12378
3.09785
3.07278
3.04855
3.02512
3.00246
2.98053
2.95931
2.93877
2.91888
2.89962
2.88097
2.86289
2.84537
2.82839
2.81192
2.79595
2.78047
2.76544
2.75087
2.73672
3.51947
3.47938
3.44077
3.40359
3.36778
3.33329
3.30005
3.26801
3.23712
3.20732
3.17858
3.15083
3.12404
3.09818
3.0732
3.04906
3.02574
3.0032
2.98141
2.96034
2.93996
2.92024
2.90117
2.88271
2.86484
2.84754
2.83079
2.81457
2.79885
2.78362
2.76886
2.75455
2.74068
3.51947
3.47938
3.44078
3.40362
3.36785
3.33343
3.30029
3.26839
3.23768
3.20811
3.17965
3.15224
3.12585
3.10044
3.07597
3.05239
3.02968
3.00781
2.98672
2.9664
2.94681
2.92792
2.9097
2.89212
2.87516
2.85879
2.84298
2.82771
2.81296
2.7987
2.78492
2.7716
2.75871
3.51947
3.47942
3.44096
3.40413
3.36894
3.33533
3.30327
3.27269
3.24354
3.21576
3.1893
3.1641
3.1401
3.11725
3.09548
3.07475
3.05499
3.03615
3.01818
3.00102
2.98464
2.96898
2.95401
2.93967
2.92594
2.91278
2.90016
2.88804
2.8764
2.86521
2.85444
2.84407
2.83408
3.5195
3.48076
3.44539
3.41321
3.38398
3.35748
3.33355
3.312
3.29267
3.27534
3.25985
3.246
3.23362
3.22255
3.21264
3.20375
3.19576
3.18856
3.18205
3.17615
3.17077
3.16586
3.16134
3.15717
3.1533
3.1497
3.14632
3.14314
3.14012
3.13725
3.13451
3.13188
3.12934
3.52507
3.51485
3.52106
3.53658
3.55849
3.58526
3.61586
3.64937
3.68497
3.72199
3.75986
3.79815
3.8365
3.87462
3.91228
3.94933
3.98562
4.02105
4.05557
4.0891
4.12164
4.15314
4.18362
4.21307
4.2415
4.26892
4.29535
4.32083
4.34536
4.36898
4.39171
4.41359
4.43465
3.842
4.3878
4.87743
5.34253
5.79464
6.23526
6.66236
7.07459
7.47195
7.85505
8.22464
8.58149
8.92638
9.26003
9.58307
9.89607
10.1995
10.4938
10.7794
11.0566
11.3257
11.5869
11.8406
12.0869
12.3261
12.5584
12.7839
13.003
13.2157
13.4222
13.6228
13.8176
14.0069
30.2673
32.7691
35.3054
37.8487
40.3863
42.91
45.4131
47.8885
50.3296
52.7305
55.0859
57.3912
59.6424
61.8362
63.9699
66.0414
68.0491
69.9918
71.869
73.6802
75.4257
77.1057
78.721
80.2724
81.761
83.1881
84.5551
85.8635
87.1149
88.3109
89.4535
90.544
91.5855
487.133
554.915
605.692
643.54
673.048
695.23
709.028
713.294
707.819
693.724
673.109
648.418
621.883
595.202
569.445
545.128
522.36
501.019
480.889
461.764
443.494
425.998
409.253
393.268
378.065
363.654
350.031
337.173
325.042
313.591
302.771
292.53
282.818
273.585
264.784
256.367
248.286
240.494
232.945
225.598
218.41
211.346
204.373
197.465
190.599
183.758
176.932
170.115
163.308
156.517
149.754
143.035
136.378
129.808
123.351
117.033
110.881
104.923
99.1841
93.6868
88.4509
83.4927
78.8239
74.4523
70.381
66.6093
63.1321
59.9414
57.0259
54.3718
51.9635
49.7841
47.8157
46.04
44.4386
42.9935
41.6871
40.5024
39.4233
38.4349
37.5233
36.6757
35.8805
35.1274
34.4074
33.7125
33.0359
32.3718
31.7155
31.0631
30.4115
29.7584
29.102
28.4407
27.7742
27.1005
26.4241
25.727
25.091
24.0779
100.038
103.293
108.909
116.983
127.842
141.78
158.888
178.958
201.417
225.359
249.645
273.056
294.436
312.825
327.548
338.263
344.955
347.898
347.57
344.568
339.515
332.988
325.467
317.321
308.809
300.103
291.314
282.516
273.765
265.106
256.578
248.212
240.032
232.052
224.275
216.696
209.304
202.081
195.01
188.071
181.246
174.516
167.866
161.285
154.763
148.296
141.881
135.521
129.223
122.998
116.86
110.827
104.917
99.1526
93.5558
88.1488
82.9529
77.9878
73.2707
68.8158
64.634
60.7322
57.1138
53.7781
50.7211
47.9356
45.4116
43.1368
41.0972
39.2774
37.6612
36.2319
34.9727
33.867
32.8984
32.0511
31.3099
30.6605
30.0891
29.5829
29.1301
28.7196
28.3415
27.9869
27.6477
27.3168
26.9884
26.6573
26.3191
25.9707
25.6091
25.2325
24.8395
24.4289
24.0006
23.5533
23.0909
22.5994
22.1441
21.3878
21.7327
22.0583
22.5151
23.0962
23.882
24.9729
26.4873
28.5665
31.373
35.0817
39.8659
45.8776
53.2251
61.9487
71.9995
83.2241
95.359
108.039
120.818
133.213
144.746
155
163.661
170.544
175.597
178.889
180.577
180.869
179.992
178.166
175.583
172.407
168.765
164.759
160.467
155.951
151.259
146.43
141.496
136.482
131.409
126.295
121.155
116.004
110.855
105.721
100.617
95.5577
90.56
85.6419
80.8224
76.121
71.5577
67.1519
62.9221
58.8853
55.0565
51.4478
48.0687
44.9252
42.0203
39.3538
36.9224
34.7202
32.7391
30.9689
29.3982
28.0147
26.8052
25.7566
24.8555
24.0887
23.4436
22.9077
22.469
22.1162
21.8381
21.6243
21.4645
21.3492
21.2691
21.2156
21.1805
21.1565
21.1365
21.1145
21.085
21.0432
20.9852
20.9075
20.8076
20.6835
20.5336
20.357
20.1533
19.9215
19.6647
19.3728
19.0929
18.5921
8.83112
8.90053
8.97631
9.06149
9.15093
9.25116
9.37338
9.53249
9.74754
10.0423
10.4457
10.9929
11.7258
12.6936
13.9531
15.5677
17.6048
20.1303
23.2002
26.8506
31.086
35.8698
41.1188
46.7035
52.4562
58.1846
63.6898
68.786
73.3166
77.1663
80.2658
82.5903
84.153
84.9959
85.1798
84.7749
83.8545
82.4891
80.7445
78.6801
76.3489
73.7979
71.0693
68.201
65.2276
62.1808
59.0903
55.984
52.8881
49.8272
46.8245
43.9013
41.0769
38.3685
35.7909
33.3562
31.0737
28.9499
26.9886
25.1909
23.5553
22.0784
20.755
19.5785
18.5414
17.6353
16.8519
16.1825
15.6187
15.1524
14.7759
14.4817
14.2629
14.1128
14.0251
13.9935
14.012
14.0745
14.175
14.3074
14.4655
14.6433
14.8346
15.0334
15.234
15.4308
15.6188
15.7933
15.9499
16.0851
16.1958
16.2793
16.3337
16.3574
16.3495
16.3088
16.2371
16.1276
16.0089
15.7503
5.58312
5.5971
5.61054
5.62393
5.63602
5.64706
5.65805
5.6706
5.68701
5.71037
5.74462
5.79469
5.86656
5.96741
6.10577
6.29159
6.53646
6.85356
7.25767
7.76491
8.39236
9.15724
10.0758
11.1613
12.4222
13.8589
15.4616
17.2082
19.0639
20.9822
22.9079
24.7809
26.5414
28.1341
29.5127
30.6421
31.4998
32.0755
32.3704
32.3952
32.1677
31.7109
31.0514
30.2173
29.2372
28.1396
26.9518
25.6999
24.408
23.0982
21.7907
20.5032
19.251
18.0469
16.9014
15.8225
14.8159
13.8853
13.0325
12.2576
11.5597
10.9364
10.385
9.90207
9.48393
9.12694
8.82747
8.58212
8.38773
8.24143
8.14067
8.08314
8.0668
8.08973
8.15015
8.24624
8.3761
8.53764
8.72853
8.94606
9.18718
9.44842
9.72593
10.0155
10.3128
10.613
10.9116
11.2038
11.4852
11.7517
11.9992
12.2244
12.4243
12.5963
12.7385
12.8489
12.9275
12.9703
12.9877
12.9429
4.25202
4.25511
4.25689
4.25749
4.25673
4.25464
4.25136
4.24713
4.2423
4.23739
4.23309
4.23032
4.23021
4.23414
4.24379
4.26109
4.28827
4.32786
4.38267
4.45573
4.55029
4.66971
4.81742
4.99674
5.21072
5.46192
5.75209
6.08186
6.45032
6.85473
7.2902
7.74957
8.22343
8.70032
9.16732
9.61065
10.0166
10.3724
10.6671
10.892
11.0414
11.1128
11.1065
11.0256
10.8756
10.6638
10.3989
10.0902
9.74747
9.38028
8.99773
8.60819
8.21911
7.83691
7.46692
7.1134
6.77961
6.46789
6.1798
5.9162
5.67743
5.46345
5.27388
5.10821
4.9658
4.846
4.74822
4.67194
4.61675
4.58242
4.56882
4.57599
4.60413
4.65351
4.7245
4.81751
4.93291
5.07097
5.2318
5.41521
5.62072
5.84739
6.09381
6.35807
6.63772
6.9298
7.23092
7.53732
7.84498
8.14976
8.4475
8.73414
9.00583
9.25901
9.49052
9.69743
9.87769
10.0294
10.1465
10.2702
3.5698
3.56863
3.56648
3.56333
3.55916
3.55397
3.5478
3.54071
3.53276
3.52409
3.51483
3.5052
3.49545
3.48591
3.47698
3.46911
3.46287
3.45888
3.45785
3.46056
3.46783
3.48054
3.49954
3.52569
3.55976
3.6024
3.6541
3.71514
3.78551
3.86489
3.95255
4.04737
4.14776
4.25174
4.35689
4.46049
4.55957
4.65107
4.732
4.7996
4.85149
4.88579
4.90128
4.89737
4.8742
4.83252
4.77369
4.69952
4.61217
4.51402
4.40756
4.29524
4.17942
4.06229
3.94577
3.83156
3.72107
3.61548
3.51569
3.42242
3.33618
3.25737
3.18624
3.12299
3.06775
3.02066
2.98185
2.95149
2.92978
2.91701
2.91354
2.91983
2.93642
2.96396
3.00319
3.05494
3.12012
3.19966
3.29451
3.40557
3.53363
3.67931
3.84299
4.02469
4.22405
4.44023
4.67188
4.91715
5.17365
5.43854
5.7086
5.98031
6.24998
6.51384
6.76822
7.00953
7.23425
7.44177
7.61366
7.84526
3.18844
3.18364
3.17826
3.17226
3.16562
3.15834
3.1504
3.14181
3.1326
3.12279
3.11242
3.10155
3.09023
3.07855
3.06661
3.05454
3.04248
3.03059
3.01908
3.00816
2.99808
2.9891
2.9815
2.97555
2.97152
2.96966
2.97017
2.97319
2.97878
2.98694
2.99751
3.01027
3.02484
3.04074
3.05737
3.07403
3.08995
3.10431
3.11629
3.12507
3.12992
3.13022
3.12545
3.11528
3.09955
3.07827
3.05164
3.01999
2.98382
2.94371
2.90033
2.85438
2.80658
2.75764
2.70822
2.65894
2.61037
2.56298
2.51721
2.47339
2.43183
2.39277
2.35642
2.32296
2.29253
2.2653
2.24142
2.22106
2.20441
2.19171
2.18323
2.17931
2.18035
2.1868
2.19921
2.21819
2.24445
2.27877
2.32198
2.37499
2.43875
2.51418
2.60222
2.70367
2.81922
2.94935
3.09426
3.25379
3.42742
3.61415
3.81253
4.02065
4.23617
4.4564
4.67832
4.89882
5.11403
5.32452
5.50526
5.77694
2.97043
2.96209
2.95348
2.94457
2.93533
2.92574
2.91579
2.90545
2.89474
2.88365
2.87218
2.86035
2.84816
2.83565
2.82283
2.80974
2.79641
2.78288
2.76921
2.75545
2.74166
2.72793
2.71434
2.70099
2.68795
2.67533
2.66321
2.65168
2.64077
2.63054
2.62097
2.61205
2.60368
2.59576
2.58813
2.58061
2.57296
2.56494
2.5563
2.54678
2.53612
2.5241
2.51052
2.49526
2.4782
2.45931
2.43861
2.41617
2.39212
2.36662
2.33987
2.3121
2.28355
2.25447
2.22509
2.19567
2.16641
2.13751
2.10916
2.0815
2.05468
2.02881
2.004
1.98033
1.95791
1.9368
1.91711
1.89892
1.88236
1.86755
1.85465
1.84385
1.83538
1.8295
1.82653
1.82685
1.83088
1.83911
1.85208
1.87042
1.89481
1.92596
1.96465
2.01167
2.06782
2.13386
2.21047
2.29823
2.39755
2.50859
2.63126
2.76513
2.90941
3.06292
3.2241
3.39114
3.5611
3.73559
3.88957
4.14135
2.84783
2.83632
2.82475
2.81307
2.80127
2.78932
2.77721
2.76493
2.75246
2.73979
2.72692
2.71384
2.70055
2.68706
2.67336
2.65946
2.64537
2.63109
2.61664
2.60202
2.58724
2.57233
2.5573
2.54217
2.52697
2.51174
2.49649
2.48126
2.46609
2.45098
2.43596
2.42104
2.40621
2.39147
2.37676
2.36207
2.34732
2.33246
2.31741
2.30208
2.28641
2.2703
2.25371
2.23657
2.21884
2.2005
2.18155
2.162
2.14189
2.12126
2.1002
2.07876
2.05705
2.03514
2.01312
1.99109
1.96913
1.94731
1.9257
1.90437
1.88338
1.86276
1.84257
1.82284
1.8036
1.7849
1.76678
1.74928
1.73245
1.71637
1.70111
1.68678
1.67348
1.66138
1.65062
1.64144
1.63405
1.62875
1.62584
1.62572
1.62878
1.63549
1.64637
1.66197
1.68288
1.70971
1.74308
1.78361
1.83188
1.88838
1.95353
2.02757
2.11059
2.20243
2.30267
2.4107
2.52489
2.64749
2.75811
2.95337
2.78184
2.76781
2.7538
2.73979
2.72578
2.71174
2.69765
2.68352
2.66931
2.65504
2.64068
2.62623
2.61169
2.59706
2.58232
2.56747
2.55253
2.53747
2.52231
2.50703
2.49165
2.47615
2.46054
2.44481
2.42898
2.41304
2.39701
2.38088
2.36467
2.34839
2.33204
2.31563
2.29918
2.28267
2.26613
2.24953
2.23288
2.21617
2.19937
2.18248
2.16548
2.14834
2.13105
2.1136
2.09597
2.07816
2.06017
2.04201
2.02369
2.00522
1.98663
1.96794
1.94919
1.93039
1.91159
1.89281
1.87407
1.85541
1.83685
1.81839
1.80007
1.78188
1.76385
1.74598
1.72829
1.71077
1.69346
1.67636
1.6595
1.64291
1.62662
1.61069
1.59517
1.58014
1.5657
1.55194
1.53899
1.52702
1.5162
1.50674
1.49888
1.49289
1.48908
1.4878
1.48942
1.49437
1.50306
1.51597
1.53356
1.55629
1.58461
1.61889
1.65948
1.7066
1.76034
1.82074
1.88707
1.96152
2.02996
2.16001
2.74851
2.7327
2.71692
2.70119
2.68549
2.66981
2.65415
2.63849
2.62283
2.60717
2.59149
2.57579
2.56007
2.54432
2.52854
2.51273
2.49688
2.481
2.46507
2.4491
2.43309
2.41702
2.4009
2.38473
2.36849
2.35218
2.33581
2.31938
2.30287
2.2863
2.26967
2.25298
2.23622
2.21942
2.20256
2.18567
2.16873
2.15175
2.13474
2.11769
2.10061
2.0835
2.06637
2.0492
2.032
2.01478
1.99753
1.98027
1.963
1.94572
1.92844
1.91117
1.89392
1.87669
1.85949
1.84232
1.82519
1.80811
1.79106
1.77405
1.75708
1.74015
1.72324
1.70636
1.6895
1.67267
1.65585
1.63907
1.62231
1.6056
1.58895
1.57239
1.55594
1.53964
1.52354
1.50769
1.49217
1.47706
1.46246
1.44848
1.43524
1.42292
1.41169
1.40173
1.3933
1.38663
1.38201
1.37973
1.38011
1.3835
1.39023
1.40064
1.41503
1.43372
1.45691
1.48483
1.51726
1.55581
1.59201
1.66673
2.73291
2.71598
2.69908
2.68222
2.66539
2.64859
2.63182
2.61507
2.59834
2.58162
2.56492
2.54824
2.53156
2.51489
2.49823
2.48158
2.46493
2.44829
2.43165
2.41501
2.39838
2.38174
2.36511
2.34846
2.33181
2.31514
2.29847
2.28177
2.26506
2.24832
2.23157
2.21479
2.19799
2.18118
2.16435
2.14751
2.13066
2.11381
2.09697
2.08012
2.06329
2.04648
2.02968
2.01291
1.99617
1.97946
1.96279
1.94616
1.92958
1.91303
1.89654
1.88009
1.86368
1.84732
1.83099
1.8147
1.79844
1.7822
1.76597
1.74974
1.73351
1.71725
1.70097
1.68465
1.66828
1.65186
1.63538
1.61883
1.60222
1.58556
1.56883
1.55207
1.53528
1.51848
1.50169
1.48496
1.46832
1.45181
1.43548
1.41941
1.40365
1.38831
1.37348
1.35927
1.34582
1.33326
1.32177
1.31152
1.30272
1.29559
1.29036
1.28726
1.28654
1.28843
1.29316
1.30095
1.3118
1.32668
1.34135
1.37632
2.72615
2.7086
2.69106
2.67355
2.65605
2.63858
2.62112
2.60368
2.58625
2.56885
2.55146
2.53409
2.51674
2.49941
2.4821
2.46481
2.44754
2.4303
2.41309
2.3959
2.37873
2.3616
2.34449
2.32741
2.31036
2.29334
2.27634
2.25936
2.24241
2.22548
2.20857
2.19168
2.17481
2.15797
2.14115
2.12436
2.1076
2.09087
2.07418
2.05752
2.04091
2.02435
2.00784
1.99139
1.97499
1.95865
1.94238
1.92617
1.91002
1.89394
1.87792
1.86196
1.84605
1.83018
1.81436
1.79856
1.78278
1.76701
1.75124
1.73545
1.71962
1.70376
1.68783
1.67184
1.65577
1.6396
1.62334
1.60698
1.59051
1.57393
1.55724
1.54045
1.52357
1.50661
1.48959
1.47251
1.45542
1.43832
1.42127
1.40428
1.38741
1.37071
1.35422
1.33802
1.32218
1.30678
1.29191
1.27769
1.26422
1.25165
1.24011
1.22976
1.22076
1.21328
1.20748
1.20354
1.20155
1.20195
1.20337
1.21246
2.7234
2.70554
2.68769
2.66983
2.65199
2.63415
2.61631
2.59848
2.58066
2.56285
2.54505
2.52727
2.5095
2.49174
2.47401
2.4563
2.43861
2.42096
2.40333
2.38574
2.36818
2.35067
2.33319
2.31576
2.29837
2.28103
2.26374
2.2465
2.2293
2.21216
2.19507
2.17802
2.16104
2.1441
2.12722
2.1104
2.09364
2.07694
2.06031
2.04374
2.02724
2.01082
1.99447
1.97819
1.96199
1.94587
1.92983
1.91386
1.89798
1.88216
1.86641
1.85072
1.83509
1.8195
1.80396
1.78843
1.77292
1.75741
1.74189
1.72634
1.71075
1.6951
1.67939
1.66359
1.64769
1.63169
1.61558
1.59934
1.58298
1.56649
1.54987
1.53312
1.51626
1.49928
1.48219
1.46502
1.44778
1.43047
1.41314
1.39579
1.37846
1.36118
1.34399
1.32691
1.31
1.29329
1.27686
1.26075
1.24504
1.22979
1.2151
1.20106
1.18777
1.17532
1.16385
1.15345
1.14425
1.13631
1.13005
1.12339
2.72228
2.70429
2.68629
2.66828
2.65026
2.63225
2.61422
2.5962
2.57817
2.56015
2.54213
2.52412
2.50612
2.48812
2.47015
2.45219
2.43425
2.41633
2.39845
2.3806
2.36278
2.345
2.32727
2.30959
2.29196
2.27438
2.25685
2.23939
2.22199
2.20465
2.18738
2.17018
2.15305
2.13599
2.11901
2.1021
2.08528
2.06854
2.05188
2.03531
2.01882
2.00243
1.98612
1.96991
1.95379
1.93776
1.92182
1.90596
1.89019
1.8745
1.85888
1.84333
1.82783
1.81238
1.79697
1.78159
1.76621
1.75084
1.73545
1.72002
1.70456
1.68903
1.67343
1.65774
1.64195
1.62605
1.61003
1.59388
1.5776
1.56119
1.54464
1.52795
1.51113
1.49419
1.47712
1.45995
1.44268
1.42534
1.40792
1.39046
1.37298
1.35548
1.33801
1.32058
1.30323
1.28597
1.26885
1.2519
1.23517
1.21869
1.20251
1.1867
1.1713
1.15638
1.14201
1.12825
1.11523
1.10276
1.09231
1.07663
2.72177
2.70372
2.68566
2.66758
2.64949
2.63139
2.61328
2.59516
2.57704
2.55892
2.54079
2.52267
2.50455
2.48643
2.46832
2.45023
2.43215
2.41409
2.39606
2.37806
2.36008
2.34215
2.32426
2.30641
2.28861
2.27086
2.25318
2.23555
2.21799
2.2005
2.18308
2.16574
2.14847
2.13129
2.1142
2.09719
2.08027
2.06345
2.04672
2.03009
2.01356
1.99713
1.9808
1.96457
1.94845
1.93242
1.91649
1.90066
1.88491
1.86925
1.85367
1.83815
1.8227
1.8073
1.79194
1.7766
1.76128
1.74596
1.73062
1.71526
1.69984
1.68437
1.66883
1.6532
1.63747
1.62163
1.60567
1.58959
1.57337
1.55702
1.54053
1.5239
1.50714
1.49024
1.47323
1.45609
1.43886
1.42153
1.40413
1.38666
1.36914
1.3516
1.33405
1.31651
1.29899
1.28153
1.26415
1.24686
1.22969
1.21268
1.19585
1.17923
1.16286
1.14678
1.13102
1.11561
1.1007
1.0859
1.07331
1.05277
2.72147
2.70339
2.6853
2.66719
2.64906
2.63093
2.61278
2.59462
2.57646
2.55828
2.54011
2.52193
2.50375
2.48557
2.4674
2.44924
2.4311
2.41296
2.39485
2.37676
2.3587
2.34067
2.32268
2.30474
2.28683
2.26898
2.25119
2.23345
2.21578
2.19817
2.18064
2.16318
2.14581
2.12852
2.11132
2.09421
2.07719
2.06028
2.04346
2.02675
2.01015
1.99365
1.97725
1.96097
1.94479
1.92872
1.91275
1.89688
1.88111
1.86542
1.84982
1.83429
1.81882
1.80341
1.78804
1.77271
1.75739
1.74207
1.72674
1.71139
1.69599
1.68054
1.66502
1.64942
1.63372
1.61791
1.60199
1.58595
1.56978
1.55348
1.53703
1.52046
1.50375
1.48691
1.46995
1.45287
1.43568
1.4184
1.40104
1.38361
1.36613
1.3486
1.33105
1.3135
1.29596
1.27845
1.26098
1.24358
1.22626
1.20905
1.19195
1.17501
1.15822
1.14163
1.12525
1.10909
1.09328
1.07737
1.06375
1.04075
2.72124
2.70315
2.68504
2.66691
2.64876
2.63061
2.61244
2.59426
2.57607
2.55788
2.53968
2.52147
2.50326
2.48506
2.46686
2.44866
2.43048
2.41231
2.39415
2.37602
2.35791
2.33983
2.32178
2.30377
2.28581
2.26789
2.25002
2.2322
2.21445
2.19677
2.17915
2.16161
2.14415
2.12677
2.10948
2.09228
2.07517
2.05817
2.04127
2.02447
2.00778
1.9912
1.97473
1.95837
1.94212
1.92598
1.90994
1.89401
1.87818
1.86243
1.84678
1.8312
1.81569
1.80024
1.78483
1.76946
1.75411
1.73877
1.72343
1.70806
1.69265
1.6772
1.66168
1.64608
1.6304
1.61461
1.59872
1.5827
1.56657
1.5503
1.5339
1.51737
1.50071
1.48393
1.46702
1.45
1.43287
1.41564
1.39834
1.38096
1.36352
1.34605
1.32854
1.31102
1.2935
1.27601
1.25854
1.24113
1.22378
1.20651
1.18934
1.17228
1.15534
1.13855
1.12191
1.10544
1.08925
1.07283
1.05875
1.03459
2.72104
2.70294
2.68481
2.66667
2.64851
2.63034
2.61216
2.59397
2.57577
2.55756
2.53934
2.52112
2.5029
2.48468
2.46646
2.44824
2.43004
2.41184
2.39366
2.3755
2.35736
2.33925
2.32117
2.30312
2.28511
2.26714
2.24922
2.23136
2.21355
2.1958
2.17812
2.16051
2.14298
2.12553
2.10816
2.09089
2.07371
2.05662
2.03964
2.02276
2.00599
1.98933
1.97278
1.95634
1.94001
1.92379
1.90767
1.89167
1.87576
1.85995
1.84422
1.82858
1.81301
1.7975
1.78204
1.76662
1.75123
1.73585
1.72047
1.70507
1.68964
1.67417
1.65864
1.64304
1.62736
1.61158
1.5957
1.57971
1.56359
1.54736
1.531
1.51451
1.4979
1.48116
1.46431
1.44734
1.43027
1.4131
1.39586
1.37854
1.36116
1.34374
1.32629
1.30882
1.29135
1.2739
1.25647
1.23909
1.22176
1.2045
1.18733
1.17025
1.15328
1.13643
1.11971
1.10312
1.08679
1.07017
1.0559
1.03122
2.72086
2.70274
2.68461
2.66645
2.64829
2.6301
2.61191
2.59371
2.57549
2.55727
2.53905
2.52081
2.50258
2.48435
2.46611
2.44788
2.42966
2.41145
2.39326
2.37508
2.35692
2.33878
2.32067
2.30259
2.28455
2.26655
2.2486
2.23069
2.21283
2.19504
2.17731
2.15965
2.14206
2.12454
2.10712
2.08977
2.07252
2.05537
2.03831
2.02136
2.00451
1.98777
1.97114
1.95462
1.93821
1.92191
1.90572
1.88963
1.87365
1.85776
1.84197
1.82625
1.81062
1.79504
1.77953
1.76405
1.74861
1.73318
1.71775
1.70232
1.68686
1.67137
1.65582
1.64021
1.62452
1.60874
1.59287
1.57689
1.5608
1.54459
1.52826
1.51181
1.49524
1.47855
1.46175
1.44483
1.42782
1.41072
1.39353
1.37627
1.35896
1.3416
1.32421
1.3068
1.28939
1.27199
1.25462
1.23728
1.22
1.20278
1.18563
1.16858
1.15162
1.13478
1.11805
1.10144
1.08507
1.06838
1.05405
1.02918
2.72069
2.70256
2.68442
2.66625
2.64808
2.62988
2.61168
2.59347
2.57524
2.55701
2.53878
2.52053
2.50229
2.48404
2.4658
2.44756
2.42933
2.4111
2.39289
2.37469
2.35652
2.33836
2.32023
2.30213
2.28406
2.26603
2.24804
2.2301
2.21221
2.19438
2.1766
2.15889
2.14125
2.12369
2.1062
2.0888
2.07149
2.05427
2.03714
2.02012
2.0032
1.98639
1.96968
1.95309
1.9366
1.92023
1.90396
1.8878
1.87174
1.85578
1.83991
1.82412
1.80842
1.79278
1.7772
1.76166
1.74616
1.73069
1.71522
1.69975
1.68425
1.66873
1.65316
1.63753
1.62184
1.60606
1.59019
1.57423
1.55815
1.54197
1.52567
1.50925
1.49272
1.47608
1.45932
1.44246
1.4255
1.40846
1.39133
1.37413
1.35688
1.33959
1.32226
1.30491
1.28757
1.27023
1.25291
1.23563
1.2184
1.20123
1.18413
1.16712
1.1502
1.13339
1.11669
1.10009
1.08372
1.06703
1.0527
1.02777
2.72053
2.70239
2.68424
2.66607
2.64788
2.62968
2.61147
2.59324
2.57501
2.55677
2.53852
2.52027
2.50202
2.48376
2.46551
2.44726
2.42901
2.41077
2.39255
2.37434
2.35614
2.33797
2.31982
2.3017
2.28361
2.26555
2.24754
2.22956
2.21164
2.19377
2.17595
2.1582
2.14051
2.1229
2.10536
2.08791
2.07054
2.05326
2.03608
2.01899
2.002
1.98512
1.96835
1.95168
1.93512
1.91868
1.90234
1.8861
1.86997
1.85393
1.83799
1.82214
1.80637
1.79066
1.77502
1.75943
1.74387
1.72835
1.71283
1.69732
1.68179
1.66624
1.65065
1.63501
1.6193
1.60352
1.58765
1.5717
1.55564
1.53948
1.52321
1.50683
1.49034
1.47374
1.45703
1.44022
1.42332
1.40633
1.38927
1.37214
1.35495
1.33772
1.32046
1.30318
1.28589
1.26862
1.25136
1.23414
1.21697
1.19985
1.18281
1.16584
1.14897
1.13219
1.11553
1.09897
1.08263
1.06595
1.05164
1.0267
2.72038
2.70224
2.68408
2.6659
2.6477
2.62949
2.61127
2.59304
2.5748
2.55655
2.53829
2.52003
2.50176
2.4835
2.46523
2.44697
2.42871
2.41047
2.39223
2.374
2.35579
2.3376
2.31943
2.30129
2.28318
2.2651
2.24706
2.22906
2.2111
2.1932
2.17534
2.15755
2.13983
2.12217
2.10459
2.08708
2.06966
2.05233
2.03508
2.01794
2.00089
1.98395
1.96711
1.95037
1.93375
1.91723
1.90082
1.88451
1.86831
1.85221
1.8362
1.82028
1.80444
1.78868
1.77297
1.75732
1.74172
1.72614
1.71058
1.69503
1.67947
1.66389
1.64828
1.63262
1.6169
1.60112
1.58526
1.56931
1.55328
1.53714