/*--------------------------------*- C++ -*----------------------------------*\
| =========                 |                                                 |
| \\      /  F ield         | OpenFOAM: The Open Source CFD Toolbox           |
|  \\    /   O peration     | Version:  4.1                                   |
|   \\  /    A nd           | Web:      www.OpenFOAM.org                      |
|    \\/     M anipulation  |                                                 |
\*---------------------------------------------------------------------------*/
FoamFile
{
    version     2.0;
    format      ascii;
    class       volScalarField;
    location    "500";
    object      k;
}
// * * * * * * * * * * * * * * * * * * * * * * * * * * * * * * * * * * * * * //

dimensions      [0 2 -2 0 0 0 0];

internalField   nonuniform List<scalar> 
6820
(
0.226697
0.279347
0.331744
0.382734
0.43093
0.475126
0.51442
0.54829
0.576587
0.599476
0.617344
0.630716
0.64018
0.64634
0.649768
0.650989
0.650466
0.648594
0.645709
0.642084
0.637945
0.633472
0.628806
0.624061
0.619321
0.614654
0.610107
0.605726
0.601499
0.597638
0.593201
0.592919
0.573723
0.207938
0.216621
0.219548
0.220394
0.221057
0.222078
0.223474
0.22514
0.226961
0.228846
0.230731
0.232584
0.234394
0.236162
0.237902
0.239628
0.241358
0.243107
0.244886
0.246707
0.248574
0.250492
0.252461
0.254478
0.256539
0.258638
0.260766
0.262915
0.265066
0.267233
0.269308
0.271642
0.273194
0.201064
0.204896
0.206826
0.206612
0.205168
0.203176
0.200968
0.198675
0.196348
0.194008
0.19167
0.189349
0.187063
0.184828
0.182661
0.180578
0.178592
0.176713
0.174949
0.173308
0.171791
0.170401
0.169138
0.167998
0.166981
0.166081
0.165293
0.164613
0.164033
0.163547
0.163144
0.162821
0.162547
0.199585
0.199595
0.199834
0.199709
0.199082
0.198053
0.196754
0.195281
0.193696
0.192037
0.19033
0.188591
0.186834
0.18507
0.183308
0.181557
0.179825
0.178118
0.176444
0.174806
0.17321
0.171659
0.170156
0.168704
0.167303
0.165957
0.164664
0.163426
0.162242
0.161112
0.160036
0.159013
0.15804
0.199411
0.198486
0.19779
0.197167
0.196484
0.195676
0.194737
0.193687
0.19255
0.191348
0.190098
0.188816
0.187511
0.186191
0.184864
0.183536
0.182211
0.180895
0.17959
0.1783
0.177029
0.175777
0.174549
0.173345
0.172168
0.171018
0.169896
0.168804
0.167742
0.166711
0.165711
0.164743
0.163807
0.199395
0.198258
0.197235
0.196308
0.195431
0.194563
0.193675
0.192755
0.191799
0.190812
0.189799
0.188765
0.187716
0.186657
0.185592
0.184526
0.183461
0.182401
0.181348
0.180303
0.17927
0.17825
0.177243
0.176253
0.175279
0.174322
0.173384
0.172466
0.171567
0.170689
0.169832
0.168996
0.168182
0.199395
0.198217
0.197099
0.196044
0.195047
0.194092
0.193165
0.192252
0.191343
0.190435
0.189525
0.188612
0.187697
0.186781
0.185867
0.184955
0.184048
0.183146
0.182252
0.181366
0.180489
0.179623
0.178769
0.177926
0.177097
0.176282
0.17548
0.174694
0.173922
0.173166
0.172426
0.171702
0.170995
0.199395
0.198211
0.19707
0.195974
0.194924
0.193917
0.192948
0.19201
0.191097
0.190204
0.189326
0.188462
0.187608
0.186764
0.185929
0.185103
0.184287
0.18348
0.182683
0.181896
0.181119
0.180354
0.179599
0.178857
0.178126
0.177408
0.176702
0.176009
0.17533
0.174663
0.17401
0.17337
0.172744
0.199395
0.19821
0.197064
0.195957
0.194889
0.19386
0.192867
0.191909
0.190981
0.190082
0.189208
0.188355
0.187523
0.186708
0.18591
0.185127
0.184358
0.183603
0.182862
0.182133
0.181417
0.180714
0.180023
0.179345
0.178679
0.178026
0.177385
0.176756
0.17614
0.175536
0.174945
0.174365
0.173798
0.199395
0.19821
0.197062
0.195953
0.19488
0.193843
0.19284
0.191871
0.190934
0.190027
0.189147
0.188294
0.187465
0.186659
0.185874
0.185108
0.184361
0.183631
0.182918
0.182221
0.181539
0.180871
0.180218
0.179579
0.178953
0.17834
0.177741
0.177154
0.17658
0.176018
0.175468
0.17493
0.174403
0.199395
0.198209
0.197062
0.195951
0.194877
0.193838
0.192832
0.191858
0.190916
0.190004
0.189121
0.188264
0.187434
0.186628
0.185846
0.185085
0.184345
0.183625
0.182925
0.182242
0.181576
0.180927
0.180293
0.179675
0.179072
0.178483
0.177908
0.177346
0.176797
0.176261
0.175738
0.175226
0.174727
0.199395
0.198209
0.197061
0.195951
0.194876
0.193836
0.192829
0.191854
0.19091
0.189995
0.189109
0.188251
0.187418
0.186611
0.185828
0.185068
0.18433
0.183613
0.182916
0.182239
0.181579
0.180938
0.180314
0.179706
0.179114
0.178537
0.177974
0.177426
0.176892
0.176371
0.175862
0.175367
0.174883
0.199395
0.198209
0.197061
0.19595
0.194875
0.193834
0.192827
0.191851
0.190907
0.189991
0.189104
0.188244
0.187411
0.186603
0.185819
0.185058
0.184319
0.183603
0.182907
0.18223
0.181573
0.180934
0.180313
0.17971
0.179122
0.17855
0.177994
0.177452
0.176925
0.176411
0.175911
0.175423
0.174948
0.199395
0.198209
0.197061
0.19595
0.194874
0.193833
0.192826
0.19185
0.190905
0.189989
0.189101
0.188241
0.187407
0.186598
0.185813
0.185051
0.184313
0.183595
0.182899
0.182223
0.181566
0.180928
0.180307
0.179705
0.179119
0.178549
0.177994
0.177455
0.176931
0.17642
0.175923
0.175439
0.174968
0.199395
0.198209
0.19706
0.195949
0.194874
0.193833
0.192825
0.191849
0.190903
0.189987
0.189099
0.188238
0.187404
0.186594
0.185809
0.185047
0.184308
0.18359
0.182893
0.182217
0.18156
0.180921
0.180301
0.179698
0.179112
0.178543
0.177989
0.17745
0.176927
0.176417
0.175921
0.175438
0.174968
0.199395
0.198209
0.19706
0.195949
0.194873
0.193832
0.192824
0.191848
0.190902
0.189985
0.189097
0.188236
0.187401
0.186591
0.185806
0.185044
0.184304
0.183586
0.182889
0.182212
0.181554
0.180916
0.180295
0.179692
0.179106
0.178536
0.177982
0.177444
0.17692
0.17641
0.175914
0.175432
0.174962
0.199395
0.198209
0.19706
0.195949
0.194873
0.193832
0.192823
0.191847
0.190901
0.189984
0.189095
0.188234
0.187399
0.186589
0.185803
0.185041
0.184301
0.183582
0.182885
0.182207
0.18155
0.180911
0.18029
0.179686
0.1791
0.17853
0.177976
0.177437
0.176912
0.176403
0.175907
0.175424
0.174954
0.199395
0.198208
0.19706
0.195948
0.194873
0.193831
0.192823
0.191846
0.1909
0.189983
0.189094
0.188232
0.187397
0.186587
0.185801
0.185038
0.184298
0.183579
0.182881
0.182204
0.181545
0.180906
0.180285
0.179681
0.179094
0.178524
0.177969
0.17743
0.176906
0.176395
0.175899
0.175416
0.174946
0.199395
0.198208
0.19706
0.195948
0.194872
0.193831
0.192822
0.191845
0.190899
0.189982
0.189093
0.188231
0.187395
0.186585
0.185798
0.185035
0.184295
0.183576
0.182878
0.1822
0.181542
0.180902
0.18028
0.179676
0.179089
0.178519
0.177964
0.177424
0.176899
0.176389
0.175892
0.175408
0.174938
0.199395
0.198208
0.19706
0.195948
0.194872
0.19383
0.192821
0.191844
0.190898
0.189981
0.189092
0.18823
0.187394
0.186583
0.185796
0.185033
0.184292
0.183573
0.182875
0.182197
0.181538
0.180898
0.180276
0.179672
0.179085
0.178514
0.177958
0.177418
0.176893
0.176382
0.175885
0.175401
0.174931
0.199395
0.198208
0.19706
0.195948
0.194872
0.19383
0.192821
0.191844
0.190897
0.18998
0.189091
0.188228
0.187392
0.186581
0.185795
0.185031
0.18429
0.183571
0.182872
0.182194
0.181535
0.180895
0.180273
0.179668
0.17908
0.178509
0.177953
0.177413
0.176888
0.176376
0.175879
0.175395
0.174924
0.199395
0.198208
0.19706
0.195948
0.194872
0.19383
0.192821
0.191843
0.190897
0.189979
0.18909
0.188227
0.187391
0.18658
0.185793
0.185029
0.184288
0.183568
0.18287
0.182191
0.181532
0.180891
0.180269
0.179664
0.179076
0.178505
0.177949
0.177408
0.176883
0.176371
0.175873
0.175389
0.174918
0.199395
0.198208
0.197059
0.195948
0.194871
0.193829
0.19282
0.191843
0.190896
0.189978
0.189089
0.188226
0.18739
0.186579
0.185791
0.185028
0.184286
0.183566
0.182867
0.182189
0.181529
0.180888
0.180266
0.179661
0.179073
0.178501
0.177945
0.177404
0.176878
0.176366
0.175868
0.175383
0.174912
0.199395
0.198208
0.197059
0.195947
0.194871
0.193829
0.19282
0.191843
0.190896
0.189978
0.189088
0.188225
0.187389
0.186577
0.18579
0.185026
0.184284
0.183564
0.182865
0.182186
0.181527
0.180886
0.180263
0.179658
0.179069
0.178497
0.177941
0.1774
0.176873
0.176361
0.175863
0.175378
0.174906
0.199395
0.198208
0.197059
0.195947
0.194871
0.193829
0.19282
0.191842
0.190895
0.189977
0.189087
0.188225
0.187388
0.186576
0.185789
0.185025
0.184283
0.183563
0.182864
0.182184
0.181525
0.180883
0.18026
0.179655
0.179066
0.178494
0.177937
0.177396
0.17687
0.176357
0.175859
0.175374
0.174902
0.199395
0.198208
0.197059
0.195947
0.194871
0.193829
0.19282
0.191842
0.190895
0.189977
0.189087
0.188224
0.187387
0.186576
0.185788
0.185024
0.184282
0.183561
0.182862
0.182183
0.181523
0.180881
0.180258
0.179652
0.179064
0.178491
0.177934
0.177393
0.176866
0.176353
0.175855
0.17537
0.174897
0.199395
0.198208
0.197059
0.195947
0.194871
0.193829
0.192819
0.191842
0.190895
0.189976
0.189086
0.188224
0.187387
0.186575
0.185787
0.185023
0.184281
0.18356
0.18286
0.182181
0.181521
0.180879
0.180256
0.17965
0.179061
0.178488
0.177931
0.17739
0.176863
0.17635
0.175851
0.175366
0.174893
0.199395
0.198208
0.197059
0.195947
0.194871
0.193829
0.192819
0.191842
0.190894
0.189976
0.189086
0.188223
0.187386
0.186574
0.185786
0.185022
0.18428
0.183559
0.182859
0.18218
0.181519
0.180878
0.180254
0.179648
0.179059
0.178486
0.177929
0.177387
0.17686
0.176347
0.175848
0.175362
0.17489
0.199395
0.198208
0.197059
0.195947
0.194871
0.193829
0.192819
0.191842
0.190894
0.189976
0.189086
0.188223
0.187386
0.186574
0.185786
0.185021
0.184279
0.183558
0.182858
0.182178
0.181518
0.180876
0.180253
0.179647
0.179057
0.178484
0.177927
0.177385
0.176858
0.176345
0.175845
0.17536
0.174887
0.199395
0.198208
0.197059
0.195947
0.194871
0.193829
0.192819
0.191841
0.190894
0.189976
0.189086
0.188223
0.187385
0.186573
0.185785
0.185021
0.184278
0.183557
0.182857
0.182178
0.181517
0.180875
0.180252
0.179645
0.179056
0.178483
0.177925
0.177383
0.176856
0.176342
0.175843
0.175357
0.174884
0.199395
0.198208
0.197059
0.195947
0.194871
0.193829
0.192819
0.191841
0.190894
0.189976
0.189086
0.188222
0.187385
0.186573
0.185785
0.18502
0.184278
0.183557
0.182857
0.182177
0.181516
0.180874
0.180251
0.179644
0.179055
0.178481
0.177924
0.177382
0.176854
0.176341
0.175841
0.175355
0.174882
0.199395
0.198208
0.197059
0.195947
0.194871
0.193829
0.192819
0.191841
0.190894
0.189976
0.189086
0.188222
0.187385
0.186573
0.185785
0.18502
0.184278
0.183557
0.182857
0.182177
0.181516
0.180874
0.180251
0.179644
0.179054
0.178481
0.177923
0.177381
0.176853
0.17634
0.17584
0.175354
0.174881
0.199395
0.198208
0.197059
0.195947
0.194871
0.193829
0.192819
0.191841
0.190894
0.189976
0.189086
0.188223
0.187386
0.186573
0.185786
0.185021
0.184278
0.183558
0.182858
0.182178
0.181517
0.180875
0.180251
0.179644
0.179055
0.178481
0.177923
0.177381
0.176852
0.176339
0.175839
0.175352
0.174878
0.199395
0.198208
0.197059
0.195947
0.194871
0.193829
0.19282
0.191843
0.190896
0.189978
0.189089
0.188226
0.18739
0.186578
0.185791
0.185026
0.184284
0.183563
0.182863
0.182183
0.181522
0.180879
0.180255
0.179647
0.179056
0.178481
0.177922
0.177378
0.176848
0.176333
0.17583
0.175342
0.174865
0.199395
0.198208
0.197059
0.195948
0.194872
0.193831
0.192824
0.191848
0.190902
0.189986
0.189098
0.188236
0.1874
0.186589
0.185801
0.185036
0.184293
0.183571
0.182869
0.182186
0.181522
0.180877
0.180248
0.179636
0.179041
0.178461
0.177897
0.177347
0.176811
0.176289
0.175781
0.175285
0.174802
0.199395
0.198209
0.197062
0.195955
0.194886
0.193853
0.192854
0.191885
0.190945
0.190033
0.189146
0.188284
0.187446
0.186631
0.185838
0.185066
0.184314
0.183582
0.182869
0.182174
0.181497
0.180837
0.180194
0.179567
0.178956
0.17836
0.177779
0.177212
0.176659
0.176119
0.175593
0.175079
0.174577
0.199395
0.198223
0.197106
0.196032
0.194988
0.19397
0.192977
0.192008
0.191061
0.190136
0.189233
0.188352
0.187492
0.186652
0.185833
0.185034
0.184253
0.183492
0.182748
0.182022
0.181314
0.180622
0.179947
0.179288
0.178644
0.178015
0.1774
0.1768
0.176214
0.175641
0.175082
0.174535
0.174001
0.19941
0.198319
0.197296
0.196301
0.19531
0.194319
0.193329
0.192346
0.191374
0.190417
0.189479
0.188561
0.187664
0.186788
0.185934
0.185101
0.184288
0.183495
0.182721
0.181966
0.18123
0.180511
0.179809
0.179123
0.178454
0.1778
0.177161
0.176537
0.175927
0.175331
0.174749
0.17418
0.173624
0.199716
0.199139
0.19847
0.197764
0.197072
0.196419
0.195812
0.195251
0.194735
0.194262
0.193831
0.193441
0.193089
0.192773
0.192493
0.192245
0.192027
0.191839
0.191676
0.191539
0.191425
0.191332
0.191258
0.191203
0.191164
0.191141
0.191132
0.191136
0.191152
0.191179
0.191217
0.191264
0.191319
0.205424
0.216593
0.227629
0.238434
0.248976
0.259243
0.269229
0.278926
0.288326
0.297424
0.306216
0.314701
0.322877
0.330747
0.338313
0.345577
0.352546
0.359225
0.365619
0.371736
0.377584
0.383171
0.388503
0.393591
0.398442
0.403065
0.407469
0.411661
0.415651
0.419447
0.423057
0.426489
0.429753
0.660069
0.768131
0.874149
0.981712
1.09238
1.20231
1.30499
1.39451
1.4673
1.52298
1.56375
1.59308
1.6146
1.63123
1.64496
1.65678
1.66702
1.67562
1.6824
1.68722
1.69014
1.69131
1.69103
1.68961
1.68735
1.68452
1.68131
1.67787
1.67429
1.67066
1.66702
1.6634
1.65978
1.65614
1.65242
1.64852
1.64432
1.63968
1.63442
1.62838
1.62138
1.61322
1.60375
1.59279
1.5802
1.56587
1.54969
1.5316
1.51158
1.48965
1.46587
1.44032
1.41315
1.38453
1.35468
1.32383
1.29225
1.26023
1.22806
1.19603
1.16443
1.13355
1.10363
1.07491
1.04758
1.02183
0.997763
0.975487
0.955054
0.936482
0.91976
0.904845
0.891667
0.880135
0.870139
0.861553
0.854241
0.848058
0.842855
0.83848
0.834786
0.831625
0.82886
0.82636
0.824003
0.821679
0.819291
0.81675
0.813982
0.810923
0.807521
0.803731
0.799522
0.794862
0.789739
0.784116
0.778046
0.771314
0.764734
0.754074
0.276539
0.284722
0.298009
0.317402
0.34442
0.380579
0.426971
0.483932
0.550776
0.625764
0.706297
0.789279
0.871517
0.950112
1.02275
1.0879
1.14482
1.19351
1.23451
1.26872
1.29715
1.32077
1.34037
1.35657
1.36981
1.38041
1.38862
1.39467
1.39881
1.40125
1.40223
1.40194
1.40054
1.39814
1.39481
1.39058
1.38544
1.37935
1.37226
1.36409
1.35476
1.34418
1.33227
1.31895
1.30414
1.2878
1.2699
1.25043
1.22943
1.20694
1.18307
1.15795
1.13172
1.1046
1.07678
1.04851
1.02005
0.991648
0.963576
0.936089
0.909431
0.883829
0.859484
0.836571
0.815232
0.795576
0.777682
0.761594
0.747327
0.734865
0.72417
0.715178
0.707808
0.70196
0.697522
0.69437
0.692373
0.691392
0.691283
0.691905
0.693112
0.694766
0.696731
0.698878
0.701086
0.703246
0.705255
0.707025
0.708478
0.709546
0.710172
0.71031
0.709924
0.708981
0.707465
0.705341
0.70265
0.699226
0.69563
0.689226
0.162234
0.162075
0.162291
0.163025
0.16457
0.167276
0.171574
0.177999
0.187195
0.199894
0.216878
0.238913
0.266663
0.300582
0.340809
0.387078
0.438676
0.494445
0.552858
0.612153
0.670522
0.726301
0.778144
0.825126
0.866767
0.90299
0.934014
0.960246
0.982168
1.00026
1.01495
1.02661
1.03554
1.04198
1.04613
1.04816
1.04821
1.04639
1.04279
1.0375
1.03055
1.022
1.01188
1.00022
0.987048
0.972415
0.956373
0.938994
0.920369
0.900614
0.879865
0.858281
0.836042
0.813348
0.790408
0.767445
0.744683
0.722343
0.700639
0.679772
0.659923
0.641252
0.623894
0.607959
0.593528
0.580658
0.56938
0.559702
0.551613
0.545083
0.540065
0.5365
0.534316
0.533431
0.533753
0.535182
0.537613
0.54093
0.545017
0.54975
0.555005
0.560658
0.566583
0.572661
0.578775
0.584816
0.590681
0.596278
0.601523
0.606344
0.610675
0.614465
0.617669
0.62025
0.622183
0.623433
0.624023
0.62384
0.623162
0.621022
0.156976
0.15582
0.154717
0.153683
0.152725
0.151877
0.151188
0.150724
0.150572
0.150846
0.151687
0.153274
0.155823
0.159602
0.164923
0.17215
0.181684
0.193941
0.209314
0.228118
0.250525
0.276507
0.30579
0.337847
0.371925
0.407107
0.44241
0.476873
0.509646
0.540052
0.567613
0.592045
0.613234
0.631194
0.646028
0.657889
0.666952
0.673396
0.677395
0.679111
0.678692
0.676279
0.672005
0.665996
0.658381
0.649288
0.638853
0.627215
0.614524
0.60094
0.58663
0.571769
0.55654
0.541128
0.525716
0.510486
0.495611
0.481251
0.467555
0.45465
0.442647
0.431637
0.421691
0.412861
0.405183
0.398678
0.393352
0.389203
0.386218
0.384379
0.383659
0.384029
0.385451
0.387884
0.39128
0.395584
0.400734
0.406662
0.413287
0.420526
0.428286
0.436466
0.444964
0.453673
0.462485
0.471295
0.48
0.488502
0.496709
0.50454
0.511918
0.518778
0.525063
0.530725
0.535726
0.540025
0.543617
0.546445
0.548482
0.550441
0.162755
0.161579
0.160413
0.159263
0.158129
0.157014
0.155926
0.154875
0.153875
0.152943
0.152104
0.151386
0.150827
0.150471
0.150373
0.150597
0.151223
0.152345
0.15407
0.156524
0.159845
0.164183
0.169688
0.176503
0.184741
0.194471
0.205695
0.218331
0.232207
0.247064
0.262567
0.278334
0.293963
0.309063
0.32328
0.336318
0.347944
0.357996
0.366378
0.373049
0.378017
0.381327
0.383053
0.383291
0.382151
0.379759
0.376245
0.371749
0.366416
0.36039
0.35382
0.346852
0.339626
0.332281
0.324944
0.317734
0.310758
0.304109
0.297869
0.292105
0.286871
0.282212
0.27816
0.274741
0.271973
0.269869
0.26844
0.267694
0.26764
0.268284
0.269632
0.271692
0.274469
0.277967
0.282186
0.287122
0.292764
0.299094
0.306084
0.313696
0.321881
0.330578
0.339715
0.349212
0.358979
0.368922
0.378942
0.388939
0.398817
0.408479
0.417837
0.426809
0.435319
0.443301
0.450697
0.457452
0.463531
0.468921
0.47329
0.478933
0.167258
0.166213
0.165165
0.164117
0.163068
0.162022
0.160979
0.159943
0.158915
0.157901
0.156905
0.155935
0.155
0.154111
0.153281
0.152526
0.151866
0.151321
0.150917
0.150682
0.150646
0.150844
0.151312
0.152089
0.153215
0.154727
0.156661
0.159045
0.161898
0.165223
0.169005
0.173208
0.177775
0.182624
0.187655
0.192753
0.197796
0.202659
0.207223
0.211385
0.215057
0.218174
0.220691
0.222589
0.223868
0.224548
0.224664
0.224264
0.223408
0.222159
0.220587
0.21876
0.21675
0.21462
0.212433
0.210246
0.208109
0.206067
0.204159
0.202416
0.200869
0.19954
0.198451
0.19762
0.197065
0.196803
0.19685
0.197226
0.197949
0.199041
0.200525
0.202426
0.204771
0.207587
0.210902
0.214743
0.219135
0.224098
0.229648
0.235791
0.242524
0.249834
0.257694
0.266065
0.274894
0.284116
0.293656
0.303428
0.31334
0.323298
0.333205
0.342966
0.352489
0.361687
0.370482
0.378798
0.386565
0.393805
0.399897
0.408492
0.170189
0.169272
0.168348
0.167417
0.166481
0.165539
0.164594
0.163646
0.162696
0.161745
0.160795
0.159849
0.15891
0.15798
0.157064
0.156168
0.155299
0.154462
0.153668
0.152925
0.152243
0.151635
0.151111
0.150685
0.150367
0.15017
0.150106
0.150184
0.150411
0.150795
0.151336
0.152034
0.152881
0.153866
0.154972
0.156177
0.157454
0.158772
0.160097
0.161396
0.162635
0.163782
0.164812
0.165702
0.166436
0.167005
0.167407
0.167643
0.167722
0.167657
0.167465
0.167163
0.166773
0.166314
0.165807
0.165273
0.16473
0.164195
0.163686
0.163217
0.162801
0.162453
0.162185
0.162009
0.161937
0.161983
0.162161
0.162485
0.162974
0.163645
0.164519
0.16562
0.166974
0.168608
0.170553
0.17284
0.175503
0.178575
0.18209
0.186077
0.190565
0.195574
0.201119
0.207203
0.21382
0.220951
0.228562
0.236607
0.245027
0.253752
0.262703
0.271792
0.280928
0.290019
0.298971
0.307698
0.316098
0.324215
0.331204
0.341658
0.172029
0.171215
0.170391
0.169559
0.16872
0.167873
0.167019
0.166159
0.165293
0.164422
0.163547
0.162669
0.161788
0.160907
0.160027
0.15915
0.158279
0.157418
0.156568
0.155735
0.154924
0.154138
0.153383
0.152666
0.15199
0.151363
0.150788
0.150272
0.149818
0.14943
0.14911
0.148859
0.148677
0.148562
0.14851
0.148517
0.148575
0.148675
0.14881
0.148967
0.149136
0.149307
0.149469
0.149612
0.149729
0.149812
0.149857
0.149861
0.149822
0.149742
0.149621
0.149464
0.149274
0.149057
0.148818
0.148562
0.148297
0.148027
0.147759
0.147498
0.14725
0.147022
0.146818
0.146646
0.146512
0.146424
0.14639
0.146419
0.146522
0.146712
0.147001
0.147407
0.147946
0.148639
0.149509
0.150579
0.151876
0.15343
0.155272
0.157432
0.159944
0.162838
0.166145
0.169892
0.174099
0.178783
0.183948
0.189593
0.195701
0.202245
0.209186
0.216471
0.224038
0.231813
0.239718
0.247671
0.255561
0.263453
0.27038
0.28132
0.17315
0.172412
0.171665
0.170909
0.170146
0.169375
0.168596
0.16781
0.167017
0.166217
0.165411
0.1646
0.163784
0.162963
0.16214
0.161314
0.160487
0.159661
0.158837
0.158017
0.157204
0.1564
0.155608
0.15483
0.15407
0.15333
0.152614
0.151925
0.151265
0.150638
0.150044
0.149486
0.148965
0.148482
0.148036
0.147625
0.14725
0.146906
0.146592
0.146304
0.146037
0.145789
0.145553
0.145328
0.145107
0.144889
0.144669
0.144445
0.144215
0.143977
0.143731
0.143477
0.143213
0.14294
0.14266
0.142374
0.142081
0.141785
0.141485
0.141185
0.140885
0.140588
0.140296
0.140011
0.139737
0.139478
0.139237
0.13902
0.138833
0.138682
0.138576
0.138524
0.138538
0.138631
0.138816
0.13911
0.139531
0.140099
0.140838
0.141771
0.142923
0.144322
0.145997
0.147974
0.150282
0.152946
0.155988
0.159429
0.163279
0.167544
0.172221
0.177296
0.182746
0.188536
0.194619
0.200944
0.20742
0.214133
0.220137
0.230164
0.173803
0.173118
0.172426
0.171727
0.17102
0.170306
0.169585
0.168856
0.168121
0.167378
0.16663
0.165875
0.165115
0.164349
0.163578
0.162804
0.162026
0.161246
0.160464
0.159682
0.158901
0.158122
0.157347
0.156577
0.155815
0.155061
0.154319
0.153589
0.152873
0.152174
0.151494
0.150832
0.150192
0.149574
0.148979
0.148407
0.147858
0.147332
0.146828
0.146346
0.145884
0.145439
0.145012
0.1446
0.1442
0.143812
0.143432
0.14306
0.142693
0.142331
0.141971
0.141613
0.141255
0.140896
0.140536
0.140174
0.13981
0.139442
0.139071
0.138697
0.138319
0.137937
0.137553
0.137166
0.136778
0.136389
0.136003
0.135621
0.135246
0.134882
0.134534
0.134206
0.133907
0.133642
0.133421
0.133255
0.133154
0.133132
0.133204
0.133386
0.133696
0.134154
0.13478
0.135598
0.13663
0.137899
0.139428
0.14124
0.143355
0.14579
0.14856
0.151671
0.155127
0.158923
0.163043
0.167469
0.172146
0.17717
0.181746
0.189844
0.174157
0.173509
0.172855
0.172194
0.171527
0.170854
0.170174
0.169488
0.168796
0.168097
0.167392
0.166682
0.165965
0.165244
0.164517
0.163786
0.163051
0.162313
0.161572
0.160828
0.160084
0.159338
0.158594
0.157851
0.15711
0.156373
0.155641
0.154915
0.154196
0.153486
0.152786
0.152097
0.151421
0.150757
0.150108
0.149474
0.148856
0.148253
0.147667
0.147097
0.146542
0.146003
0.145479
0.144969
0.144472
0.143988
0.143514
0.14305
0.142596
0.142148
0.141707
0.141271
0.140839
0.14041
0.139981
0.139553
0.139124
0.138692
0.138258
0.137819
0.137376
0.136926
0.136471
0.136009
0.13554
0.135065
0.134584
0.134098
0.133608
0.133116
0.132624
0.132136
0.131654
0.131184
0.13073
0.130299
0.129898
0.129534
0.129217
0.128959
0.128769
0.128663
0.128654
0.128759
0.128993
0.129375
0.129923
0.130657
0.131594
0.132753
0.13415
0.1358
0.137716
0.139905
0.14237
0.145113
0.148106
0.151441
0.154528
0.160326
0.174332
0.173707
0.173077
0.172441
0.1718
0.171154
0.170502
0.169845
0.169183
0.168515
0.167842
0.167164
0.16648
0.165792
0.165099
0.164402
0.163701
0.162996
0.162288
0.161578
0.160865
0.160151
0.159436
0.15872
0.158005
0.157292
0.15658
0.155871
0.155166
0.154466
0.153771
0.153083
0.152402
0.15173
0.151066
0.150412
0.149769
0.149137
0.148517
0.147908
0.147311
0.146726
0.146154
0.145593
0.145043
0.144505
0.143976
0.143457
0.142947
0.142445
0.14195
0.14146
0.140976
0.140494
0.140015
0.139537
0.139058
0.138578
0.138094
0.137607
0.137115
0.136616
0.13611
0.135595
0.135073
0.134541
0.133999
0.133448
0.132889
0.132321
0.131746
0.131165
0.130581
0.129995
0.12941
0.128831
0.128261
0.127705
0.127169
0.126659
0.126184
0.125751
0.12537
0.125051
0.124807
0.124649
0.124591
0.124648
0.124833
0.125162
0.12565
0.12631
0.127156
0.128199
0.129449
0.130914
0.132584
0.13453
0.136367
0.140049
0.174408
0.173795
0.173178
0.172557
0.171932
0.171303
0.170669
0.17003
0.169387
0.16874
0.168088
0.167432
0.166771
0.166106
0.165437
0.164764
0.164088
0.163408
0.162725
0.16204
0.161352
0.160663
0.159972
0.15928
0.158588
0.157895
0.157204
0.156514
0.155826
0.15514
0.154458
0.153779
0.153105
0.152437
0.151775
0.151119
0.15047
0.14983
0.149197
0.148573
0.147959
0.147353
0.146757
0.14617
0.145592
0.145024
0.144464
0.143912
0.143368
0.142832
0.142301
0.141776
0.141255
0.140738
0.140223
0.139709
0.139195
0.138679
0.138161
0.137639
0.137111
0.136577
0.136036
0.135487
0.134928
0.134359
0.133779
0.133189
0.132587
0.131975
0.131352
0.130718
0.130076
0.129426
0.12877
0.128109
0.127447
0.126786
0.12613
0.125482
0.124848
0.124232
0.12364
0.12308
0.122559
0.122085
0.121667
0.121315
0.121041
0.120854
0.120766
0.12079
0.120935
0.121214
0.121636
0.122211
0.122938
0.123865
0.124771
0.126779
0.174433
0.173826
0.173216
0.172603
0.171986
0.171366
0.170742
0.170114
0.169483
0.168848
0.168209
0.167567
0.16692
0.16627
0.165617
0.164961
0.164301
0.163638
0.162973
0.162305
0.161636
0.160964
0.160291
0.159617
0.158942
0.158266
0.157591
0.156917
0.156243
0.155571
0.154901
0.154234
0.15357
0.152909
0.152252
0.151601
0.150954
0.150313
0.149678
0.14905
0.148429
0.147814
0.147207
0.146608
0.146016
0.145431
0.144853
0.144282
0.143718
0.14316
0.142607
0.142058
0.141514
0.140973
0.140433
0.139894
0.139355
0.138815
0.138272
0.137726
0.137174
0.136616
0.136051
0.135478
0.134895
0.134302
0.133699
0.133084
0.132457
0.131818
0.131167
0.130505
0.129831
0.129146
0.128451
0.127747
0.127036
0.12632
0.1256
0.124879
0.124159
0.123445
0.122739
0.122046
0.121371
0.120719
0.120096
0.119508
0.118963
0.118469
0.118033
0.117664
0.117371
0.117163
0.117049
0.117036
0.11713
0.117356
0.117616
0.11841
0.174435
0.173831
0.173224
0.172614
0.172002
0.171386
0.170767
0.170145
0.169519
0.168891
0.168259
0.167625
0.166987
0.166346
0.165702
0.165055
0.164406
0.163754
0.1631
0.162444
0.161786
0.161126
0.160465
0.159803
0.15914
0.158476
0.157813
0.15715
0.156487
0.155825
0.155165
0.154507
0.153851
0.153197
0.152547
0.1519
0.151257
0.150619
0.149985
0.149356
0.148733
0.148116
0.147504
0.146898
0.146298
0.145705
0.145117
0.144535
0.143958
0.143386
0.142819
0.142256
0.141696
0.141138
0.140582
0.140027
0.139471
0.138914
0.138355
0.137791
0.137223
0.136649
0.136068
0.135479
0.13488
0.134272
0.133654
0.133024
0.132382
0.131728
0.131061
0.130382
0.129691
0.128988
0.128273
0.127547
0.126811
0.126066
0.125314
0.124555
0.123792
0.123027
0.122262
0.121499
0.120742
0.119994
0.119259
0.118541
0.117845
0.117175
0.116537
0.115938
0.115383
0.114878
0.114431
0.114049
0.113736
0.113503
0.113339
0.113301
0.174429
0.173826
0.17322
0.172611
0.172
0.171386
0.170769
0.170149
0.169527
0.168901
0.168273
0.167642
0.167009
0.166373
0.165734
0.165093
0.164449
0.163804
0.163156
0.162506
0.161855
0.161203
0.160549
0.159894
0.159238
0.158582
0.157926
0.15727
0.156615
0.15596
0.155306
0.154654
0.154003
0.153355
0.152709
0.152066
0.151427
0.15079
0.150158
0.14953
0.148906
0.148287
0.147673
0.147064
0.14646
0.145861
0.145267
0.144678
0.144094
0.143514
0.142937
0.142364
0.141794
0.141226
0.140659
0.140092
0.139525
0.138956
0.138385
0.13781
0.137231
0.136646
0.136054
0.135454
0.134846
0.134229
0.1336
0.132961
0.132311
0.131648
0.130973
0.130285
0.129585
0.128872
0.128147
0.127411
0.126663
0.125905
0.125137
0.12436
0.123576
0.122786
0.121991
0.121194
0.120396
0.119599
0.118805
0.118018
0.117241
0.116476
0.115727
0.114998
0.114293
0.113617
0.112974
0.112369
0.111809
0.111289
0.110859
0.110278
0.174421
0.173818
0.173212
0.172603
0.171992
0.171378
0.170762
0.170143
0.169521
0.168897
0.16827
0.167641
0.167009
0.166375
0.165739
0.165101
0.16446
0.163817
0.163173
0.162527
0.161879
0.16123
0.16058
0.159929
0.159278
0.158626
0.157974
0.157322
0.15667
0.156019
0.155369
0.15472
0.154072
0.153427
0.152783
0.152143
0.151504
0.150869
0.150238
0.14961
0.148986
0.148365
0.14775
0.147138
0.146531
0.145928
0.14533
0.144736
0.144146
0.14356
0.142977
0.142397
0.14182
0.141244
0.140669
0.140095
0.13952
0.138943
0.138364
0.137782
0.137195
0.136602
0.136003
0.135397
0.134782
0.134159
0.133525
0.13288
0.132225
0.131557
0.130877
0.130185
0.129481
0.128764
0.128035
0.127293
0.12654
0.125776
0.125002
0.124217
0.123424
0.122623
0.121815
0.121001
0.120183
0.119363
0.118541
0.117719
0.1169
0.116086
0.115279
0.11448
0.113694
0.112923
0.11217
0.111438
0.110734
0.110044
0.109456
0.108538
0.174413
0.173809
0.173202
0.172593
0.171982
0.171368
0.170751
0.170132
0.169511
0.168887
0.168261
0.167632
0.167001
0.166368
0.165732
0.165095
0.164455
0.163814
0.16317
0.162526
0.16188
0.161232
0.160584
0.159935
0.159285
0.158634
0.157984
0.157333
0.156683
0.156033
0.155385
0.154737
0.15409
0.153446
0.152803
0.152162
0.151524
0.150889
0.150257
0.149628
0.149003
0.148381
0.147763
0.147149
0.146539
0.145933
0.145332
0.144734
0.144139
0.143548
0.142961
0.142375
0.141793
0.141211
0.140631
0.14005
0.139469
0.138887
0.138302
0.137714
0.137122
0.136524
0.13592
0.13531
0.134691
0.134063
0.133426
0.132778
0.13212
0.13145
0.130768
0.130074
0.129368
0.128649
0.127919
0.127176
0.126421
0.125656
0.124879
0.124092
0.123295
0.12249
0.121677
0.120856
0.12003
0.119199
0.118364
0.117527
0.116688
0.11585
0.115013
0.114179
0.113351
0.11253
0.111718
0.110917
0.110133
0.109347
0.108669
0.107552
0.174404
0.1738
0.173193
0.172584
0.171972
0.171357
0.170741
0.170121
0.1695
0.168875
0.168249
0.16762
0.166989
0.166356
0.16572
0.165083
0.164444
0.163802
0.16316
0.162515
0.161869
0.161222
0.160574
0.159925
0.159275
0.158625
0.157975
0.157324
0.156674
0.156024
0.155375
0.154727
0.15408
0.153435
0.152792
0.15215
0.151511
0.150874
0.150241
0.14961
0.148982
0.148358
0.147738
0.147121
0.146508
0.145899
0.145294
0.144692
0.144094
0.143499
0.142906
0.142317
0.141729
0.141143
0.140558
0.139973
0.139387
0.1388
0.138211
0.137619
0.137022
0.136421
0.135814
0.1352
0.134578
0.133948
0.133308
0.132659
0.131999
0.131327
0.130645
0.12995
0.129244
0.128525
0.127795
0.127052
0.126298
0.125532
0.124755
0.123968
0.123171
0.122365
0.121551
0.120728
0.119899
0.119064
0.118224
0.11738
0.116532
0.115683
0.114832
0.113982
0.113133
0.112286
0.111444
0.110606
0.10978
0.108942
0.108215
0.106986
0.174397
0.173792
0.173184
0.172575
0.171962
0.171347
0.17073
0.17011
0.169488
0.168864
0.168237
0.167608
0.166977
0.166343
0.165707
0.16507
0.16443
0.163789
0.163145
0.162501
0.161855
0.161207
0.160559
0.159909
0.159259
0.158608
0.157957
0.157306
0.156655
0.156004
0.155354
0.154705
0.154056
0.153409
0.152764
0.152121
0.15148
0.150841
0.150205
0.149572
0.148942
0.148315
0.147691
0.147071
0.146455
0.145842
0.145233
0.144628
0.144025
0.143426
0.14283
0.142236
0.141644
0.141054
0.140464
0.139875
0.139285
0.138694
0.138101
0.137506
0.136906
0.136301
0.135691
0.135075
0.134451
0.133818
0.133177
0.132527
0.131866
0.131194
0.130511