/*--------------------------------*- C++ -*----------------------------------*\
| =========                 |                                                 |
| \\      /  F ield         | OpenFOAM: The Open Source CFD Toolbox           |
|  \\    /   O peration     | Version:  4.1                                   |
|   \\  /    A nd           | Web:      www.OpenFOAM.org                      |
|    \\/     M anipulation  |                                                 |
\*---------------------------------------------------------------------------*/
FoamFile
{
    version     2.0;
    format      ascii;
    class       volScalarField;
    location    "500";
    object      nut;
}
// * * * * * * * * * * * * * * * * * * * * * * * * * * * * * * * * * * * * * //

dimensions      [0 2 -1 0 0 0 0];

internalField   nonuniform List<scalar> 
6820
(
4.39385e-05
4.87747e-05
5.31526e-05
5.70915e-05
6.05796e-05
6.36103e-05
6.61884e-05
6.83326e-05
7.00738e-05
7.14511e-05
7.25081e-05
7.32892e-05
7.3837e-05
7.41914e-05
7.43879e-05
7.44577e-05
7.44278e-05
7.43206e-05
7.41551e-05
7.39467e-05
7.3708e-05
7.34491e-05
7.31781e-05
7.29015e-05
7.26241e-05
7.23499e-05
7.20819e-05
7.18226e-05
7.15715e-05
7.13414e-05
7.10761e-05
7.10592e-05
6.98995e-05
0.00046941
0.000265606
0.000193508
0.000152487
0.000125527
0.000107012
9.39993e-05
8.46683e-05
7.7868e-05
7.28566e-05
6.91405e-05
6.63822e-05
6.4345e-05
6.286e-05
6.18041e-05
6.10864e-05
6.06383e-05
6.04078e-05
6.03544e-05
6.04464e-05
6.06585e-05
6.09703e-05
6.13654e-05
6.18299e-05
6.23524e-05
6.29232e-05
6.35341e-05
6.41784e-05
6.48491e-05
6.55437e-05
6.62513e-05
6.69791e-05
6.76807e-05
0.000918058
0.000718795
0.000582223
0.000488778
0.00042158
0.000370785
0.000331008
0.000299115
0.000273073
0.000251474
0.00023332
0.000217887
0.000204638
0.000193169
0.000183167
0.000174389
0.000166642
0.000159772
0.000153653
0.000148182
0.000143274
0.00013886
0.00013488
0.000131283
0.000128026
0.000125074
0.000122393
0.000119957
0.000117742
0.000115725
0.00011389
0.000112225
0.000110658
0.00100704
0.000950024
0.000874018
0.000798213
0.000730805
0.000673128
0.000624146
0.000582408
0.000546591
0.000515599
0.00048855
0.000464749
0.000443645
0.000424802
0.00040787
0.000392571
0.000378677
0.000366
0.000354388
0.00034371
0.000333858
0.00032474
0.000316277
0.0003084
0.000301051
0.000294179
0.000287739
0.000281691
0.000276
0.000270635
0.000265569
0.000260773
0.000256221
0.00101631
0.001006
0.000983563
0.000951519
0.000914347
0.000875791
0.000838168
0.000802653
0.000769714
0.000739438
0.000711722
0.000686378
0.000663192
0.000641951
0.000622452
0.000604513
0.000587969
0.000572677
0.000558508
0.00054535
0.000533104
0.000521682
0.000511007
0.000501011
0.000491634
0.000482822
0.000474527
0.000466707
0.000459325
0.000452347
0.000445743
0.000439488
0.000433556
0.00101678
0.00101508
0.00101017
0.0010009
0.00098729
0.000970152
0.000950606
0.000929706
0.000908287
0.000886944
0.000866075
0.000845923
0.000826628
0.000808259
0.000790837
0.000774352
0.000758777
0.000744075
0.000730199
0.000717105
0.000704744
0.00069307
0.00068204
0.000671611
0.000661744
0.000652402
0.000643553
0.000635164
0.000627209
0.000619661
0.000612497
0.0006057
0.000599246
0.00101672
0.00101615
0.001015
0.00101271
0.00100877
0.00100297
0.000995342
0.000986101
0.000975569
0.000964085
0.000951964
0.000939473
0.000926828
0.000914198
0.00090171
0.000889458
0.000877506
0.000865902
0.000854673
0.000843837
0.000833402
0.000823369
0.000813735
0.000804492
0.000795631
0.000787142
0.000779012
0.000771229
0.000763782
0.000756659
0.000749849
0.000743343
0.000737127
0.0010167
0.00101622
0.00101568
0.00101493
0.00101376
0.00101199
0.00100945
0.00100608
0.00100186
0.000996852
0.000991145
0.00098485
0.000978082
0.000970952
0.000963562
0.000956001
0.000948345
0.000940658
0.000932995
0.000925397
0.000917899
0.000910529
0.000903307
0.000896249
0.000889369
0.000882674
0.00087617
0.000869862
0.000863752
0.000857842
0.000852131
0.000846621
0.000841306
0.0010167
0.00101622
0.00101574
0.00101525
0.00101469
0.001014
0.00101308
0.00101187
0.00101031
0.00100837
0.00100603
0.0010033
0.0010002
0.000996763
0.000993031
0.000989044
0.000984846
0.000980478
0.000975978
0.000971382
0.00096672
0.000962021
0.00095731
0.000952607
0.000947932
0.000943299
0.000938723
0.000934215
0.000929785
0.00092544
0.000921188
0.000917034
0.000912983
0.0010167
0.00101621
0.00101574
0.00101529
0.00101483
0.00101436
0.00101385
0.00101326
0.00101258
0.00101176
0.00101079
0.00100964
0.00100831
0.00100679
0.00100508
0.0010032
0.00100114
0.000998935
0.000996592
0.000994128
0.000991561
0.000988907
0.000986182
0.000983401
0.000980579
0.000977728
0.00097486
0.000971985
0.000969115
0.000966258
0.000963422
0.000960613
0.000957839
0.0010167
0.00101621
0.00101574
0.00101529
0.00101484
0.00101441
0.00101398
0.00101354
0.00101308
0.0010126
0.00101208
0.0010115
0.00101085
0.00101013
0.00100932
0.00100843
0.00100745
0.00100639
0.00100524
0.001004
0.00100269
0.00100131
0.000999857
0.000998351
0.000996794
0.000995193
0.000993554
0.000991886
0.000990193
0.000988483
0.000986761
0.000985032
0.000983302
0.0010167
0.00101621
0.00101574
0.00101528
0.00101484
0.00101441
0.00101399
0.00101358
0.00101317
0.00101277
0.00101237
0.00101195
0.00101153
0.00101108
0.00101061
0.00101011
0.00100958
0.00100901
0.0010084
0.00100776
0.00100707
0.00100635
0.00100558
0.00100479
0.00100395
0.00100309
0.00100219
0.00100127
0.00100033
0.000999364
0.000998381
0.000997383
0.000996373
0.0010167
0.00101621
0.00101574
0.00101528
0.00101484
0.00101441
0.00101399
0.00101358
0.00101318
0.0010128
0.00101242
0.00101204
0.00101167
0.00101131
0.00101094
0.00101057
0.00101019
0.0010098
0.00100941
0.001009
0.00100858
0.00100815
0.0010077
0.00100724
0.00100676
0.00100626
0.00100575
0.00100523
0.00100469
0.00100414
0.00100357
0.001003
0.00100242
0.0010167
0.00101621
0.00101574
0.00101528
0.00101484
0.0010144
0.00101398
0.00101358
0.00101318
0.00101279
0.00101242
0.00101205
0.0010117
0.00101135
0.00101101
0.00101067
0.00101034
0.00101001
0.00100968
0.00100936
0.00100904
0.00100871
0.00100838
0.00100805
0.00100772
0.00100739
0.00100705
0.0010067
0.00100636
0.00100601
0.00100565
0.00100529
0.00100493
0.0010167
0.00101621
0.00101574
0.00101528
0.00101484
0.0010144
0.00101398
0.00101357
0.00101318
0.00101279
0.00101242
0.00101205
0.0010117
0.00101135
0.00101101
0.00101068
0.00101036
0.00101005
0.00100974
0.00100944
0.00100915
0.00100886
0.00100857
0.00100829
0.00100801
0.00100773
0.00100746
0.00100719
0.00100692
0.00100665
0.00100638
0.00100612
0.00100585
0.0010167
0.00101621
0.00101574
0.00101528
0.00101483
0.0010144
0.00101398
0.00101357
0.00101317
0.00101279
0.00101241
0.00101205
0.00101169
0.00101135
0.00101101
0.00101068
0.00101036
0.00101005
0.00100975
0.00100945
0.00100917
0.00100888
0.00100861
0.00100834
0.00100808
0.00100782
0.00100757
0.00100732
0.00100708
0.00100684
0.00100661
0.00100638
0.00100615
0.0010167
0.00101621
0.00101574
0.00101528
0.00101483
0.0010144
0.00101398
0.00101357
0.00101317
0.00101278
0.00101241
0.00101204
0.00101169
0.00101134
0.001011
0.00101068
0.00101036
0.00101005
0.00100974
0.00100945
0.00100916
0.00100888
0.00100861
0.00100835
0.00100809
0.00100783
0.00100759
0.00100735
0.00100711
0.00100688
0.00100666
0.00100644
0.00100623
0.0010167
0.00101621
0.00101574
0.00101528
0.00101483
0.0010144
0.00101398
0.00101357
0.00101317
0.00101278
0.0010124
0.00101204
0.00101168
0.00101134
0.001011
0.00101067
0.00101035
0.00101004
0.00100974
0.00100944
0.00100915
0.00100887
0.0010086
0.00100834
0.00100808
0.00100783
0.00100758
0.00100734
0.00100711
0.00100688
0.00100666
0.00100644
0.00100623
0.0010167
0.00101621
0.00101574
0.00101528
0.00101483
0.0010144
0.00101398
0.00101357
0.00101317
0.00101278
0.0010124
0.00101204
0.00101168
0.00101133
0.00101099
0.00101066
0.00101034
0.00101003
0.00100973
0.00100943
0.00100915
0.00100887
0.00100859
0.00100833
0.00100807
0.00100782
0.00100757
0.00100733
0.0010071
0.00100687
0.00100665
0.00100643
0.00100622
0.0010167
0.00101621
0.00101574
0.00101528
0.00101483
0.0010144
0.00101397
0.00101356
0.00101317
0.00101278
0.0010124
0.00101203
0.00101168
0.00101133
0.00101099
0.00101066
0.00101034
0.00101003
0.00100972
0.00100943
0.00100914
0.00100886
0.00100859
0.00100832
0.00100806
0.00100781
0.00100756
0.00100732
0.00100709
0.00100686
0.00100664
0.00100642
0.00100621
0.0010167
0.00101621
0.00101574
0.00101528
0.00101483
0.0010144
0.00101397
0.00101356
0.00101316
0.00101278
0.0010124
0.00101203
0.00101167
0.00101132
0.00101099
0.00101066
0.00101034
0.00101002
0.00100972
0.00100942
0.00100913
0.00100885
0.00100858
0.00100831
0.00100805
0.0010078
0.00100755
0.00100731
0.00100708
0.00100685
0.00100662
0.00100641
0.00100619
0.0010167
0.00101621
0.00101574
0.00101528
0.00101483
0.00101439
0.00101397
0.00101356
0.00101316
0.00101277
0.0010124
0.00101203
0.00101167
0.00101132
0.00101098
0.00101065
0.00101033
0.00101002
0.00100971
0.00100942
0.00100913
0.00100885
0.00100857
0.0010083
0.00100804
0.00100779
0.00100754
0.0010073
0.00100706
0.00100684
0.00100661
0.00100639
0.00100618
0.0010167
0.00101621
0.00101574
0.00101528
0.00101483
0.00101439
0.00101397
0.00101356
0.00101316
0.00101277
0.00101239
0.00101203
0.00101167
0.00101132
0.00101098
0.00101065
0.00101033
0.00101001
0.00100971
0.00100941
0.00100912
0.00100884
0.00100856
0.0010083
0.00100804
0.00100778
0.00100753
0.00100729
0.00100706
0.00100683
0.0010066
0.00100638
0.00100617
0.0010167
0.00101621
0.00101574
0.00101528
0.00101483
0.00101439
0.00101397
0.00101356
0.00101316
0.00101277
0.00101239
0.00101202
0.00101167
0.00101132
0.00101098
0.00101065
0.00101032
0.00101001
0.00100971
0.00100941
0.00100912
0.00100883
0.00100856
0.00100829
0.00100803
0.00100777
0.00100753
0.00100728
0.00100705
0.00100682
0.00100659
0.00100637
0.00100616
0.0010167
0.00101621
0.00101574
0.00101528
0.00101483
0.00101439
0.00101397
0.00101356
0.00101316
0.00101277
0.00101239
0.00101202
0.00101166
0.00101131
0.00101097
0.00101064
0.00101032
0.00101001
0.0010097
0.0010094
0.00100911
0.00100883
0.00100855
0.00100829
0.00100802
0.00100777
0.00100752
0.00100728
0.00100704
0.00100681
0.00100658
0.00100636
0.00100615
0.0010167
0.00101621
0.00101574
0.00101528
0.00101483
0.00101439
0.00101397
0.00101356
0.00101316
0.00101277
0.00101239
0.00101202
0.00101166
0.00101131
0.00101097
0.00101064
0.00101032
0.00101
0.0010097
0.0010094
0.00100911
0.00100883
0.00100855
0.00100828
0.00100802
0.00100776
0.00100751
0.00100727
0.00100703
0.0010068
0.00100657
0.00100635
0.00100614
0.0010167
0.00101621
0.00101574
0.00101528
0.00101483
0.00101439
0.00101397
0.00101356
0.00101316
0.00101277
0.00101239
0.00101202
0.00101166
0.00101131
0.00101097
0.00101064
0.00101032
0.00101
0.0010097
0.0010094
0.00100911
0.00100882
0.00100855
0.00100828
0.00100801
0.00100776
0.00100751
0.00100726
0.00100703
0.00100679
0.00100657
0.00100635
0.00100613
0.0010167
0.00101621
0.00101574
0.00101528
0.00101483
0.00101439
0.00101397
0.00101356
0.00101316
0.00101277
0.00101239
0.00101202
0.00101166
0.00101131
0.00101097
0.00101064
0.00101032
0.00101
0.00100969
0.00100939
0.0010091
0.00100882
0.00100854
0.00100827
0.00100801
0.00100775
0.0010075
0.00100726
0.00100702
0.00100679
0.00100656
0.00100634
0.00100612
0.0010167
0.00101621
0.00101574
0.00101528
0.00101483
0.00101439
0.00101397
0.00101356
0.00101316
0.00101277
0.00101239
0.00101202
0.00101166
0.00101131
0.00101097
0.00101064
0.00101031
0.00101
0.00100969
0.00100939
0.0010091
0.00100882
0.00100854
0.00100827
0.00100801
0.00100775
0.0010075
0.00100725
0.00100702
0.00100678
0.00100656
0.00100633
0.00100612
0.0010167
0.00101621
0.00101574
0.00101528
0.00101483
0.00101439
0.00101397
0.00101356
0.00101316
0.00101277
0.00101239
0.00101202
0.00101166
0.00101131
0.00101097
0.00101064
0.00101031
0.00101
0.00100969
0.00100939
0.0010091
0.00100881
0.00100854
0.00100827
0.001008
0.00100775
0.00100749
0.00100725
0.00100701
0.00100678
0.00100655
0.00100633
0.00100611
0.0010167
0.00101621
0.00101574
0.00101528
0.00101483
0.00101439
0.00101397
0.00101356
0.00101316
0.00101277
0.00101239
0.00101202
0.00101166
0.00101131
0.00101097
0.00101064
0.00101031
0.00101
0.00100969
0.00100939
0.0010091
0.00100881
0.00100853
0.00100826
0.001008
0.00100774
0.00100749
0.00100724
0.001007
0.00100677
0.00100654
0.00100632
0.0010061
0.0010167
0.00101621
0.00101574
0.00101528
0.00101483
0.00101439
0.00101397
0.00101356
0.00101316
0.00101277
0.00101239
0.00101202
0.00101166
0.00101131
0.00101097
0.00101064
0.00101031
0.00101
0.00100969
0.00100939
0.00100909
0.00100881
0.00100853
0.00100825
0.00100798
0.00100772
0.00100747
0.00100722
0.00100697
0.00100673
0.0010065
0.00100627
0.00100604
0.0010167
0.00101621
0.00101574
0.00101528
0.00101483
0.00101439
0.00101397
0.00101356
0.00101316
0.00101277
0.00101239
0.00101202
0.00101166
0.00101131
0.00101096
0.00101063
0.0010103
0.00100997
0.00100966
0.00100935
0.00100905
0.00100875
0.00100845
0.00100817
0.00100788
0.0010076
0.00100732
0.00100705
0.00100678
0.00100651
0.00100625
0.00100599
0.00100573
0.0010167
0.00101621
0.00101574
0.00101528
0.00101483
0.00101439
0.00101397
0.00101356
0.00101316
0.00101276
0.00101237
0.00101199
0.00101162
0.00101125
0.00101088
0.00101051
0.00101015
0.00100979
0.00100942
0.00100906
0.00100869
0.00100833
0.00100796
0.00100759
0.00100721
0.00100684
0.00100646
0.00100608
0.00100569
0.00100531
0.00100492
0.00100453
0.00100413
0.0010167
0.00101621
0.00101574
0.00101527
0.00101482
0.00101438
0.00101394
0.0010135
0.00101305
0.00101259
0.00101213
0.00101165
0.00101115
0.00101063
0.00101008
0.00100952
0.00100893
0.00100832
0.00100769
0.00100703
0.00100635
0.00100565
0.00100493
0.00100419
0.00100343
0.00100265
0.00100186
0.00100105
0.00100023
0.000999396
0.000998554
0.000997702
0.000996844
0.0010167
0.00101621
0.00101571
0.00101519
0.00101464
0.00101403
0.00101334
0.00101256
0.00101168
0.00101069
0.00100958
0.00100837
0.00100706
0.00100563
0.00100411
0.0010025
0.0010008
0.000999029
0.000997185
0.00099528
0.00099332
0.000991313
0.000989266
0.000987185
0.000985077
0.000982947
0.000980801
0.000978645
0.000976482
0.000974317
0.000972153
0.000969995
0.000967846
0.00101669
0.00101596
0.00101486
0.00101328
0.00101118
0.00100855
0.00100542
0.00100182
0.000997785
0.000993377
0.000988643
0.000983636
0.000978404
0.000972993
0.000967446
0.0009618
0.000956089
0.000950342
0.000944585
0.00093884
0.000933126
0.000927458
0.000921851
0.000916315
0.00091086
0.000905493
0.000900221
0.000895046
0.000889975
0.000885008
0.000880148
0.000875395
0.00087075
0.00101524
0.00100708
0.00099496
0.000980623
0.000964776
0.000947876
0.000930305
0.000912411
0.000894487
0.000876761
0.000859397
0.000842509
0.000826171
0.000810426
0.000795297
0.000780791
0.000766901
0.000753616
0.000740916
0.000728781
0.000717187
0.000706109
0.000695524
0.000685406
0.000675732
0.00066648
0.000657627
0.000649152
0.000641036
0.000633259
0.000625804
0.000618655
0.000611793
0.000934352
0.00081341
0.000726844
0.000658858
0.000603206
0.000556872
0.000517958
0.000484986
0.000456769
0.000432384
0.000411125
0.000392442
0.000375907
0.00036118
0.00034799
0.000336115
0.000325379
0.000315631
0.00030675
0.000298632
0.000291189
0.000284347
0.000278041
0.000272218
0.000266828
0.000261829
0.000257185
0.000252863
0.000248836
0.000245076
0.000241562
0.000238273
0.000235189
0.000125479
0.000128845
0.000132086
0.000135185
0.000138141
0.000140961
0.00014365
0.000146214
0.000148657
0.000150984
0.0001532
0.000155308
0.000157312
0.000159218
0.000161029
0.000162748
0.000164381
0.000165931
0.000167401
0.000168796
0.000170118
0.000171372
0.000172561
0.000173687
0.000174754
0.000175765
0.000176722
0.000177629
0.000178488
0.000179301
0.000180071
0.0001808
0.00018149
8.0496e-05
9.56943e-05
0.000113543
0.000134783
0.000159567
0.000187131
0.00021617
0.000245366
0.000273751
0.000300916
0.000326956
0.00035226
0.000377278
0.000402356
0.000427661
0.000453183
0.000478802
0.000504361
0.000529729
0.000554839
0.000579693
0.000604341
0.000628859
0.000653319
0.000677779
0.000702275
0.000726829
0.00075146
0.000776189
0.000801045
0.00082606
0.000851262
0.00087667
0.000902286
0.000928091
0.000954045
0.000980086
0.00100613
0.00103209
0.00105784
0.00108327
0.00110825
0.00113264
0.0011563
0.00117909
0.0012009
0.00122159
0.00124105
0.00125921
0.001276
0.00129138
0.00130533
0.00131787
0.00132906
0.00133897
0.00134772
0.00135544
0.0013623
0.00136848
0.00137419
0.00137965
0.00138507
0.00139068
0.00139671
0.00140334
0.00141079
0.00141921
0.00142876
0.00143955
0.00145167
0.00146519
0.00148013
0.0014965
0.00151428
0.00153341
0.00155383
0.00157544
0.00159813
0.00162179
0.00164627
0.00167144
0.00169715
0.00172324
0.00174958
0.00177602
0.00180242
0.00182866
0.00185461
0.00188018
0.00190527
0.0019298
0.00195369
0.00197688
0.00199934
0.00202101
0.00204186
0.00206183
0.00208121
0.00209771
0.00212546
6.88006e-05
7.06336e-05
7.33901e-05
7.75068e-05
8.35116e-05
9.19428e-05
0.000103264
0.000117777
0.000135549
0.000156383
0.000179843
0.00020533
0.000232168
0.000259711
0.000287414
0.000314895
0.000341942
0.000368502
0.00039463
0.000420437
0.000446031
0.000471482
0.000496801
0.000521946
0.000546854
0.00057146
0.000595725
0.000619646
0.00064325
0.000666585
0.000689705
0.000712656
0.000735469
0.000758157
0.000780717
0.000803128
0.000825357
0.000847359
0.000869076
0.000890442
0.000911379
0.000931803
0.000951621
0.000970739
0.000989061
0.0010065
0.00102296
0.00103838
0.00105271
0.0010659
0.00107795
0.00108887
0.0010987
0.0011075
0.00111538
0.00112246
0.00112889
0.00113483
0.00114047
0.00114601
0.00115165
0.0011576
0.00116407
0.00117123
0.00117928
0.00118836
0.00119862
0.00121016
0.00122307
0.00123742
0.00125323
0.00127052
0.00128927
0.00130946
0.00133102
0.00135389
0.00137797
0.00140317
0.00142937
0.00145645
0.00148426
0.00151266
0.00154152
0.00157069
0.00160003
0.00162939
0.00165866
0.00168771
0.00171642
0.0017447
0.00177245
0.00179961
0.0018261
0.00185186
0.00187685
0.00190103
0.00192433
0.00194707
0.00196672
0.00199894
0.000108996
0.000107177
0.000105283
0.000103565
0.000102064
0.000100842
0.000100025
9.98213e-05
0.000100526
0.000102509
0.000106187
0.000111975
0.000120241
0.000131262
0.000145189
0.000162028
0.000181622
0.000203657
0.000227686
0.000253172
0.000279551
0.000306297
0.000332979
0.000359291
0.000385062
0.000410227
0.000434798
0.000458823
0.000482349
0.000505411
0.000528022
0.000550178
0.000571868
0.000593078
0.000613801
0.000634028
0.000653755
0.000672973
0.000691666
0.000709811
0.000727377
0.000744322
0.000760602
0.000776169
0.000790975
0.000804977
0.000818136
0.000830429
0.000841842
0.00085238
0.00086207
0.000870957
0.000879109
0.000886619
0.000893599
0.000900182
0.000906519
0.000912773
0.000919114
0.000925718
0.000932758
0.0009404
0.000948798
0.000958094
0.000968409
0.000979846
0.000992489
0.0010064
0.00102163
0.0010382
0.00105612
0.0010754
0.00109601
0.00111794
0.00114114
0.00116556
0.00119115
0.00121782
0.00124549
0.00127407
0.00130343
0.00133347
0.00136406
0.00139507
0.00142636
0.00145781
0.00148928
0.00152065
0.0015518
0.00158262
0.00161302
0.00164291
0.0016722
0.00170084
0.00172875
0.0017559
0.0017822
0.00180799
0.00183051
0.00186692
0.000251128
0.000245514
0.000240005
0.000234582
0.000229403
0.000224405
0.000219472
0.000214486
0.000209333
0.000203929
0.000198246
0.000192338
0.000186366
0.000180606
0.000175442
0.000171329
0.00016875
0.000168164
0.00016996
0.000174424
0.000181711
0.000191834
0.000204668
0.000219955
0.000237331
0.000256361
0.000276581
0.000297542
0.000318844
0.000340163
0.000361257
0.000381965
0.000402185
0.000421862
0.00044097
0.000459494
0.000477425
0.000494752
0.000511463
0.000527544
0.000542982
0.000557764
0.00057188
0.000585322
0.000598089
0.000610185
0.000621624
0.000632428
0.000642633
0.000652286
0.000661451
0.000670205
0.000678639
0.000686859
0.00069498
0.000703128
0.000711429
0.000720011
0.000728998
0.000738504
0.000748633
0.000759473
0.000771095
0.000783557
0.0007969
0.000811153
0.000826335
0.000842459
0.000859532
0.000877564
0.000896564
0.00091654
0.000937507
0.000959475
0.000982455
0.00100645
0.00103147
0.00105749
0.00108448
0.00111242
0.00114123
0.00117086
0.00120121
0.00123217
0.00126365
0.00129551
0.00132763
0.00135989
0.00139216
0.00142432
0.00145627
0.00148789
0.00151908
0.00154977
0.00157988
0.00160934
0.00163802
0.00166635
0.00169125
0.00173131
0.000427008
0.000419806
0.000412781
0.000405914
0.000399294
0.000392915
0.000386736
0.000380694
0.000374707
0.00036867
0.000362461
0.000355948
0.000348995
0.000341478
0.000333303
0.000324425
0.000314874
0.000304776
0.000294361
0.000283965
0.000274003
0.000264931
0.000257199
0.000251207
0.00024727
0.000245598
0.000246284
0.000249309
0.000254555
0.000261823
0.000270854
0.000281356
0.000293024
0.000305564
0.000318707
0.000332218
0.000345902
0.000359605
0.000373209
0.000386629
0.000399803
0.000412695
0.000425284
0.000437567
0.00044955
0.000461254
0.00047271
0.000483962
0.000495061
0.000506069
0.000517054
0.000528089
0.000539252
0.000550619
0.000562261
0.000574245
0.000586625
0.000599443
0.000612728
0.000626489
0.000640724
0.000655417
0.00067054
0.000686062
0.000701947
0.000718162
0.000734683
0.000751496
0.0007686
0.00078601
0.000803759
0.000821896
0.000840483
0.000859597
0.000879321
0.000899743
0.000920949
0.000943017
0.000966013
0.000989988
0.00101497
0.00104095
0.00106793
0.00109584
0.00112462
0.00115418
0.0011844
0.00121518
0.00124638
0.00127786
0.0013095
0.00134116
0.00137273
0.00140409
0.00143513
0.00146577
0.00149584
0.00152578
0.00155226
0.001595
0.000592136
0.000584334
0.000576748
0.000569369
0.00056222
0.000555301
0.000548599
0.000542095
0.000535761
0.000529556
0.00052343
0.000517318
0.000511145
0.000504827
0.000498269
0.000491372
0.000484037
0.000476175
0.000467714
0.000458612
0.000448869
0.00043854
0.000427736
0.000416633
0.000405458
0.000394483
0.000384006
0.000374324
0.000365717
0.00035842
0.000352615
0.000348419
0.000345883
0.000345002
0.000345716
0.000347931
0.000351525
0.000356363
0.000362305
0.00036922
0.000376986
0.000385499
0.000394671
0.000404434
0.000414738
0.000425547
0.000436839
0.000448604
0.000460837
0.000473538
0.000486707
0.000500344
0.000514439
0.000528978
0.000543934
0.000559271
0.000574939
0.000590878
0.000607021
0.000623292
0.00063961
0.000655896
0.000672074
0.000688074
0.000703837
0.000719318
0.000734487
0.000749331
0.000763859
0.000778097
0.000792093
0.000805917
0.000819655
0.000833415
0.00084732
0.000861506
0.000876119
0.00089131
0.000907228
0.000924016
0.000941801
0.000960687
0.000980756
0.00100206
0.0010246
0.00104837
0.00107331
0.00109935
0.00112637
0.00115426
0.00118287
0.00121206
0.00124168
0.00127158
0.00130162
0.00133168
0.00136154
0.00139165
0.00141849
0.00146229
0.000730233
0.000722623
0.000715185
0.000707923
0.000700846
0.000693955
0.000687245
0.00068071
0.00067434
0.000668123
0.000662041
0.000656071
0.000650188
0.00064436
0.000638551
0.000632718
0.000626818
0.0006208
0.000614613
0.000608208
0.000601536
0.00059456
0.000587254
0.000579611
0.000571647
0.000563404
0.000554956
0.000546403
0.000537873
0.000529516
0.000521496
0.000513985
0.000507148
0.000501142
0.000496104
0.000492147
0.000489357
0.000487793
0.000487488
0.000488452
0.000490674
0.000494131
0.000498783
0.000504586
0.000511488
0.000519433
0.000528364
0.000538218
0.000548931
0.000560434
0.000572655
0.000585515
0.000598931
0.000612815
0.000627073
0.000641609
0.000656323
0.000671116
0.000685889
0.000700548
0.000715004
0.000729177
0.000742995
0.000756397
0.000769334
0.000781771
0.000793684
0.000805063
0.000815911
0.000826243
0.000836091
0.000845497
0.00085452
0.000863231
0.000871719
0.000880089
0.000888461
0.000896973
0.000905777
0.000915038
0.000924928
0.00093562
0.000947284
0.000960072
0.00097412
0.000989529
0.00100637
0.00102467
0.00104442
0.00106556
0.00108803
0.00111171
0.00113646
0.00116214
0.00118858
0.00121564
0.00124306
0.00127126
0.0012967
0.00133912
0.00083535
0.000828704
0.000822143
0.000815674
0.00080931
0.000803054
0.000796911
0.000790879
0.00078496
0.00077915
0.000773447
0.000767844
0.000762336
0.000756915
0.000751572
0.000746297
0.000741078
0.000735904
0.00073076
0.000725631
0.000720501
0.000715353
0.000710174
0.00070495
0.000699673
0.000694343
0.000688966
0.000683562
0.000678161
0.00067281
0.000667567
0.000662502
0.000657699
0.000653248
0.000649244
0.000645782
0.000642955
0.000640849
0.000639539
0.000639091
0.000639552
0.000640958
0.000643328
0.000646666
0.000650962
0.00065619
0.000662316
0.00066929
0.000677054
0.000685541
0.000694674
0.000704374
0.000714552
0.000725119
0.000735983
0.000747052
0.000758235
0.000769447
0.000780604
0.000791631
0.000802459
0.000813028
0.000823285
0.000833189
0.000842704
0.000851807
0.00086048
0.000868716
0.000876511
0.000883873
0.000890812
0.000897344
0.000903493
0.000909288
0.000914763
0.000919961
0.000924934
0.000929747
0.000934477
0.000939218
0.000944081
0.000949198
0.000954717
0.000960801
0.000967625
0.000975364
0.000984188
0.000994252
0.00100568
0.00101858
0.00103299
0.00104893
0.00106638
0.00108526
0.00110549
0.00112694
0.00114939
0.00117319
0.00119513
0.00123295
0.000908385
0.000903187
0.000897986
0.000892794
0.000887622
0.000882476
0.000877365
0.000872294
0.000867266
0.000862286
0.000857356
0.000852478
0.000847655
0.000842887
0.000838176
0.000833525
0.000828936
0.000824411
0.000819954
0.000815568
0.000811255
0.000807019
0.000802862
0.000798787
0.000794798
0.000790899
0.000787095
0.000783396
0.000779813
0.000776363
0.000773067
0.000769953
0.000767054
0.000764408
0.000762059
0.000760052
0.000758437
0.000757262
0.000756576
0.000756421
0.000756836
0.000757852
0.000759492
0.00076177
0.000764689
0.000768242
0.000772414
0.000777176
0.000782493
0.000788322
0.000794612
0.000801306
0.000808343
0.00081566
0.000823192
0.000830873
0.00083864
0.000846433
0.000854193
0.00086187
0.000869417
0.000876793
0.000883964
0.000890902
0.000897585
0.000904
0.000910136
0.000915989
0.000921559
0.000926851
0.000931873
0.000936635
0.00094115
0.00094543
0.000949492
0.000953351
0.000957023
0.000960525
0.000963879
0.000967109
0.000970248
0.000973338
0.000976437
0.000979617
0.000982974
0.000986623
0.0009907
0.00099536
0.00100077
0.00100709
0.0010145
0.00102312
0.00103308
0.00104447
0.00105732
0.00107163
0.00108733
0.00110471
0.00112132
0.00115127
0.000954645
0.000950982
0.000947262
0.000943494
0.000939685
0.000935845
0.000931978
0.000928093
0.000924195
0.00092029
0.000916381
0.000912475
0.000908576
0.000904689
0.000900818
0.000896971
0.000893153
0.000889372
0.000885635
0.000881952
0.000878332
0.000874785
0.000871322
0.000867953
0.000864688
0.000861539
0.000858517
0.000855633
0.000852898
0.000850326
0.000847931
0.000845727
0.000843731
0.000841962
0.00084044
0.000839186
0.000838223
0.000837573
0.00083726
0.000837305
0.000837725
0.000838539
0.000839756
0.000841385
0.000843428
0.00084588
0.000848732
0.000851968
0.000855566
0.0008595
0.000863738
0.000868244
0.00087298
0.000877905
0.000882977
0.000888155
0.000893397
0.000898664
0.000903918
0.000909126
0.000914257
0.000919283
0.000924184
0.000928941
0.00093354
0.000937972
0.000942232
0.000946318
0.000950233
0.000953982
0.000957573
0.000961019
0.000964331
0.000967523
0.00097061
0.000973608
0.000976529
0.000979387
0.000982192
0.000984954
0.000987679
0.000990373
0.000993041
0.000995692
0.000998342
0.00100101
0.00100375
0.0010066
0.00100965
0.001013
0.00101677
0.00102111
0.00102616
0.00103207
0.001039
0.00104705
0.00105632
0.00106706
0.00107786
0.0010983
0.000981282
0.00097893
0.000976503
0.000974007
0.000971447
0.000968826
0.000966149
0.000963423
0.00096065
0.000957836
0.000954986
0.000952104
0.000949194
0.000946263
0.000943314
0.000940355
0.000937392
0.000934432
0.000931483
0.000928555
0.000925657
0.000922799
0.000919994
0.000917253
0.000914587
0.000912011
0.000909535
0.000907173
0.000904938
0.000902841
0.000900897
0.000899116
0.000897513
0.000896099
0.000894887
0.000893888
0.000893117
0.000892583
0.000892298
0.000892272
0.000892512
0.000893027
0.00089382
0.000894892
0.000896243
0.000897869
0.000899761
0.000901908
0.000904297
0.00090691
0.000909726
0.000912723
0.000915876
0.000919159
0.000922546
0.000926008
0.000929521
0.000933056
0.000936591
0.000940102
0.000943569
0.000946973
0.000950299
0.000953535
0.000956671
0.000959699
0.000962616
0.000965421
0.000968116
0.000970705
0.000973196
0.000975598
0.000977923
0.000980184
0.000982398
0.000984581
0.000986751
0.000988925
0.000991121
0.000993355
0.000995639
0.000997985
0.0010004
0.00100288
0.00100544
0.00100806
0.00101074
0.00101348
0.00101627
0.00101915
0.00102212
0.00102524
0.00102858
0.00103223
0.00103629
0.00104089
0.00104616
0.00105229
0.0010587
0.00107101
0.000995179
0.00099377
0.000992296
0.000990758
0.000989157
0.000987496
0.000985776
0.000983999
0.000982168
0.000980285
0.000978353
0.000976376
0.000974357
0.000972298
0.000970205
0.000968082
0.000965933
0.000963765
0.000961584
0.000959396
0.000957211
0.000955036
0.00095288
0.000950755
0.000948669
0.000946634
0.000944662
0.000942763
0.00094095
0.000939234
0.000937626
0.000936138
0.00093478
0.000933564
0.000932499
0.000931594
0.000930859
0.0009303
0.000929926
0.000929742
0.000929753
0.000929961
0.000930369
0.000930976
0.00093178
0.000932778
0.000933963
0.000935327
0.000936861
0.000938552
0.000940388
0.000942352
0.000944429
0.000946601
0.00094885
0.000951159
0.000953509
0.000955883
0.000958263
0.000960634
0.000962982
0.000965292
0.000967553
0.000969756
0.000971893
0.000973956
0.000975944
0.000977853
0.000979684
0.000981438
0.000983121
0.000984739
0.000986301
0.000987817
0.000989299
0.000990764
0.000992227
0.000993706
0.000995222
0.000996794
0.000998442
0.00100019
0.00100205
0.00100404
0.00100617
0.00100846
0.0010109
0.00101349
0.00101622
0.00101908
0.00102206
0.00102516
0.00102837
0.00103169
0.00103516
0.00103881
0.00104271
0.00104695
0.00105127
0.0010591
0.00100172
0.0010009
0.00100003
0.000999113
0.00099815
0.000997139
0.000996081
0.000994976
0.000993824
0.000992627
0.000991385
0.000990099
0.000988772
0.000987404
0.000985999
0.000984558
0.000983086
0.000981585
0.000980059
0.000978514
0.000976955
0.000975388
0.000973819
0.000972256
0.000970706
0.000969177
0.000967679
0.000966219
0.000964808
0.000963455
0.000962169
0.00096096
0.000959837