/*--------------------------------*- C++ -*----------------------------------*\
| =========                 |                                                 |
| \\      /  F ield         | OpenFOAM: The Open Source CFD Toolbox           |
|  \\    /   O peration     | Version:  4.1                                   |
|   \\  /    A nd           | Web:      www.OpenFOAM.org                      |
|    \\/     M anipulation  |                                                 |
\*---------------------------------------------------------------------------*/
FoamFile
{
    version     2.0;
    format      ascii;
    class       volScalarField;
    location    "500";
    object      p;
}
// * * * * * * * * * * * * * * * * * * * * * * * * * * * * * * * * * * * * * //

dimensions      [0 2 -2 0 0 0 0];

internalField   nonuniform List<scalar> 
6820
(
-7.89874
-8.69848
-9.15898
-9.30382
-9.38238
-9.45669
-9.51653
-9.56212
-9.60084
-9.63632
-9.66912
-9.69946
-9.72779
-9.75455
-9.77998
-9.80427
-9.8276
-9.85012
-9.87201
-9.89341
-9.91448
-9.93534
-9.95617
-9.9771
-9.99831
-10.02
-10.0423
-10.0656
-10.09
-10.1162
-10.1429
-10.1767
-10.1919
-9.57245
-9.73823
-9.72383
-9.64426
-9.60201
-9.59877
-9.60882
-9.62239
-9.63969
-9.66049
-9.68318
-9.70657
-9.73013
-9.75363
-9.77687
-9.79971
-9.8221
-9.84406
-9.86564
-9.88688
-9.9079
-9.92878
-9.94966
-9.97064
-9.99189
-10.0136
-10.0358
-10.059
-10.0831
-10.1091
-10.1367
-10.17
-10.2114
-9.55088
-9.36281
-9.34421
-9.37869
-9.42049
-9.46876
-9.51527
-9.55578
-9.59228
-9.62665
-9.65907
-9.68947
-9.71808
-9.7452
-9.771
-9.79565
-9.8193
-9.84211
-9.86425
-9.88584
-9.90704
-9.92798
-9.94882
-9.96969
-9.99075
-10.0122
-10.0341
-10.0568
-10.0804
-10.1055
-10.1323
-10.1631
-10.1948
-9.46874
-9.36636
-9.4158
-9.47644
-9.50987
-9.54038
-9.57192
-9.60075
-9.62755
-9.6538
-9.67962
-9.70472
-9.72907
-9.75277
-9.77584
-9.79832
-9.82026
-9.84172
-9.86278
-9.88354
-9.90407
-9.92448
-9.94487
-9.96535
-9.98604
-10.0071
-10.0286
-10.0507
-10.0737
-10.0977
-10.1229
-10.1499
-10.1766
-9.46122
-9.42132
-9.4535
-9.49124
-9.51345
-9.53832
-9.56749
-9.59583
-9.62275
-9.64928
-9.67543
-9.70092
-9.72565
-9.74967
-9.77303
-9.79573
-9.81785
-9.83944
-9.86059
-9.88137
-9.90189
-9.92224
-9.94252
-9.96283
-9.98328
-10.004
-10.025
-10.0466
-10.0687
-10.0915
-10.115
-10.1391
-10.1625
-9.47041
-9.4503
-9.46623
-9.496
-9.51992
-9.54532
-9.57364
-9.60131
-9.62767
-9.65349
-9.67889
-9.70365
-9.72769
-9.75107
-9.77382
-9.79598
-9.81759
-9.83872
-9.85944
-9.87984
-9.89998
-9.91997
-9.93987
-9.95979
-9.9798
-9.99999
-10.0204
-10.0412
-10.0624
-10.0839
-10.1057
-10.1274
-10.1483
-9.47983
-9.46867
-9.47978
-9.50608
-9.53005
-9.55398
-9.58011
-9.60628
-9.63159
-9.65645
-9.68097
-9.70496
-9.72836
-9.75117
-9.77342
-9.79514
-9.81637
-9.83716
-9.85757
-9.87766
-9.89752
-9.9172
-9.93678
-9.95633
-9.97592
-9.99561
-10.0154
-10.0355
-10.0556
-10.0759
-10.0961
-10.116
-10.1348
-9.48993
-9.48486
-9.4945
-9.51696
-9.53937
-9.56173
-9.58604
-9.61088
-9.63522
-9.65921
-9.68292
-9.70621
-9.72898
-9.75125
-9.77301
-9.79428
-9.81511
-9.83552
-9.85558
-9.87533
-9.89484
-9.91417
-9.93337
-9.95249
-9.9716
-9.99073
-10.0099
-10.0291
-10.0483
-10.0674
-10.0862
-10.1045
-10.1216
-9.50082
-9.49947
-9.50826
-9.52737
-9.54812
-9.56925
-9.59203
-9.61556
-9.6389
-9.66199
-9.68487
-9.70743
-9.72956
-9.75124
-9.77248
-9.79329
-9.81368
-9.83369
-9.85336
-9.87274
-9.89187
-9.9108
-9.92958
-9.94825
-9.96684
-9.98537
-10.0038
-10.0222
-10.0405
-10.0585
-10.076
-10.0929
-10.1088
-9.51198
-9.51269
-9.52095
-9.53755
-9.55671
-9.57665
-9.59801
-9.62026
-9.64257
-9.66476
-9.68682
-9.70863
-9.7301
-9.75119
-9.77189
-9.7922
-9.81213
-9.83171
-9.85097
-9.86994
-9.88866
-9.90717
-9.92549
-9.94367
-9.96171
-9.97962
-9.99738
-10.015
-10.0323
-10.0493
-10.0657
-10.0814
-10.0962
-9.52308
-9.52485
-9.53276
-9.54745
-9.56508
-9.58383
-9.60391
-9.62493
-9.64622
-9.66751
-9.68875
-9.70982
-9.73062
-9.7511
-9.77124
-9.79104
-9.81049
-9.82962
-9.84843
-9.86697
-9.88525
-9.9033
-9.92114
-9.93879
-9.95626
-9.97353
-9.99059
-10.0074
-10.0238
-10.0399
-10.0553
-10.07
-10.0839
-9.53389
-9.53617
-9.54377
-9.55698
-9.57318
-9.59078
-9.60967
-9.62954
-9.64983
-9.67023
-9.69065
-9.71098
-9.7311
-9.75097
-9.77054
-9.78981
-9.80876
-9.82741
-9.84576
-9.86384
-9.88165
-9.89922
-9.91655
-9.93366
-9.95054
-9.96717
-9.98352
-9.99956
-10.0152
-10.0303
-10.0449
-10.0587
-10.0717
-9.54429
-9.54678
-9.55404
-9.56606
-9.58097
-9.59747
-9.61526
-9.63405
-9.65336
-9.6729
-9.69251
-9.7121
-9.73155
-9.75079
-9.76978
-9.78851
-9.80695
-9.8251
-9.84297
-9.86056
-9.87788
-9.89495
-9.91176
-9.92831
-9.94459
-9.96058
-9.97625
-9.99154
-10.0064
-10.0207
-10.0345
-10.0475
-10.0598
-9.5542
-9.55673
-9.56363
-9.57467
-9.58844
-9.60389
-9.62065
-9.63842
-9.65679
-9.67547
-9.6943
-9.71315
-9.73193
-9.75054
-9.76895
-9.78712
-9.80503
-9.82268
-9.84004
-9.85714
-9.87396
-9.89051
-9.90677
-9.92276
-9.93844
-9.9538
-9.96879
-9.98338
-9.99751
-10.0111
-10.0241
-10.0364
-10.048
-9.56358
-9.56605
-9.57257
-9.58278
-9.59553
-9.61001
-9.6258
-9.64261
-9.66008
-9.67793
-9.69599
-9.71413
-9.73223
-9.75022
-9.76804
-9.78565
-9.80302
-9.82014
-9.837
-9.85358
-9.86988
-9.8859
-9.90162
-9.91704
-9.93212
-9.94686
-9.9612
-9.97512
-9.98855
-10.0015
-10.0138
-10.0254
-10.0364
-9.57238
-9.57475
-9.58089
-9.59037
-9.60223
-9.61579
-9.63068
-9.64659
-9.6632
-9.68025
-9.69756
-9.71499
-9.73243
-9.74979
-9.76702
-9.78407
-9.8009
-9.81749
-9.83382
-9.84988
-9.86566
-9.88114
-9.89631
-9.91116
-9.92566
-9.93978
-9.95349
-9.96676
-9.97955
-9.99181
-10.0035
-10.0146
-10.025
-9.58058
-9.58283
-9.5886
-9.59744
-9.60849
-9.62121
-9.63526
-9.65033
-9.66613
-9.6824
-9.69898
-9.71572
-9.73251
-9.74925
-9.76589
-9.78238
-9.79866
-9.81471
-9.83052
-9.84605
-9.8613
-9.87624
-9.89086
-9.90514
-9.91906
-9.93259
-9.9457
-9.95835
-9.97052
-9.98217
-9.99326
-10.0038
-10.0137
-9.58817
-9.59029
-9.59571
-9.60397
-9.6143
-9.62625
-9.63951
-9.65379
-9.66882
-9.68436
-9.70023
-9.7163
-9.73245
-9.74858
-9.76464
-9.78056
-9.7963
-9.81181
-9.82709
-9.84209
-9.85681
-9.87121
-9.88529
-9.89901
-9.91236
-9.92531
-9.93783
-9.9499
-9.96149
-9.97256
-9.98309
-9.99307
-10.0025
-9.59513
-9.59713
-9.60221
-9.60995
-9.61964
-9.63088
-9.6434
-9.65695
-9.67125
-9.68608
-9.70128
-9.7167
-9.73223
-9.74777
-9.76325
-9.77861
-9.7938
-9.80878
-9.82353
-9.83801
-9.85219
-9.86606
-9.8796
-9.89277
-9.90557
-9.91796
-9.92992
-9.94142
-9.95245
-9.96298
-9.973
-9.98247
-9.99141
-9.60144
-9.60333
-9.6081
-9.61536
-9.62446
-9.63506
-9.64691
-9.65977
-9.67338
-9.68755
-9.7021
-9.7169
-9.73182
-9.74678
-9.7617
-9.77651
-9.79117
-9.80562
-9.81984
-9.8338
-9.84746
-9.8608
-9.8738
-9.88645
-9.8987
-9.91055
-9.92197
-9.93294
-9.94344
-9.95346
-9.96297
-9.97198
-9.98047
-9.6071
-9.60888
-9.61337
-9.6202
-9.62877
-9.63877
-9.65
-9.66222
-9.6752
-9.68874
-9.70268
-9.71688
-9.73122
-9.74562
-9.75999
-9.77427
-9.78839
-9.80233
-9.81603
-9.82947
-9.84262
-9.85544
-9.86793
-9.88005
-9.89178
-9.9031
-9.914
-9.92446
-9.93446
-9.94398
-9.95303
-9.96158
-9.96964
-9.61209
-9.61376
-9.61799
-9.62443
-9.63252
-9.64199
-9.65265
-9.66429
-9.67667
-9.68962
-9.70298
-9.71661
-9.73041
-9.74426
-9.7581
-9.77185
-9.78547
-9.79889
-9.81209
-9.82503
-9.83767
-9.84999
-9.86197
-9.87359
-9.88481
-9.89564
-9.90604
-9.916
-9.92552
-9.93458
-9.94317
-9.95129
-9.95895
-9.61639
-9.61797
-9.62196
-9.62804
-9.6357
-9.64469
-9.65483
-9.66592
-9.67776
-9.69017
-9.70298
-9.71608
-9.72935
-9.74269
-9.75602
-9.76927
-9.78239
-9.79533
-9.80803
-9.82048
-9.83263
-9.84447
-9.85596
-9.86708
-9.87782
-9.88816
-9.89809
-9.90758
-9.91664
-9.92525
-9.93341
-9.94112
-9.94838
-9.61998
-9.62148
-9.62525
-9.63101
-9.63828
-9.64683
-9.6565
-9.66711
-9.67845
-9.69035
-9.70266
-9.71526
-9.72804
-9.74089
-9.75374
-9.76652
-9.77916
-9.79162
-9.80385
-9.81583
-9.82751
-9.83887
-9.84989
-9.86055
-9.87082
-9.8807
-9.89017
-9.89921
-9.90783
-9.91602
-9.92376
-9.93107
-9.93795
-9.62284
-9.62427
-9.62784
-9.63331
-9.64023
-9.64839
-9.65764
-9.6678
-9.67869
-9.69014
-9.702
-9.71414
-9.72646
-9.73886
-9.75125
-9.76357
-9.77576
-9.78777
-9.79956
-9.81108
-9.82231
-9.83323
-9.8438
-9.854
-9.86383
-9.87327
-9.8823
-9.89092
-9.89912
-9.90689
-9.91424
-9.92117
-9.92768
-9.62496
-9.62631
-9.6297
-9.6349
-9.64151
-9.64932
-9.65821
-9.66799
-9.67848
-9.68952
-9.70096
-9.71269
-9.72459
-9.73657
-9.74854
-9.76044
-9.77221
-9.78379
-9.79515
-9.80625
-9.81705
-9.82753
-9.83768
-9.84746
-9.85686
-9.86588
-9.87449
-9.8827
-9.8905
-9.89789
-9.90486
-9.91143
-9.91758
-9.6263
-9.62758
-9.6308
-9.63576
-9.64209
-9.64961
-9.65817
-9.66762
-9.67777
-9.68845
-9.69954
-9.7109
-9.72242
-9.73402
-9.74561
-9.75712
-9.7685
-9.77969
-9.79065
-9.80134
-9.81174
-9.82182
-9.83156
-9.84094
-9.84994
-9.85856
-9.86679
-9.87461
-9.88203
-9.88905
-9.89566
-9.90187
-9.90769
-9.62683
-9.62805
-9.63111
-9.63584
-9.64193
-9.64919
-9.6575
-9.66667
-9.67653
-9.68692
-9.6977
-9.70874
-9.71994
-9.7312
-9.74245
-9.75361
-9.76462
-9.77545
-9.78603
-9.79636
-9.80638
-9.81608
-9.82544
-9.83444
-9.84306
-9.85131
-9.85916
-9.86662
-9.87368
-9.88035
-9.88662
-9.89249
-9.89798
-9.62655
-9.6277
-9.63059
-9.6351
-9.64097
-9.64803
-9.65613
-9.66509
-9.67473
-9.68489
-9.69542
-9.70621
-9.71714
-9.72811
-9.73906
-9.74992
-9.76062
-9.77112
-9.78138
-9.79136
-9.80104
-9.8104
-9.81941
-9.82806
-9.83634
-9.84424
-9.85175
-9.85887
-9.8656
-9.87193
-9.87788
-9.88344
-9.88861
-9.62541
-9.62648
-9.62917
-9.63345
-9.63914
-9.64606
-9.65403
-9.66285
-9.67234
-9.68234
-9.69269
-9.70327
-9.71398
-9.72471
-9.7354
-9.74598
-9.75639
-9.76659
-9.77654
-9.78621
-9.79557
-9.8046
-9.81329
-9.82161
-9.82956
-9.83713
-9.84432
-9.85112
-9.85753
-9.86356
-9.8692
-9.87446
-9.87935
-9.62342
-9.62437
-9.6268
-9.63082
-9.63636
-9.64321
-9.65112
-9.65988
-9.66932
-9.67925
-9.68953
-9.70002
-9.7106
-9.72119
-9.73171
-9.7421
-9.7523
-9.76227
-9.77198
-9.78139
-9.79048
-9.79924
-9.80764
-9.81568
-9.82334
-9.83062
-9.83751
-9.84402
-9.85014
-9.85587
-9.86122
-9.86619
-9.87078
-9.62059
-9.62135
-9.62338
-9.62707
-9.63252
-9.63941
-9.64737
-9.65615
-9.66557
-9.67546
-9.68564
-9.696
-9.70643
-9.71684
-9.72717
-9.73735
-9.74732
-9.75707
-9.76653
-9.7757
-9.78455
-9.79305
-9.80119
-9.80897
-9.81638
-9.8234
-9.83004
-9.83629
-9.84216
-9.84765
-9.85276
-9.85751
-9.86189
-9.61701
-9.61743
-9.61878
-9.62201
-9.62741
-9.63447
-9.64269
-9.65182
-9.66163
-9.67187
-9.68234
-9.69291
-9.70347
-9.71395
-9.72427
-9.73439
-9.74427
-9.75387
-9.76316
-9.77213
-9.78075
-9.78901
-9.7969
-9.80442
-9.81155
-9.8183
-9.82466
-9.83063
-9.83622
-9.84142
-9.84624
-9.85068
-9.85473
-9.61292
-9.61256
-9.61271
-9.61554
-9.62114
-9.62819
-9.63611
-9.6449
-9.65447
-9.66453
-9.67485
-9.68531
-9.69579
-9.70621
-9.71649
-9.72657
-9.73641
-9.74597
-9.75521
-9.76413
-9.7727
-9.7809
-9.78872
-9.79616
-9.80321
-9.80987
-9.81614
-9.82202
-9.82751
-9.83262
-9.83736
-9.84174
-9.84578
-9.60899
-9.6068
-9.60401
-9.60641
-9.61398
-9.62361
-9.63386
-9.64457
-9.6556
-9.66667
-9.67764
-9.68846
-9.69908
-9.70946
-9.71957
-9.72939
-9.73889
-9.74806
-9.75689
-9.76537
-9.77348
-9.78123
-9.78859
-9.79557
-9.80217
-9.80839
-9.81422
-9.81966
-9.82472
-9.8294
-9.8337
-9.83762
-9.84113
-9.60644
-9.60134
-9.59385
-9.59163
-9.59432
-9.59998
-9.60818
-9.61837
-9.62961
-9.64127
-9.65309
-9.66494
-9.67667
-9.68816
-9.69934
-9.71019
-9.72066
-9.73073
-9.7404
-9.74964
-9.75845
-9.76683
-9.77478
-9.7823
-9.78938
-9.79604
-9.80227
-9.80808
-9.81348
-9.81849
-9.82311
-9.82737
-9.8313
-9.60688
-9.58698
-9.58982
-9.60965
-9.62644
-9.63739
-9.64727
-9.65772
-9.66805
-9.67789
-9.68741
-9.69676
-9.70594
-9.71491
-9.72366
-9.73219
-9.74048
-9.74851
-9.75626
-9.76371
-9.77086
-9.7777
-9.78421
-9.79038
-9.79621
-9.80169
-9.80683
-9.81161
-9.81604
-9.82012
-9.82384
-9.82719
-9.83016
-9.64434
-9.5211
-9.45801
-9.46168
-9.48407
-9.50582
-9.52715
-9.54891
-9.57006
-9.58994
-9.60855
-9.62601
-9.64237
-9.65772
-9.67212
-9.68566
-9.69839
-9.71037
-9.72164
-9.73224
-9.74221
-9.75156
-9.76034
-9.76854
-9.77621
-9.78335
-9.78998
-9.79613
-9.8018
-9.80701
-9.81178
-9.81614
-9.8201
-9.80424
-9.8174
-9.77609
-9.73393
-9.70996
-9.69944
-9.69494
-9.69299
-9.69313
-9.69533
-9.69916
-9.70406
-9.70968
-9.7158
-9.72228
-9.72896
-9.73574
-9.74253
-9.74925
-9.75586
-9.76229
-9.76853
-9.77453
-9.78027
-9.78573
-9.79091
-9.79578
-9.80033
-9.80457
-9.80849
-9.81209
-9.81537
-9.81832
-8.63999
-8.94032
-9.20535
-9.33129
-9.39627
-9.45237
-9.5019
-9.54025
-9.56994
-9.59484
-9.61668
-9.63596
-9.65312
-9.66861
-9.6828
-9.69588
-9.70802
-9.7193
-9.72984
-9.73968
-9.74889
-9.7575
-9.76555
-9.77305
-9.78004
-9.78653
-9.79254
-9.79808
-9.80318
-9.80784
-9.81207
-9.81589
-9.81932
-10.2799
-10.1818
-10.2316
-10.2861
-10.3106
-10.3259
-10.337
-10.3418
-10.341
-10.3371
-10.3322
-10.3283
-10.3271
-10.33
-10.3382
-10.3523
-10.3725
-10.3988
-10.4304
-10.4666
-10.5063
-10.5482
-10.5912
-10.6338
-10.6751
-10.7138
-10.7489
-10.7795
-10.8046
-10.8234
-10.835
-10.8386
-10.8333
-10.8185
-10.7935
-10.7574
-10.7097
-10.6497
-10.5769
-10.4909
-10.3912
-10.2776
-10.1498
-10.0078
-9.85148
-9.68097
-9.49645
-9.29822
-9.0867
-8.86244
-8.62612
-8.37853
-8.1206
-7.85337
-7.57796
-7.29559
-7.00757
-6.71525
-6.42
-6.12323
-5.82633
-5.53069
-5.23761
-4.94838
-4.66417
-4.38606
-4.11506
-3.85203
-3.5977
-3.35272
-3.11757
-2.89262
-2.67813
-2.47425
-2.28103
-2.09842
-1.92631
-1.76449
-1.61269
-1.4706
-1.33783
-1.21398
-1.09862
-0.991298
-0.891566
-0.798968
-0.713058
-0.633396
-0.559559
-0.491138
-0.427728
-0.368962
-0.314396
-0.263794
-0.216321
-0.172578
-0.129289
-0.0927681
-0.0446642
-0.02989
-10.2766
-10.2711
-10.2993
-10.3189
-10.3146
-10.3049
-10.2972
-10.2903
-10.2837
-10.2786
-10.2756
-10.2755
-10.2791
-10.2871
-10.3001
-10.3184
-10.342
-10.3705
-10.4034
-10.4401
-10.4794
-10.5205
-10.5623
-10.6037
-10.6436
-10.6809
-10.7147
-10.744
-10.7679
-10.7854
-10.7958
-10.7982
-10.7919
-10.7762
-10.7502
-10.7134
-10.665
-10.6045
-10.5315
-10.4453
-10.3457
-10.2323
-10.1051
-9.96374
-9.80836
-9.63901
-9.45588
-9.25927
-9.0496
-8.8274
-8.59335
-8.34823
-8.09293
-7.82848
-7.55597
-7.27661
-6.99165
-6.70241
-6.41025
-6.11653
-5.82262
-5.52985
-5.23953
-4.95288
-4.67107
-4.39518
-4.12617
-3.8649
-3.61212
-3.36843
-3.13435
-2.91026
-2.6964
-2.49296
-2.29997
-2.11743
-1.94523
-1.78317
-1.63101
-1.48844
-1.3551
-1.2306
-1.11452
-1.00643
-0.905896
-0.812458
-0.725687
-0.645148
-0.570421
-0.501101
-0.436784
-0.377103
-0.321608
-0.270071
-0.221621
-0.176948
-0.132497
-0.0954218
-0.0447802
-0.0334583
-10.2349
-10.241
-10.2462
-10.259
-10.2663
-10.2705
-10.2745
-10.2769
-10.2766
-10.2744
-10.2716
-10.2697
-10.2701
-10.274
-10.2827
-10.2968
-10.3164
-10.3417
-10.3722
-10.407
-10.4451
-10.4855
-10.5268
-10.5678
-10.6072
-10.6438
-10.6768
-10.7051
-10.7278
-10.7441
-10.7533
-10.7545
-10.7471
-10.7303
-10.7035
-10.6659
-10.617
-10.5561
-10.4828
-10.3966
-10.2972
-10.1843
-10.0576
-9.91716
-9.76289
-9.5949
-9.41336
-9.21858
-9.01098
-8.79108
-8.55953
-8.3171
-8.06467
-7.80323
-7.53385
-7.2577
-6.97601
-6.69005
-6.40116
-6.11065
-5.81986
-5.5301
-5.24263
-4.95866
-4.67935
-4.40573
-4.13876
-3.8793
-3.62808
-3.38572
-3.15273
-2.92948
-2.71625
-2.51322
-2.32045
-2.13795
-1.96561
-1.80326
-1.65069
-1.50758
-1.37361
-1.24839
-1.13153
-1.02261
-0.921187
-0.826841
-0.739137
-0.65765
-0.581964
-0.511678
-0.446387
-0.385726
-0.329239
-0.276703
-0.227225
-0.181551
-0.135926
-0.0981438
-0.0451757
-0.0366718
-10.2079
-10.2247
-10.2359
-10.2531
-10.2655
-10.2705
-10.2721
-10.2716
-10.2692
-10.266
-10.2636
-10.2629
-10.265
-10.2706
-10.2804
-10.2947
-10.3136
-10.3368
-10.3641
-10.3949
-10.4285
-10.464
-10.5004
-10.5368
-10.5722
-10.6054
-10.6355
-10.6615
-10.6824
-10.6973
-10.7053
-10.7056
-10.6973
-10.6798
-10.6523
-10.6142
-10.5648
-10.5037
-10.4304
-10.3444
-10.2453
-10.133
-10.0071
-9.86776
-9.71481
-9.54838
-9.36865
-9.17592
-8.9706
-8.7532
-8.52436
-8.28483
-8.03547
-7.77723
-7.51115
-7.23838
-6.96011
-6.67759
-6.39209
-6.10492
-5.81737
-5.53072
-5.24621
-4.96503
-4.68829
-4.41703
-4.1522
-3.89462
-3.64504
-3.40406
-3.1722
-2.94985
-2.73728
-2.53469
-2.34216
-2.15969
-1.98721
-1.82457
-1.67155
-1.52788
-1.39323
-1.26726
-1.14957
-1.03975
-0.937395
-0.842078
-0.75338
-0.670882
-0.594174
-0.522857
-0.456529
-0.394826
-0.337288
-0.283692
-0.233132
-0.186391
-0.139574
-0.100948
-0.0458615
-0.0394856
-10.1884
-10.2077
-10.2201
-10.2334
-10.2432
-10.2477
-10.2499
-10.2512
-10.2516
-10.2515
-10.2517
-10.2531
-10.2566
-10.2629
-10.2727
-10.2863
-10.3041
-10.3259
-10.3516
-10.3804
-10.4119
-10.445
-10.4789
-10.5125
-10.5448
-10.5748
-10.6016
-10.6243
-10.642
-10.6538
-10.659
-10.6568
-10.6465
-10.6272
-10.5983
-10.5592
-10.5092
-10.4477
-10.3742
-10.2883
-10.1897
-10.0781
-9.95322
-9.81505
-9.66356
-9.49884
-9.32108
-9.13056
-8.92768
-8.71294
-8.48696
-8.25048
-8.00432
-7.74942
-7.48679
-7.21753
-6.94281
-6.66385
-6.38188
-6.09818
-5.814
-5.5306
-5.24918
-4.97092
-4.69689
-4.42813
-4.16555
-3.90998
-3.66216
-3.42269
-3.19207
-2.97072
-2.75891
-2.55684
-2.36461
-2.18224
-2.00967
-1.84677
-1.69333
-1.5491
-1.41379
-1.28704
-1.16849
-1.05776
-0.95443
-0.858102
-0.768363
-0.684804
-0.607021
-0.53462
-0.4672
-0.404396
-0.345752
-0.291039
-0.239348
-0.191476
-0.14345
-0.103842
-0.0468794
-0.0418312
-10.1707
-10.1901
-10.2037
-10.2162
-10.2265
-10.2331
-10.2373
-10.2401
-10.2417
-10.2426
-10.2436
-10.2456
-10.2495
-10.256
-10.2656
-10.2786
-10.2954
-10.3157
-10.3393
-10.3657
-10.3943
-10.4244
-10.455
-10.4853
-10.5144
-10.5413
-10.5652
-10.585
-10.6001
-10.6095
-10.6124
-10.608
-10.5957
-10.5747
-10.5443
-10.5038
-10.4527
-10.3904
-10.3164
-10.2304
-10.1319
-10.0207
-9.89665
-9.75956
-9.60945
-9.4464
-9.27058
-9.08227
-8.88186
-8.66983
-8.44679
-8.21342
-7.97056
-7.71909
-7.46001
-7.19438
-6.92333
-6.64805
-6.36975
-6.08965
-5.80899
-5.52898
-5.25081
-4.97561
-4.70445
-4.43832
-4.17814
-3.92473
-3.67881
-3.44097
-3.21173
-2.9915
-2.78056
-2.57912
-2.38729
-2.20511
-2.03254
-1.86944
-1.71564
-1.57091
-1.43496
-1.30747
-1.18809
-1.07644
-0.972134
-0.87478
-0.783979
-0.699329
-0.620436
-0.54691
-0.478354
-0.414406
-0.354607
-0.298728
-0.24586
-0.1968
-0.147553
-0.10683
-0.0482596
-0.0436517
-10.1549
-10.1737
-10.1879
-10.2002
-10.2105
-10.2178
-10.2227
-10.2262
-10.2287
-10.2307
-10.2329
-10.236
-10.2407
-10.2476
-10.2571
-10.2697
-10.2855
-10.3043
-10.326
-10.3502
-10.3762
-10.4035
-10.4311
-10.4583
-10.4843
-10.508
-10.5287
-10.5456
-10.5577
-10.5643
-10.5646
-10.5579
-10.5434
-10.5204
-10.4883
-10.4465
-10.3943
-10.3312
-10.2567
-10.1705
-10.0721
-9.96133
-9.83796
-9.7019
-9.55312
-9.3917
-9.21781
-9.0317
-8.83376
-8.62446
-8.40436
-8.17417
-7.93465
-7.68669
-7.43123
-7.16932
-6.90205
-6.63056
-6.35603
-6.07965
-5.80263
-5.52613
-5.25132
-4.9793
-4.71111
-4.44774
-4.19007
-3.93891
-3.69497
-3.45886
-3.23108
-3.01204
-2.80205
-2.60131
-2.40996
-2.22804
-2.05552
-1.89229
-1.73819
-1.59301
-1.45648
-1.32828
-1.2081
-1.09556
-0.9903
-0.891932
-0.800071
-0.714325
-0.634309
-0.559637
-0.48992
-0.424794
-0.363807
-0.306722
-0.252641
-0.202343
-0.151866
-0.109909
-0.0500083
-0.0449172
-10.14
-10.1579
-10.1724
-10.1845
-10.1948
-10.2027
-10.2084
-10.2128
-10.2163
-10.2193
-10.2224
-10.2263
-10.2315
-10.2386
-10.248
-10.26
-10.2747
-10.2922
-10.312
-10.334
-10.3576
-10.3821
-10.4069
-10.4311
-10.4539
-10.4746
-10.4923
-10.5061
-10.5154
-10.5193
-10.517
-10.5079
-10.4912
-10.4662
-10.4324
-10.3891
-10.3356
-10.2716
-10.1965
-10.11
-10.0116
-9.90115
-9.77843
-9.64334
-9.49585
-9.33603
-9.16404
-8.98014
-8.78468
-8.57812
-8.36101
-8.13402
-7.8979
-7.65349
-7.40173
-7.1436
-6.88017
-6.61254
-6.34186
-6.06927
-5.79594
-5.52302
-5.25162
-4.98283
-4.71766
-4.45707
-4.20195
-3.95307
-3.71115
-3.47679
-3.25049
-3.03267
-2.82364
-2.62362
-2.43275
-2.2511
-2.07865
-1.9153
-1.76092
-1.61531
-1.4782
-1.34933
-1.22836
-1.11495
-1.00875
-0.909385
-0.816475
-0.729641
-0.648503
-0.572683
-0.501794
-0.435476
-0.37328
-0.314964
-0.259644
-0.208073
-0.156358
-0.113069
-0.0521045
-0.0456338
-10.1258
-10.1428
-10.1571
-10.1692
-10.1795
-10.1878
-10.1942
-10.1993
-10.2036
-10.2074
-10.2113
-10.2158
-10.2214
-10.2287
-10.2378
-10.2493
-10.263
-10.279
-10.2971
-10.317
-10.3382
-10.3601
-10.3821
-10.4034
-10.4233
-10.441
-10.4557
-10.4667
-10.4732
-10.4744
-10.4696
-10.4582
-10.4393
-10.4124
-10.3769
-10.3321
-10.2775
-10.2126
-10.1369
-10.05
-9.9516
-9.84146
-9.71937
-9.58524
-9.43902
-9.28079
-9.1107
-8.92899
-8.736
-8.53218
-8.31806
-8.09428
-7.86156
-7.62072
-7.37264
-7.1183
-6.85871
-6.59494
-6.32809
-6.05929
-5.78965
-5.5203
-5.25231
-4.98673
-4.72458
-4.46678
-4.21418
-3.96759
-3.72768
-3.49506
-3.27024
-3.05363
-2.84555
-2.64625
-2.45586
-2.27447
-2.10208
-1.93861
-1.78394
-1.63788
-1.5002
-1.37063
-1.24887
-1.13459
-1.02744
-0.927068
-0.833105
-0.745178
-0.662915
-0.585942
-0.513876
-0.446358
-0.382942
-0.323381
-0.266808
-0.213938
-0.160986
-0.116286
-0.0544953
-0.0458491
-10.1121
-10.1283
-10.1423
-10.1543
-10.1645
-10.1731
-10.18
-10.1858
-10.1907
-10.1952
-10.1997
-10.2047
-10.2107
-10.2179
-10.2268
-10.2376
-10.2503
-10.265
-10.2814
-10.2992
-10.3181
-10.3375
-10.3568
-10.3753
-10.3923
-10.4071
-10.419
-10.4272
-10.431
-10.4296
-10.4224
-10.4087
-10.3878
-10.359
-10.3218
-10.2756
-10.2199
-10.1541
-10.0778
-9.99063
-9.89228
-9.78248
-9.66105
-9.52789
-9.38296
-9.22632
-9.05813
-8.87861
-8.68809
-8.487
-8.27586
-8.05526
-7.82592
-7.58862
-7.3442
-7.09362
-6.83783
-6.57789
-6.31485
-6.0498
-5.78382
-5.518
-5.25339
-4.99101
-4.73185
-4.47681
-4.22674
-3.98241
-3.7445
-3.51362
-3.29028
-3.07488
-2.86777
-2.66918
-2.47928
-2.29816
-2.12582
-1.96223
-1.80726
-1.66076
-1.52249
-1.39223
-1.26966
-1.15449
-1.04639
-0.944994
-0.849962
-0.760927
-0.677522
-0.59938
-0.526121
-0.457388
-0.392737
-0.331916
-0.274076
-0.219889
-0.165702
-0.119532
-0.0570977
-0.045652
-10.0987
-10.1142
-10.1278
-10.1396
-10.1499
-10.1586
-10.166
-10.1722
-10.1776
-10.1827
-10.1877
-10.1931
-10.1992
-10.2063
-10.2149
-10.225
-10.2367
-10.25
-10.2648
-10.2807
-10.2973
-10.3143
-10.331
-10.3468
-10.3611
-10.3731
-10.3822
-10.3877
-10.3888
-10.3849
-10.3754
-10.3594
-10.3365
-10.3059
-10.2671
-10.2196
-10.1627
-10.0961
-10.0193
-9.93187
-9.83358
-9.72414
-9.60339
-9.47121
-9.32757
-9.17254
-9.00624
-8.82891
-8.64085
-8.44247
-8.23427
-8.01684
-7.79085
-7.55704
-7.31626
-7.06939
-6.81737
-6.56122
-6.30195
-6.04061
-5.77825
-5.51594
-5.25468
-4.99548
-4.73928
-4.48699
-4.23943
-3.99736
-3.76146
-3.53232
-3.31045
-3.09628
-2.89013
-2.69227
-2.50287
-2.32202
-2.14977
-1.98606
-1.83081
-1.68387
-1.54503
-1.41407
-1.2907
-1.17465
-1.06558
-0.963157
-0.867046
-0.776889
-0.692327
-0.612999
-0.538529
-0.468561
-0.402656
-0.340555
-0.281431
-0.225905
-0.17048
-0.12279
-0.0598227
-0.0451693
-10.0858
-10.1005
-10.1136
-10.1252
-10.1354
-10.1443
-10.1519
-10.1585
-10.1644
-10.1698
-10.1752
-10.1808
-10.187
-10.194
-10.2022
-10.2116
-10.2223
-10.2343
-10.2474
-10.2614
-10.276
-10.2906
-10.3048
-10.318
-10.3296
-10.3389
-10.3453
-10.3482
-10.3468
-10.3404
-10.3285
-10.3104
-10.2855
-10.2532
-10.2128
-10.164
-10.1061
-10.0386
-9.96129
-9.87366
-9.77544
-9.66638
-9.54631
-9.41512
-9.27278
-9.11934
-8.95493
-8.77976
-8.59414
-8.39845
-8.19318
-7.97887
-7.75619
-7.52585
-7.28866
-7.04546
-6.79718
-6.54477
-6.28923
-6.03156
-5.7728
-5.51396
-5.25603
-4.99998
-4.74674
-4.49719
-4.25213
-4.01231
-3.77841
-3.55102
-3.33063
-3.11769
-2.91252
-2.7154
-2.52651
-2.34595
-2.17379
-2.00999
-1.85447
-1.7071
-1.5677
-1.43606
-1.31191
-1.19497
-1.08494
-0.981497
-0.884308
-0.793027
-0.707303
-0.626781
-0.551089
-0.479873
-0.412699
-0.349301
-0.288877
-0.231991
-0.175322
-0.126072
-0.0626027
-0.0445521
-10.0731
-10.0871
-10.0998
-10.1111
-10.1212
-10.1301
-10.1379
-10.1448
-10.1509
-10.1567
-10.1623
-10.168
-10.1742
-10.181
-10.1887
-10.1974
-10.2071
-10.2178
-10.2294
-10.2416
-10.254
-10.2664
-10.2782
-10.2889
-10.2979
-10.3046
-10.3084
-10.3087
-10.3048
-10.2961
-10.282
-10.2618
-10.2349
-10.2008
-10.159
-10.1088
-10.0499
-9.98169
-9.90385
-9.81601
-9.71787
-9.6092
-9.48981
-9.3596
-9.21855
-9.06669
-8.90414
-8.73112
-8.54791
-8.35489
-8.1525
-7.94129
-7.72188
-7.49497
-7.26132
-7.02175
-6.77716
-6.52845
-6.27661
-6.02259
-5.76738
-5.51198
-5.25735
-5.00444
-4.75414
-4.5073
-4.26474
-4.02718
-3.79528
-3.56963
-3.35074
-3.13903
-2.93486
-2.73849
-2.55012
-2.36987
-2.19781
-2.03393
-1.87815
-1.73038
-1.59043
-1.45812
-1.33319
-1.21538
-1.1044
-0.999942
-0.90168
-0.809279
-0.722394
-0.640676
-0.563759
-0.49129
-0.422841
-0.358137
-0.296405
-0.238147
-0.180227
-0.12939
-0.0653932
-0.0439417
-10.0606
-10.074
-10.0862
-10.0973
-10.1072
-10.1161
-10.1239
-10.131
-10.1373
-10.1433
-10.149
-10.1548
-10.1608
-10.1674
-10.1746
-10.1825
-10.1912
-10.2006
-10.2107
-10.2211
-10.2316
-10.2418
-10.2513
-10.2595
-10.266
-10.2702
-10.2715
-10.2693
-10.263
-10.252
-10.2357
-10.2134
-10.1847
-10.1489
-10.1056
-10.0542
-9.99425
-9.92531
-9.84699
-9.75895
-9.6609
-9.5526
-9.43389
-9.30466
-9.16488
-9.01458
-8.85389
-8.68299
-8.50216
-8.31176
-8.11222
-7.90407
-7.68789
-7.46436
-7.2342
-6.99823
-6.75728
-6.51224
-6.26404
-6.01363
-5.76195
-5.50996
-5.25861
-5.0088
-4.76142
-4.5173
-4.27722
-4.04191
-3.81201
-3.58811
-3.37072
-3.16026
-2.95708
-2.76148
-2.57364
-2.39372
-2.22178
-2.05783
-1.90182
-1.75365
-1.61317
-1.48019
-1.35449
-1.23582
-1.1239
-1.01844
-0.919106
-0.825588
-0.737545
-0.654633
-0.576491
-0.502768
-0.433042
-0.36703
-0.303986
-0.244352
-0.185177
-0.132744
-0.0681539
-0.0434347
-10.0484
-10.0611
-10.0729
-10.0836
-10.0934
-10.1021
-10.11
-10.1171
-10.1235
-10.1296
-10.1353
-10.1411
-10.1469
-10.1531
-10.1598
-10.1669
-10.1746
-10.1828
-10.1913
-10.2
-10.2086
-10.2167
-10.224
-10.2299
-10.2341
-10.2358
-10.2347
-10.2301
-10.2214
-10.2082
-10.1897
-10.1655
-10.1349
-10.0975
-10.0527
-10.0001
-9.93919
-9.86952
-9.79074
-9.70251
-9.60455
-9.49664
-9.3786
-9.25034
-9.11181
-8.96306
-8.80418
-8.63537
-8.45689
-8.26908
-8.07235
-7.86721
-7.65421
-7.43401
-7.20732
-6.97488
-6.73752
-6.49611
-6.25152
-6.00467
-5.75648
-5.50787
-5.25976
-5.01304
-4.76856
-4.52714
-4.28954
-4.05647
-3.82857
-3.60642
-3.39053
-3.18132
-2.97916
-2.78433
-2.59705
-2.41747
-2.24566
-2.08165
-1.92542
-1.77686
-1.63586
-1.50224
-1.37579
-1.25627
-1.14341
-1.03694
-0.936548
-0.841916
-0.752717
-0.668613
-0.589246
-0.514269
-0.443264
-0.375942
-0.311585
-0.250575
-0.190141
-0.136116
-0.0708461
-0.0430766
-10.0363
-10.0485
-10.0598
-10.0702
-10.0797
-10.0883
-10.0961
-10.1032
-10.1096
-10.1156
-10.1214
-10.127
-10.1326
-10.1383
-10.1444
-10.1507
-10.1574
-10.1644
-10.1715
-10.1785
-10.1853
-10.1914
-10.1965
-10.2002
-10.202
-10.2014
-10.1979
-10.191
-10.1801
-10.1646
-10.1441
-10.1179
-10.0856
-10.0466
-10.0005
-9.94665
-9.88476
-9.81439
-9.73516
-9.64675
-9.54889
-9.44135
-9.32398
-9.19667
-9.05938
-8.91214
-8.75506
-8.58831
-8.41214
-8.22687
-8.03291
-7.83072
-7.62087
-7.40395
-7.18065
-6.95171
-6.7179
-6.48005
-6.23902
-5.99569
-5.75095
-5.5057
-5.2608
-5.01714
-4.77554
-4.53679
-4.30166
-4.07082
-3.84492
-3.62453
-3.41014
-3.2022
-3.00106
-2.80702
-2.6203
-2.44107
-2.26941
-2.10537
-1.94892
-1.8
-1.65849
-1.52423
-1.39704
-1.27667
-1.16289
-1.05543
-0.953975
-0.858235
-0.767883
-0.682587
-0.601996
-0.525764
-0.453481
-0.38485
-0.319179
-0.256792
-0.195091
-0.139489
-0.0734412
-0.0428779
-10.0245
-10.0361
-10.0469
-10.0569
-10.0661
-10.0746
-10.0822
-10.0892
-10.0956
-10.1015
-10.1071
-10.1125
-10.1177
-10.1231
-10.1285
-10.134
-10.1397
-10.1454
-10.1511
-10.1566
-10.1615
-10.1657
-10.1688
-10.1703
-10.1699
-10.167
-10.1613
-10.1521
-10.139
-10.1215
-10.0989
-10.0709
-10.0369
-9.99631
-9.94879
-9.89383
-9.83102
-9.75996
-9.6803
-9.59172
-9.49396
-9.3868
-9.27008
-9.1437
-9.00763
-8.86188
-8.70656
-8.54183
-8.36793
-8.18517
-7.99392
-7.79465
-7.58788
-7.37419
-7.15424
-6.92873
-6.69841
-6.46408
-6.22657
-5.98671
-5.74538
-5.50342
-5.26171
-5.02108
-4.78233
-4.54625
-4.31356
-4.08495
-3.86104
-3.6424
-3.42953
-3.22285
-3.02275
-2.8295
-2.64336
-2.46449
-2.293
-2.12893
-1.97229
-1.82302
-1.68102
-1.54614
-1.41821
-1.29702
-1.18232
-1.07386
-0.971363
-0.874519
-0.783018
-0.696534
-0.614721
-0.537236
-0.463674
-0.393734
-0.326748
-0.262987
-0.200011
-0.14285
-0.0759282
-0.0428319
-10.0128
-10.0238
-10.0342
-10.0438
-10.0527
-10.0609
-10.0684
-10.0752
-10.0814
-10.0872
-10.0925
-10.0976
-10.1025
-10.1073
-10.1121
-10.1168
-10.1215
-10.126
-10.1303
-10.1342
-10.1375
-10.1398
-10.1409
-10.1403
-10.1378
-10.1328
-10.1248
-10.1135
-10.0983
-10.0787
-10.0543
-10.0244
-9.98869
-9.94665
-9.8978
-9.84173
-9.77803
-9.7063
-9.62622
-9.53748
-9.43981
-9.33302
-9.21695
-9.09149
-8.95661
-8.81233
-8.65874
-8.49599
-8.32432
-8.14401
-7.95543
-7.75902
-7.55527
-7.34476
-7.12809
-6.90596
-6.67908
-6.44821
-6.21415
-5.97772
-5.73974
-5.50106
-5.26249
-5.02485
-4.78893
-4.55548
-4.32523
-4.09883
-3.87691
-3.66001
-3.44865
-3.24325
-3.04418
-2.85175
-2.6662
-2.4877
-2.31639
-2.15231
-1.99549
-1.84588
-1.7034
-1.56792
-1.43927
-1.31726
-1.20166
-1.09223
-0.988684
-0.890744
-0.7981
-0.710433
-0.627402
-0.548666
-0.473827
-0.40258
-0.33428
-0.26915
-0.20489
-0.146193
-0.0783088
-0.0429223
-10.0012
-10.0118
-10.0217
-10.0309
-10.0394
-10.0473
-10.0545
-10.0611
-10.0672
-10.0727
-10.0778
-10.0825
-10.087
-10.0913
-10.0953
-10.0992
-10.1029
-10.1062
-10.1092
-10.1116
-10.1132
-10.1137
-10.1129
-10.1104
-10.1058
-10.0987
-10.0886
-10.0752
-10.058
-10.0364
-10.0101
-9.9785
-9.94118
-9.89768
-9.84756
-9.79042
-9.72584
-9.65348
-9.57299
-9.48409
-9.38653
-9.28011
-9.16467
-9.04011
-8.9064
-8.76355
-8.61165
-8.45084
-8.28135
-8.10344
-7.91748
-7.72387
-7.52309
-7.31569
-7.10225
-6.88343
-6.65992
-6.43245
-6.2018
-5.96873
-5.73407
-5.4986
-5.26313
-5.02845
-4.79532
-4.56449
-4.33664
-4.11244
-3.89249
-3.67734
-3.46748
-3.26336
-3.06533
-2.87372
-2.68876
-2.51066
-2.33954
-2.17547
-2.01849
-1.86856
-1.72561
-1.58954
-1.46019
-1.33737
-1.22089
-1.11048
-1.00591
-0.906883
-0.813104
-0.72426
-0.640017
-0.560036
-0.483925
-0.411375
-0.341764
-0.27527
-0.20972
-0.149511
-0.080592
-0.0431282
-9.98977
-9.99982
-10.0093
-10.0181
-10.0263
-10.0338
-10.0408
-10.0471
-10.0528
-10.0581
-10.0628
-10.0672
-10.0712
-10.0748
-10.0782
-10.0812
-10.0839
-10.0861
-10.0877
-10.0887
-10.0887
-10.0875