/*--------------------------------*- C++ -*----------------------------------*\
| =========                 |                                                 |
| \\      /  F ield         | OpenFOAM: The Open Source CFD Toolbox           |
|  \\    /   O peration     | Version:  4.1                                   |
|   \\  /    A nd           | Web:      www.OpenFOAM.org                      |
|    \\/     M anipulation  |                                                 |
\*---------------------------------------------------------------------------*/
FoamFile
{
    version     2.0;
    format      ascii;
    class       surfaceScalarField;
    location    "500";
    object      phi;
}
// * * * * * * * * * * * * * * * * * * * * * * * * * * * * * * * * * * * * * //

dimensions      [0 3 -1 0 0 0 0];

internalField   nonuniform List<scalar> 
13452
(
6.0292e-05
-2.35469e-08
5.98975e-05
3.94465e-07
5.93096e-05
5.87967e-07
5.85579e-05
7.51663e-07
5.76907e-05
8.67227e-07
5.67838e-05
9.06881e-07
5.58834e-05
9.00364e-07
5.501e-05
8.73446e-07
5.41737e-05
8.36287e-07
5.33807e-05
7.93057e-07
5.26341e-05
7.46592e-07
5.19351e-05
6.98969e-07
5.12835e-05
6.5157e-07
5.06782e-05
6.05301e-07
5.01174e-05
5.60773e-07
4.95991e-05
5.18381e-07
4.91207e-05
4.78356e-07
4.86799e-05
4.40797e-07
4.82742e-05
4.05713e-07
4.79012e-05
3.73038e-07
4.75585e-05
3.4266e-07
4.72441e-05
3.14432e-07
4.69559e-05
2.88177e-07
4.66922e-05
2.63704e-07
4.64514e-05
2.40801e-07
4.62322e-05
2.19238e-07
4.60334e-05
1.98788e-07
4.58543e-05
1.79111e-07
4.56939e-05
1.60305e-07
4.55529e-05
1.41081e-07
4.54271e-05
1.25807e-07
4.53152e-05
1.11842e-07
9.69826e-08
4.52182e-05
6.22178e-05
-2.50968e-07
6.23093e-05
3.02881e-07
6.24257e-05
4.71616e-07
6.25748e-05
6.02577e-07
6.27368e-05
7.05201e-07
6.2882e-05
7.61708e-07
6.29926e-05
7.89721e-07
6.30622e-05
8.03858e-07
6.30904e-05
8.08067e-07
6.308e-05
8.03488e-07
6.30349e-05
7.91691e-07
6.29595e-05
7.74357e-07
6.28582e-05
7.52872e-07
6.27352e-05
7.28346e-07
6.25942e-05
7.01705e-07
6.24389e-05
6.73718e-07
6.22722e-05
6.45003e-07
6.2097e-05
6.1604e-07
6.19155e-05
5.87191e-07
6.17298e-05
5.58717e-07
6.15417e-05
5.30792e-07
6.13526e-05
5.03523e-07
6.11638e-05
4.76954e-07
6.09765e-05
4.51073e-07
6.07915e-05
4.25827e-07
6.06096e-05
4.01103e-07
6.04316e-05
3.76774e-07
6.02582e-05
3.52547e-07
6.009e-05
3.28455e-07
5.99278e-05
3.0325e-07
5.97746e-05
2.79095e-07
5.96398e-05
2.46606e-07
2.14845e-07
5.95219e-05
6.36312e-05
-1.2075e-07
6.36862e-05
2.47917e-07
6.3757e-05
4.00817e-07
6.38541e-05
5.05478e-07
6.39621e-05
5.97106e-07
6.40655e-05
6.58387e-07
6.41601e-05
6.95095e-07
6.42461e-05
7.17818e-07
6.43236e-05
7.30645e-07
6.43922e-05
7.34886e-07
6.44519e-05
7.31965e-07
6.45028e-05
7.23413e-07
6.45452e-05
7.10491e-07
6.45794e-05
6.94194e-07
6.46057e-05
6.75347e-07
6.46248e-05
6.54646e-07
6.46371e-05
6.3266e-07
6.46433e-05
6.09842e-07
6.4644e-05
5.86544e-07
6.46397e-05
5.63028e-07
6.4631e-05
5.3948e-07
6.46185e-05
5.16022e-07
6.46027e-05
4.92716e-07
6.45842e-05
4.69568e-07
6.45635e-05
4.46538e-07
6.45411e-05
4.23523e-07
6.45175e-05
4.00382e-07
6.44932e-05
3.76833e-07
6.4469e-05
3.52681e-07
6.44453e-05
3.26963e-07
6.44246e-05
2.99722e-07
6.44052e-05
2.65999e-07
2.2958e-07
6.43905e-05
6.54961e-05
-3.37286e-08
6.55391e-05
2.04901e-07
6.55809e-05
3.58974e-07
6.56298e-05
4.56625e-07
6.5686e-05
5.40905e-07
6.57429e-05
6.0147e-07
6.57988e-05
6.39166e-07
6.58539e-05
6.62772e-07
6.59076e-05
6.76892e-07
6.59595e-05
6.83031e-07
6.6009e-05
6.82441e-07
6.60559e-05
6.76487e-07
6.61001e-05
6.66329e-07
6.61414e-05
6.52874e-07
6.61799e-05
6.36876e-07
6.62155e-05
6.18966e-07
6.62485e-05
5.99667e-07
6.6279e-05
5.79392e-07
6.63071e-05
5.58465e-07
6.6333e-05
5.37127e-07
6.63569e-05
5.15548e-07
6.63791e-05
4.93839e-07
6.63997e-05
4.72051e-07
6.64191e-05
4.50186e-07
6.64375e-05
4.28192e-07
6.6455e-05
4.05961e-07
6.64721e-05
3.83331e-07
6.64889e-05
3.60022e-07
6.65058e-05
3.3573e-07
6.65231e-05
3.09684e-07
6.65414e-05
2.81456e-07
6.6559e-05
2.48426e-07
2.11668e-07
6.65769e-05
6.74175e-05
5.53176e-09
6.74377e-05
1.84681e-07
6.74637e-05
3.32987e-07
6.74953e-05
4.25068e-07
6.75353e-05
5.00864e-07
6.75787e-05
5.58096e-07
6.76225e-05
5.95338e-07
6.76663e-05
6.19046e-07
6.77096e-05
6.33559e-07
6.77522e-05
6.40458e-07
6.77937e-05
6.40912e-07
6.7834e-05
6.36191e-07
6.78729e-05
6.2739e-07
6.79104e-05
6.15369e-07
6.79465e-05
6.00832e-07
6.79811e-05
5.84373e-07
6.80143e-05
5.66478e-07
6.80461e-05
5.47534e-07
6.80767e-05
5.27844e-07
6.81062e-05
5.0763e-07
6.81347e-05
4.87053e-07
6.81624e-05
4.66211e-07
6.81893e-05
4.45148e-07
6.82156e-05
4.23859e-07
6.82415e-05
4.02287e-07
6.82671e-05
3.8032e-07
6.82927e-05
3.57789e-07
6.83183e-05
3.34431e-07
6.83441e-05
3.09922e-07
6.83701e-05
2.83678e-07
6.83963e-05
2.55211e-07
6.84216e-05
2.23129e-07
1.87862e-07
6.84454e-05
6.9364e-05
2.55297e-08
6.93757e-05
1.73005e-07
6.94e-05
3.0867e-07
6.94282e-05
3.96861e-07
6.94623e-05
4.66744e-07
6.94994e-05
5.21013e-07
6.95371e-05
5.57711e-07
6.95747e-05
5.81372e-07
6.96123e-05
5.95967e-07
6.96496e-05
6.03192e-07
6.96863e-05
6.04206e-07
6.97223e-05
6.00203e-07
6.97575e-05
5.92223e-07
6.97917e-05
5.81086e-07
6.98251e-05
5.67463e-07
6.98576e-05
5.51913e-07
6.98891e-05
5.34896e-07
6.99199e-05
5.16779e-07
6.99499e-05
4.97846e-07
6.99792e-05
4.78309e-07
7.0008e-05
4.58317e-07
7.00362e-05
4.37961e-07
7.00641e-05
4.17281e-07
7.00917e-05
3.96268e-07
7.01191e-05
3.74867e-07
7.01464e-05
3.52967e-07
7.01738e-05
3.3041e-07
7.02013e-05
3.06963e-07
7.02289e-05
2.82336e-07
7.02564e-05
2.56102e-07
7.02838e-05
2.27878e-07
7.03099e-05
1.96963e-07
1.63637e-07
7.03342e-05
7.13552e-05
3.67102e-08
7.13652e-05
1.63e-07
7.13891e-05
2.8475e-07
7.14162e-05
3.69744e-07
7.14474e-05
4.3558e-07
7.14812e-05
4.87178e-07
7.15157e-05
5.23168e-07
7.15504e-05
5.467e-07
7.15851e-05
5.61296e-07
7.16195e-05
5.68727e-07
7.16536e-05
5.70145e-07
7.16871e-05
5.66675e-07
7.17201e-05
5.59308e-07
7.17523e-05
5.48833e-07
7.17839e-05
5.35892e-07
7.18148e-05
5.21017e-07
7.1845e-05
5.04648e-07
7.18747e-05
4.87134e-07
7.19038e-05
4.68745e-07
7.19324e-05
4.49683e-07
7.19606e-05
4.3009e-07
7.19885e-05
4.10054e-07
7.20162e-05
3.89612e-07
7.20437e-05
3.68759e-07
7.20711e-05
3.47442e-07
7.20985e-05
3.25566e-07
7.21259e-05
3.02989e-07
7.21534e-05
2.79522e-07
7.21808e-05
2.54932e-07
7.2208e-05
2.28927e-07
7.22346e-05
2.01259e-07
7.22599e-05
1.71615e-07
1.40263e-07
7.22833e-05
7.33998e-05
4.21404e-08
7.34094e-05
1.53454e-07
7.34317e-05
2.62415e-07
7.34579e-05
3.43582e-07
7.34875e-05
4.05978e-07
7.35197e-05
4.54967e-07
7.35528e-05
4.90068e-07
7.35861e-05
5.13432e-07
7.36193e-05
5.28046e-07
7.36524e-05
5.35674e-07
7.36851e-05
5.3746e-07
7.37173e-05
5.34468e-07
7.37489e-05
5.27642e-07
7.378e-05
5.17743e-07
7.38105e-05
5.05389e-07
7.38404e-05
4.91092e-07
7.38698e-05
4.7527e-07
7.38987e-05
4.5826e-07
7.39271e-05
4.40321e-07
7.39552e-05
4.21649e-07
7.39829e-05
4.0238e-07
7.40103e-05
3.82601e-07
7.40376e-05
3.62353e-07
7.40647e-05
3.41633e-07
7.40917e-05
3.20402e-07
7.41187e-05
2.9858e-07
7.41457e-05
2.76054e-07
7.41725e-05
2.5268e-07
7.41991e-05
2.2829e-07
7.42254e-05
2.02703e-07
7.42508e-05
1.75786e-07
7.4275e-05
1.47443e-07
1.17945e-07
7.42973e-05
7.55007e-05
4.38652e-08
7.55101e-05
1.44136e-07
7.55306e-05
2.41835e-07
7.55558e-05
3.18386e-07
7.55843e-05
3.77486e-07
7.56154e-05
4.23894e-07
7.56476e-05
4.57877e-07
7.56801e-05
4.80938e-07
7.57126e-05
4.95519e-07
7.5745e-05
5.03311e-07
7.5777e-05
5.05434e-07
7.58086e-05
5.02892e-07
7.58396e-05
4.96577e-07
7.58702e-05
4.87221e-07
7.59001e-05
4.75417e-07
7.59296e-05
4.61658e-07
7.59585e-05
4.46347e-07
7.59869e-05
4.29806e-07
7.6015e-05
4.12287e-07
7.60427e-05
3.9398e-07
7.607e-05
3.7502e-07
7.60971e-05
3.55496e-07
7.6124e-05
3.3545e-07
7.61508e-05
3.14892e-07
7.61774e-05
2.93794e-07
7.62038e-05
2.72099e-07
7.62302e-05
2.49725e-07
7.62563e-05
2.26573e-07
7.6282e-05
2.02536e-07
7.63072e-05
1.77517e-07
7.63315e-05
1.51475e-07
7.63546e-05
1.24428e-07
9.66457e-08
7.63758e-05
7.766e-05
4.33976e-08
7.76693e-05
1.34868e-07
7.76884e-05
2.22768e-07
7.77125e-05
2.9424e-07
7.774e-05
3.50041e-07
7.777e-05
3.93875e-07
7.78014e-05
4.26496e-07
7.78333e-05
4.49039e-07
7.78653e-05
4.63466e-07
7.78973e-05
4.71336e-07
7.7929e-05
4.73733e-07
7.79603e-05
4.71593e-07
7.79911e-05
4.65754e-07
7.80214e-05
4.56912e-07
7.80512e-05
4.45637e-07
7.80805e-05
4.32399e-07
7.81092e-05
4.17586e-07
7.81375e-05
4.01508e-07
7.81654e-05
3.84409e-07
7.81929e-05
3.66476e-07
7.82201e-05
3.47843e-07
7.8247e-05
3.286e-07
7.82736e-05
3.088e-07
7.83001e-05
2.88459e-07
7.83263e-05
2.67568e-07
7.83523e-05
2.46093e-07
7.8378e-05
2.23983e-07
7.84034e-05
2.01179e-07
7.84283e-05
1.77629e-07
7.84526e-05
1.53298e-07
7.84758e-05
1.28207e-07
7.84978e-05
1.02435e-07
7.62378e-08
7.85182e-05
7.988e-05
4.16866e-08
7.98893e-05
1.25596e-07
7.99071e-05
2.04971e-07
7.99301e-05
2.71204e-07
7.99565e-05
3.23632e-07
7.99855e-05
3.6488e-07
8.00161e-05
3.95934e-07
8.00474e-05
4.17735e-07
8.0079e-05
4.31852e-07
8.01107e-05
4.39684e-07
8.01421e-05
4.42259e-07
8.01733e-05
4.40447e-07
8.0204e-05
4.35029e-07
8.02343e-05
4.26661e-07
8.0264e-05
4.15885e-07
8.02933e-05
4.03149e-07
8.0322e-05
3.88825e-07
8.03503e-05
3.73211e-07
8.03782e-05
3.56544e-07
8.04057e-05
3.39005e-07
8.04328e-05
3.2073e-07
8.04596e-05
3.01812e-07
8.0486e-05
2.82312e-07
8.05122e-05
2.62259e-07
8.05382e-05
2.4166e-07
8.05637e-05
2.20503e-07
8.0589e-05
1.98766e-07
8.06137e-05
1.76429e-07
8.06379e-05
1.53478e-07
8.06612e-05
1.29927e-07
8.06836e-05
1.05833e-07
8.07047e-05
8.13077e-08
5.65844e-08
8.07244e-05
8.21628e-05
3.9298e-08
8.21721e-05
1.16363e-07
8.21888e-05
1.88247e-07
8.22107e-05
2.49267e-07
8.22361e-05
2.98236e-07
8.22641e-05
3.36875e-07
8.22939e-05
3.66208e-07
8.23245e-05
3.87068e-07
8.23557e-05
4.00717e-07
8.2387e-05
4.08384e-07
8.24182e-05
4.11026e-07
8.24492e-05
4.09453e-07
8.24798e-05
4.04384e-07
8.25101e-05
3.96436e-07
8.25398e-05
3.86119e-07
8.25691e-05
3.7386e-07
8.25979e-05
3.60011e-07
8.26263e-05
3.44859e-07
8.26542e-05
3.28633e-07
8.26817e-05
3.11511e-07
8.27088e-05
2.93628e-07
8.27355e-05
2.75083e-07
8.27619e-05
2.55943e-07
8.27879e-05
2.36249e-07
8.28135e-05
2.16025e-07
8.28387e-05
1.9528e-07
8.28635e-05
1.74019e-07
8.28877e-05
1.52248e-07
8.29112e-05
1.29988e-07
8.29338e-05
1.07284e-07
8.29554e-05
8.42155e-08
8.29758e-05
6.09051e-08
3.75629e-08
8.29948e-05
8.45105e-05
3.65689e-08
8.45196e-05
1.0724e-07
8.45354e-05
1.72431e-07
8.45563e-05
2.28372e-07
8.45808e-05
2.73819e-07
8.46078e-05
3.09825e-07
8.46367e-05
3.37323e-07
8.46667e-05
3.57073e-07
8.46973e-05
3.70104e-07
8.47282e-05
3.77479e-07
8.47591e-05
3.80079e-07
8.47899e-05
3.78651e-07
8.48205e-05
3.73856e-07
8.48506e-05
3.66266e-07
8.48804e-05
3.56362e-07
8.49097e-05
3.44548e-07
8.49386e-05
3.31156e-07
8.4967e-05
3.16461e-07
8.49949e-05
3.00683e-07
8.50224e-05
2.83998e-07
8.50495e-05
2.6654e-07
8.50762e-05
2.48412e-07
8.51025e-05
2.29688e-07
8.51283e-05
2.10421e-07
8.51537e-05
1.9065e-07
8.51785e-05
1.70402e-07
8.52028e-05
1.49703e-07
8.52265e-05
1.28583e-07
8.52494e-05
1.07085e-07
8.52714e-05
8.52746e-08
8.52924e-05
6.32441e-08
8.53122e-05
4.11157e-08
1.90767e-08
8.53307e-05
8.6925e-05
3.36978e-08
8.6934e-05
9.82927e-08
8.6949e-05
1.57395e-07
8.69689e-05
2.08446e-07
8.69924e-05
2.50344e-07
8.70186e-05
2.83687e-07
8.70466e-05
3.09265e-07
8.70759e-05
3.27765e-07
8.7106e-05
3.40042e-07
8.71365e-05
3.4701e-07
8.71671e-05
3.49463e-07
8.71976e-05
3.48088e-07
8.7228e-05
3.4349e-07
8.72581e-05
3.36197e-07
8.72878e-05
3.2666e-07
8.73171e-05
3.15256e-07
8.73459e-05
3.02301e-07
8.73743e-05
2.88055e-07
8.74023e-05
2.72731e-07
8.74298e-05
2.565e-07
8.74568e-05
2.39497e-07
8.74834e-05
2.21827e-07
8.75095e-05
2.03571e-07
8.75351e-05
1.84793e-07
8.75603e-05
1.65543e-07
8.75848e-05
1.45865e-07
8.76087e-05
1.258e-07
8.76319e-05
1.05397e-07
8.76542e-05
8.47151e-08
8.76757e-05
6.38296e-08
8.76961e-05
4.28388e-08
8.77154e-05
2.18593e-08
1.05683e-09
8.77334e-05
8.94084e-05
3.0798e-08
8.94172e-05
8.95714e-08
8.94315e-05
1.43042e-07
8.94505e-05
1.89407e-07
8.94731e-05
2.27761e-07
8.94984e-05
2.58419e-07
8.95257e-05
2.82009e-07
8.95543e-05
2.99146e-07
8.95838e-05
3.10551e-07
8.96138e-05
3.17002e-07
8.9644e-05
3.19213e-07
8.96743e-05
3.17804e-07
8.97045e-05
3.13331e-07
8.97344e-05
3.06277e-07
8.9764e-05
2.97061e-07
8.97932e-05
2.86035e-07
8.9822e-05
2.73496e-07
8.98504e-05
2.59692e-07
8.98783e-05
2.44827e-07
8.99057e-05
2.29067e-07
8.99327e-05
2.12545e-07
8.99591e-05
1.95371e-07
8.99851e-05
1.7763e-07
9.00105e-05
1.59395e-07
9.00353e-05
1.40725e-07
9.00595e-05
1.21678e-07
9.0083e-05
1.02306e-07
9.01057e-05
8.26718e-08
9.01276e-05
6.28428e-08
9.01485e-05
4.29012e-08
9.01684e-05
2.29444e-08
9.01872e-05
3.08118e-09
-1.65424e-08
9.02048e-05
9.19627e-05
2.79319e-08
9.19712e-05
8.11068e-08
9.19849e-05
1.293e-07
9.20032e-05
1.71176e-07
9.20249e-05
2.06019e-07
9.20494e-05
2.33973e-07
9.20758e-05
2.55525e-07
9.21038e-05
2.71208e-07
9.21327e-05
2.81635e-07
9.21622e-05
2.87474e-07
9.21921e-05
2.89352e-07
9.22221e-05
2.87832e-07
9.2252e-05
2.83416e-07
9.22817e-05
2.76546e-07
9.23112e-05
2.67608e-07
9.23403e-05
2.5693e-07
9.2369e-05
2.4479e-07
9.23972e-05
2.31421e-07
9.2425e-05
2.17019e-07
9.24524e-05
2.01745e-07
9.24792e-05
1.8573e-07
9.25055e-05
1.69086e-07
9.25312e-05
1.51902e-07
9.25563e-05
1.34257e-07
9.25808e-05
1.16219e-07
9.26047e-05
9.78524e-08
9.26277e-05
7.92216e-08
9.265e-05
6.03942e-08
9.26714e-05
4.14447e-08
9.26919e-05
2.24565e-08
9.27113e-05
3.52342e-09
9.27296e-05
-1.52548e-08
-3.37498e-08
9.27468e-05
9.459e-05
2.5132e-08
9.45981e-05
7.29143e-08
9.46113e-05
1.16109e-07
9.46288e-05
1.53679e-07
9.46498e-05
1.85061e-07
9.46735e-05
2.10304e-07
9.46992e-05
2.29775e-07
9.47265e-05
2.4393e-07
9.47548e-05
2.53293e-07
9.47839e-05
2.58432e-07
9.48133e-05
2.59898e-07
9.4843e-05
2.58194e-07
9.48726e-05
2.53773e-07
9.49021e-05
2.47037e-07
9.49314e-05
2.38339e-07
9.49603e-05
2.27981e-07
9.49889e-05
2.16223e-07
9.5017e-05
2.03285e-07
9.50447e-05
1.89351e-07
9.50719e-05
1.74578e-07
9.50985e-05
1.59095e-07
9.51246e-05
1.43011e-07
9.51501e-05
1.26421e-07
9.51749e-05
1.09408e-07
9.51991e-05
9.20438e-08
9.52225e-05
7.44004e-08
9.52452e-05
5.65472e-08
9.52671e-05
3.85562e-08
9.5288e-05
2.05038e-08
9.5308e-05
2.47225e-09
9.5327e-05
-1.54501e-08
9.53449e-05
-3.31727e-08
-5.05828e-08
9.53617e-05
9.72922e-05
2.24134e-08
9.73002e-05
6.49963e-08
9.73128e-05
1.03423e-07
9.73297e-05
1.36849e-07
9.73499e-05
1.64829e-07
9.73728e-05
1.87362e-07
9.73979e-05
2.04722e-07
9.74245e-05
2.17291e-07
9.74523e-05
2.25514e-07
9.74809e-05
2.29876e-07
9.75099e-05
2.30858e-07
9.75392e-05
2.28905e-07
9.75685e-05
2.24424e-07
9.75978e-05
2.17776e-07
9.76269e-05
2.09282e-07
9.76556e-05
1.99221e-07
9.7684e-05
1.87832e-07
9.7712e-05
1.7532e-07
9.77395e-05
1.61861e-07
9.77664e-05
1.47603e-07
9.77929e-05
1.32673e-07
9.78187e-05
1.17179e-07
9.78439e-05
1.01217e-07
9.78684e-05
8.487e-08
9.78923e-05
6.82167e-08
9.79153e-05
5.13305e-08
9.79376e-05
3.4284e-08
9.7959e-05
1.71508e-08
9.79795e-05
6.78363e-12
9.7999e-05
-1.7069e-08
9.80176e-05
-3.39945e-08
9.80351e-05
-5.06884e-08
-6.70514e-08
9.80516e-05
0.000100072
1.9781e-08
0.000100079
5.73467e-08
0.000100092
9.11971e-08
0.000100108
1.20624e-07
0.000100127
1.45266e-07
0.00010015
1.65099e-07
0.000100174
1.80325e-07
0.0001002
1.91259e-07
0.000100227
1.9828e-07
0.000100255
2.01799e-07
0.000100284
2.02234e-07
0.000100313
1.99975e-07
0.000100342
1.95383e-07
0.000100371
1.88783e-07
0.0001004
1.80463e-07
0.000100428
1.70677e-07
0.000100457
1.59645e-07
0.000100484
1.47558e-07
0.000100512
1.3458e-07
0.000100538
1.20852e-07
0.000100564
1.06495e-07
0.00010059
9.16164e-08
0.000100615
7.63103e-08
0.000100639
6.06617e-08
0.000100663
4.47493e-08
0.000100685
2.86481e-08
0.000100707
1.24312e-08
0.000100728
-3.82842e-09
0.000100748
-2.00571e-08
0.000100767
-3.61805e-08
0.000100785
-5.2123e-08
0.000100803
-6.78122e-08
-8.31605e-08
0.000100819
0.000102931
1.72342e-08
0.000102938
4.99528e-08
0.00010295
7.93935e-08
0.000102965
1.04948e-07
0.000102984
1.26316e-07
0.000103006
1.43463e-07
0.00010303
1.56539e-07
0.000103055
1.65801e-07
0.000103082
1.71567e-07
0.00010311
1.74188e-07
0.000103138
1.7402e-07
0.000103166
1.71405e-07
0.000103195
1.66659e-07
0.000103224
1.6007e-07
0.000103252
1.51897e-07
0.000103281
1.42369e-07
0.000103309
1.31686e-07
0.000103336
1.20024e-07
0.000103363
1.07533e-07
0.00010339
9.43476e-08
0.000103416
8.05836e-08
0.000103441
6.63436e-08
0.000103466
5.17198e-08
0.000103489
3.67959e-08
0.000103513
2.165e-08
0.000103535
6.35652e-09
0.000103556
-9.01275e-09
0.000103577
-2.43871e-08
0.000103596
-3.96966e-08
0.000103615
-5.4872e-08
0.000103633
-6.98445e-08
0.00010365
-8.45498e-08
-9.89109e-08
0.000103665
0.000105871
1.47691e-08
0.000105878
4.27984e-08
0.00010589
6.79748e-08
0.000105905
8.97678e-08
0.000105923
1.07923e-07
0.000105944
1.22403e-07
0.000105968
1.33318e-07
0.000105993
1.40878e-07
0.000106019
1.45346e-07
0.000106046
1.4702e-07
0.000106074
1.46203e-07
0.000106102
1.43187e-07
0.00010613
1.3825e-07
0.000106159
1.31644e-07
0.000106187
1.23596e-07
0.000106215
1.14312e-07
0.000106243
1.03971e-07
0.00010627
9.27338e-08
0.000106297
8.07388e-08
0.000106323
6.81099e-08
0.000106349
5.49565e-08
0.000106374
4.13762e-08
0.000106398
2.74574e-08
0.000106422
1.32814e-08
0.000106444
-1.0761e-09
0.000106466
-1.55431e-08
0.000106487
-3.00503e-08
0.000106507
-4.45307e-08
0.000106527
-5.89187e-08
0.000106545
-7.31507e-08
0.000106562
-8.71648e-08
0.000106579
-1.00904e-07
-1.143e-07
0.000106594
0.000108896
1.23803e-08
0.000108903
3.5865e-08
0.000108914
5.6905e-08
0.000108929
7.50332e-08
0.000108946
9.00314e-08
0.000108967
1.01863e-07
0.00010899
1.10611e-07
0.000109014
1.16443e-07
0.00010904
1.1958e-07
0.000109067
1.20267e-07
0.000109094
1.18761e-07
0.000109122
1.1531e-07
0.00010915
1.1015e-07
0.000109178
1.03501e-07
0.000109206
9.55618e-08
0.000109234
8.65112e-08
0.000109261
7.65099e-08
0.000109289
6.57004e-08
0.000109315
5.42096e-08
0.000109341
4.21508e-08
0.000109366
2.9625e-08
0.000109391
1.67239e-08
0.000109415
3.53094e-09
0.000109438
-9.87677e-09
0.00010946
-2.3427e-08
0.000109482
-3.70515e-08
0.000109503
-5.06847e-08
0.000109522
-6.42641e-08
0.000109541
-7.77291e-08
0.000109559
-9.10219e-08
0.000109576
-1.04087e-07
0.000109592
-1.16875e-07
-1.29325e-07
0.000109607
0.000112007
1.00614e-08
0.000112014
2.91332e-08
0.000112024
4.61491e-08
0.000112039
6.06959e-08
0.000112056
7.25853e-08
0.000112076
8.17852e-08
0.000112098
8.83611e-08
0.000112122
9.24473e-08
0.000112148
9.42232e-08
0.000112174
9.38916e-08
0.000112201
9.16636e-08
0.000112229
8.77475e-08
0.000112257
8.2342e-08
0.000112284
7.56321e-08
0.000112312
6.77883e-08
0.00011234
5.89653e-08
0.000112367
4.9303e-08
0.000112394
3.89271e-08
0.00011242
2.79508e-08
0.000112446
1.64759e-08
0.000112471
4.59467e-09
0.000112495
-7.60865e-09
0.000112519
-2.00567e-08
0.000112541
-3.26775e-08
0.000112563
-4.54037e-08
0.000112585
-5.81715e-08
0.000112605
-7.09203e-08
0.000112624
-8.35924e-08
0.000112643
-9.61328e-08
0.00011266
-1.08489e-07
0.000112677
-1.20613e-07
0.000112692
-1.3246e-07
-1.43978e-07
0.000112707
0.000115207
7.8063e-09
0.000115213
2.25837e-08
0.000115224
3.56737e-08
0.000115238
4.67085e-08
0.000115255
5.55281e-08
0.000115274
6.21097e-08
0.000115296
6.65081e-08
0.00011532
6.88311e-08
0.000115345
6.92224e-08
0.000115371
6.78456e-08
0.000115398
6.48712e-08
0.000115425
6.04682e-08
0.000115453
5.47987e-08
0.00011548
4.80156e-08
0.000115508
4.02604e-08
0.000115535
3.16636e-08
0.000115562
2.2344e-08
0.000115589
1.24099e-08
0.000115615
1.95995e-09
0.00011564
-8.91596e-09
0.000115665
-2.01355e-08
0.000115689
-3.16228e-08
0.000115712
-4.33074e-08
0.000115734
-5.51238e-08
0.000115756
-6.70102e-08
0.000115777
-7.89082e-08
0.000115797
-9.07626e-08
0.000115815
-1.02521e-07
0.000115833
-1.14134e-07
0.000115851
-1.25556e-07
0.000115867
-1.36743e-07
0.000115882
-1.47657e-07
-1.58253e-07
0.000115896
0.000118498
5.60898e-09
0.000118504
1.61989e-08
0.000118515
2.54471e-08
0.000118528
3.30245e-08
0.000118545
3.8801e-08
0.000118564
4.27701e-08
0.000118586
4.4983e-08
0.000118609
4.55267e-08
0.000118634
4.45135e-08
0.00011866
4.2071e-08
0.000118686
3.83316e-08
0.000118713
3.34266e-08
0.000118741
2.74826e-08
0.000118768
2.06203e-08
0.000118795
1.29528e-08
0.000118822
4.58566e-09
0.000118849
-4.38345e-09
0.000118875
-1.38643e-08
0.000118901
-2.37733e-08
0.000118926
-3.40335e-08
0.000118951
-4.45733e-08
0.000118974
-5.53258e-08
0.000118997
-6.62287e-08
0.000119019
-7.72234e-08
0.000119041
-8.82544e-08
0.000119061
-9.92695e-08
0.00011908
-1.10219e-07
0.000119099
-1.21057e-07
0.000119117
-1.3174e-07
0.000119133
-1.42226e-07
0.000119149
-1.52478e-07
0.000119164
-1.62464e-07
-1.72143e-07
0.000119178
0.000121883
3.46488e-09
0.00012189
9.96442e-09
0.0001219
1.5441e-08
0.000121913
1.95983e-08
0.00012193
2.23423e-08
0.000121949
2.36936e-08
0.00012197
2.37078e-08
0.000121993
2.2455e-08
0.000122017
2.00197e-08
0.000122043
1.64958e-08
0.000122069
1.19794e-08
0.000122096
6.56465e-09
0.000122123
3.42981e-10
0.000122151
-6.59727e-09
0.000122178
-1.41716e-08
0.000122205
-2.22996e-08
0.000122231
-3.09055e-08
0.000122257
-3.99175e-08
0.000122283
-4.9268e-08
0.000122308
-5.88933e-08
0.000122332
-6.87334e-08
0.000122355
-7.87312e-08
0.000122378
-8.88332e-08
0.0001224
-9.89881e-08
0.00012242
-1.09148e-07
0.00012244
-1.19266e-07
0.000122459
-1.293e-07
0.000122478
-1.39209e-07
0.000122495
-1.48955e-07
0.000122511
-1.58502e-07
0.000122526
-1.67819e-07
0.000122541
-1.76878e-07
-1.85644e-07
0.000122554
0.000125366
1.37191e-09
0.000125372
3.87253e-09
0.000125381
5.63371e-09
0.000125395
6.38603e-09
0.000125411
6.08622e-09
0.00012543
4.79876e-09
0.000125451
2.59205e-09
0.000125474
-4.77547e-10
0.000125498
-4.35148e-09
0.000125524
-8.9677e-09
0.00012555
-1.42664e-08
0.000125577
-2.01908e-08
0.000125604
-2.66854e-08
0.000125631
-3.36945e-08
0.000125658
-4.11628e-08
0.000125685
-4.90359e-08
0.000125711
-5.726e-08
0.000125737
-6.57829e-08
0.000125762
-7.45532e-08
0.000125787
-8.35213e-08
0.000125811
-9.26391e-08
0.000125834
-1.0186e-07
0.000125856
-1.1114e-07
0.000125877
-1.20436e-07
0.000125898
-1.29707e-07
0.000125918
-1.38913e-07
0.000125936
-1.48019e-07
0.000125954
-1.56988e-07
0.000125971
-1.65789e-07
0.000125987
-1.74392e-07
0.000126002
-1.82769e-07
0.000126016
-1.90897e-07
-1.98746e-07
0.000126029
0.000128947
-6.67117e-10
0.000128953
-2.07175e-09
0.000128963
-3.98494e-09
0.000128976
-6.65309e-09
0.000128992
-1.00393e-08
0.000129011
-1.4008e-08
0.000129032
-1.84703e-08
0.000129055
-2.33829e-08
0.000129079
-2.8712e-08
0.000129104
-3.4427e-08
0.000129131
-4.05055e-08
0.000129157
-4.69302e-08
0.000129184
-5.36831e-08
0.000129211
-6.07423e-08
0.000129238
-6.8083e-08
0.000129265
-7.56772e-08
0.000129291
-8.34944e-08
0.000129317
-9.15019e-08
0.000129342
-9.96655e-08
0.000129367
-1.0795e-07
0.00012939
-1.1632e-07
0.000129413
-1.2474e-07
0.000129435
-1.33175e-07
0.000129456
-1.4159e-07
0.000129477
-1.49953e-07
0.000129496
-1.5823e-07
0.000129514
-1.66391e-07
0.000129532
-1.74409e-07
0.000129548
-1.82254e-07
0.000129564
-1.89904e-07
0.000129578
-1.97335e-07
0.000129592
-2.04529e-07
-2.11462e-07
0.000129605
0.000132631
-2.63995e-09
0.000132637
-7.83913e-09
0.000132646
-1.34039e-08
0.000132659
-1.95546e-08
0.000132675
-2.6115e-08
0.000132694
-3.28372e-08
0.000132715
-3.96062e-08
0.000132738
-4.63959e-08
0.000132763
-5.31974e-08
0.000132788
-6.0013e-08
0.000132815
-6.68613e-08
0.000132841
-7.37679e-08
0.000132869
-8.07545e-08
0.000132896
-8.7835e-08
0.000132923
-9.50163e-08
0.000132949
-1.02298e-07
0.000132975
-1.09675e-07
0.000133001
-1.17133e-07
0.000133026
-1.24657e-07
0.00013305
-1.32225e-07
0.000133074
-1.39817e-07
0.000133096
-1.47406e-07
0.000133118
-1.54969e-07
0.000133139
-1.62479e-07
0.000133159
-1.6991e-07
0.000133178
-1.77238e-07
0.000133196
-1.84438e-07
0.000133213
-1.91487e-07
0.000133229
-1.98363e-07
0.000133244
-2.05047e-07
0.000133259
-2.1152e-07
0.000133272
-2.17765e-07
-2.23762e-07
0.000133284
0.00013642
-4.51531e-09
0.000136426
-1.33533e-08
0.000136435
-2.25745e-08
0.000136448
-3.23454e-08
0.000136464
-4.22341e-08
0.000136483
-5.18226e-08
0.000136504
-6.09741e-08
0.000136527
-6.96854e-08
0.000136552
-7.79731e-08
0.000136578
-8.58781e-08
0.000136605
-9.34698e-08
0.000136632
-1.00824e-07
0.000136659
-1.08004e-07
0.000136686
-1.15065e-07
0.000136713
-1.22044e-07
0.00013674
-1.28973e-07
0.000136766
-1.35867e-07
0.000136792
-1.42736e-07
0.000136817
-1.49582e-07
0.000136841
-1.56399e-07
0.000136864
-1.63177e-07
0.000136887
-1.69904e-07
0.000136908
-1.76564e-07
0.000136929
-1.83141e-07
0.000136949
-1.89616e-07
0.000136967
-1.9597e-07
0.000136985
-2.02188e-07
0.000137002
-2.0825e-07
0.000137018
-2.1414e-07
0.000137032
-2.19844e-07
0.000137046
-2.25349e-07
0.000137059
-2.30643e-07
-2.35713e-07
0.000137071
0.000140317
-6.22175e-09
0.000140323
-1.84442e-08
0.000140331
-3.13853e-08
0.000140344
-4.50472e-08
0.00014036
-5.85076e-08
0.00014038
-7.11199e-08
0.000140401
-8.27637e-08
0.000140425
-9.34691e-08
0.000140451
-1.03271e-07
0.000140477
-1.12254e-07
0.000140504
-1.20551e-07
0.000140531
-1.28299e-07
0.000140559
-1.35611e-07
0.000140587
-1.42584e-07
0.000140614
-1.49296e-07
0.000140641
-1.55806e-07
0.000140667
-1.62158e-07
0.000140693
-1.68383e-07
0.000140718
-1.74498e-07
0.000140742
-1.80515e-07
0.000140765
-1.86437e-07
0.000140787
-1.92262e-07
0.000140809
-1.97984e-07
0.000140829
-2.03595e-07
0.000140849
-2.09084e-07
0.000140867
-2.14439e-07
0.000140885
-2.19649e-07
0.000140901
-2.24702e-07
0.000140916
-2.29585e-07
0.000140931
-2.34288e-07
0.000140944
-2.38799e-07
0.000140957
-2.43106e-07
-2.47196e-07
0.000140968
0.000144326
-7.60227e-09
0.00014433
-2.27469e-08
0.000144339
-3.96089e-08
0.000144351
-5.76899e-08
0.000144368
-7.51117e-08
0.000144388
-9.09473e-08
0.00014441
-1.05183e-07
0.000144434
-1.17916e-07
0.00014446
-1.29218e-07
0.000144487
-1.39241e-07
0.000144515
-1.48199e-07
0.000144543
-1.56288e-07
0.000144571
-1.63677e-07
0.000144599
-1.70504e-07
0.000144627
-1.76888e-07
0.000144654
-1.82921e-07
0.00014468
-1.88672e-07
0.000144706
-1.94194e-07
0.000144731
-1.99525e-07
0.000144755
-2.0469e-07
0.000144779
-2.09707e-07
0.000144801
-2.14583e-07
0.000144822
-2.19324e-07
0.000144842
-2.23929e-07
0.000144862
-2.28396e-07
0.00014488
-2.32719e-07
0.000144897
-2.36891e-07
0.000144914
-2.40908e-07
0.000144929
-2.44762e-07
0.000144943
-2.48447e-07
0.000144956
-2.51959e-07
0.000144968
-2.55298e-07
-2.58456e-07
0.000144979
0.000148449
-8.2983e-09
0.000148451
-2.55399e-08
0.000148459
-4.68229e-08
0.000148471
-7.02059e-08
0.000148488
-9.22206e-08
0.000148509
-1.11741e-07
0.000148533
-1.28886e-07
0.000148559
-1.43753e-07
0.000148586
-1.56482e-07
0.000148614
-1.67387e-07
0.000148643
-1.76817e-07
0.000148671
-1.85062e-07
0.0001487
-1.92354e-07
0.000148728
-1.98884e-07
0.000148756
-2.04812e-07
0.000148784
-2.10259e-07
0.00014881
-2.1532e-07
0.000148836
-2.20065e-07
0.000148861
-2.24549e-07
0.000148885
-2.28811e-07
0.000148909
-2.32877e-07
0.000148931
-2.36767e-07
0.000148952
-2.40494e-07
0.000148972
-2.44065e-07
0.000148991
-2.47484e-07
0.000149009
-2.50751e-07
0.000149026
-2.53865e-07
0.000149042
-2.56825e-07
0.000149057
-2.59626e-07
0.000149071
-2.62264e-07
0.000149084
-2.64733e-07
0.000149095
-2.67021e-07
-2.69123e-07
0.000149106
0.000152688
-7.29872e-09
0.000152688
-2.53872e-08
0.000152694
-5.28079e-08
0.000152706
-8.26762e-08
0.000152724
-1.09415e-07
0.000152745
-1.32731e-07
0.000152769
-1.53099e-07
0.000152795
-1.70415e-07
0.000152824
-1.84801e-07
0.000152853
-1.96727e-07
0.000152883
-2.06687e-07
0.000152913
-2.15073e-07
0.000152943
-2.22201e-07
0.000152972
-2.28337e-07
0.000153001
-2.33694e-07
0.000153029
-2.38435e-07
0.000153057
-2.42685e-07
0.000153083
-2.4654e-07
0.000153109
-2.50072e-07
0.000153133
-2.53335e-07
0.000153157
-2.56367e-07
0.000153179
-2.59197e-07
0.000153201
-2.61845e-07
0.000153221
-2.64326e-07
0.00015324
-2.66648e-07
0.000153258
-2.68819e-07
0.000153275
-2.70842e-07
0.000153291
-2.72719e-07
0.000153306
-2.74452e-07
0.00015332
-2.76045e-07
0.000153332
-2.77501e-07
0.000153344
-2.78833e-07
-2.80036e-07
0.000153355
0.000157046
-2.13157e-09
0.000157039
-1.80006e-08
0.000157043
-5.71439e-08
0.000157058
-9.77301e-08
0.00015708
-1.30726e-07
0.000157105
-1.5789e-07
0.000157132
-1.80669e-07
0.000157161
-1.99315e-07
0.000157191
-2.14373e-07
0.000157221
-2.2661e-07
0.000157251
-2.36633e-07
0.00015728
-2.44875e-07
0.00015731
-2.51693e-07
0.000157339
-2.57387e-07
0.000157367
-2.62191e-07
0.000157395
-2.66284e-07
0.000157422
-2.69804e-07
0.000157449
-2.72858e-07
0.000157474
-2.7553e-07
0.000157499
-2.77881e-07
0.000157522
-2.79961e-07
0.000157545
-2.81805e-07
0.000157567
-2.83441e-07
0.000157587
-2.84889e-07
0.000157607
-2.86165e-07
0.000157625
-2.87281e-07
0.000157643
-2.88244e-07
0.000157659
-2.89059e-07
0.000157674
-2.8973e-07
0.000157688
-2.90257e-07
0.000157701
-2.90635e-07
0.000157713
-2.90852e-07
-2.90911e-07
0.000157724
0.000161526
1.02905e-08
0.000161506
2.31136e-09
0.000161498
-4.99281e-08
0.000161503
-1.02486e-07
0.000161519
-1.46348e-07
0.000161544
-1.82795e-07
0.000161575
-2.11689e-07
0.000161609
-2.33529e-07
0.000161645
-2.4999e-07
0.000161681
-2.62634e-07
0.000161716
-2.72455e-07
0.000161752
-2.80121e-07
0.000161786
-2.86152e-07
0.00016182
-2.90945e-07
0.000161852
-2.94789e-07
0.000161884
-2.97887e-07
0.000161915
-3.00392e-07
0.000161944
-3.02416e-07
0.000161973
-3.04046e-07
0.000162
-3.05345e-07
0.000162026
-3.06362e-07
0.000162052
-3.07132e-07
0.000162076
-3.07687e-07
0.000162099
-3.08046e-07
0.000162121
-3.08229e-07
0.000162142
-3.08249e-07
0.000162162
-3.08117e-07
0.000162181
-3.07845e-07
0.000162199
-3.07441e-07
0.000162215
-3.06918e-07
0.000162231
-3.06288e-07
0.000162246
-3.05576e-07
-3.04775e-07
0.000162259
0.0001661
6.40844e-08
0.000166096
5.63273e-09
0.000166114
-6.72793e-08
0.00016613
-1.18972e-07
0.000166147
-1.6271e-07
0.000166166
-2.01973e-07
0.000166188
-2.34287e-07
0.000166214
-2.5945e-07
0.000166243
-2.79047e-07
0.000166275
-2.94443e-07
0.000166309
-3.06494e-07
0.000166345
-3.15865e-07
0.000166382
-3.23125e-07
0.00016642
-3.28724e-07
0.000166458
-3.32996e-07
0.000166496
-3.36195e-07
0.000166534
-3.38522e-07
0.000166572
-3.40133e-07
0.000166609
-3.41152e-07