/*--------------------------------*- C++ -*----------------------------------*\
| =========                 |                                                 |
| \\      /  F ield         | OpenFOAM: The Open Source CFD Toolbox           |
|  \\    /   O peration     | Version:  4.1                                   |
|   \\  /    A nd           | Web:      www.OpenFOAM.org                      |
|    \\/     M anipulation  |                                                 |
\*---------------------------------------------------------------------------*/
FoamFile
{
    version     2.0;
    format      ascii;
    class       volVectorField;
    location    "500";
    object      U;
}
// * * * * * * * * * * * * * * * * * * * * * * * * * * * * * * * * * * * * * //

dimensions      [0 1 -1 0 0 0 0];

internalField   nonuniform List<vector> 
6820
(
(7.316 -0.463593 0)
(7.31112 -0.449228 0)
(7.26524 -0.315604 0)
(7.17901 -0.205424 0)
(7.0746 -0.128572 0)
(6.9648 -0.0771031 0)
(6.85439 -0.0428601 0)
(6.74603 -0.0199746 0)
(6.64164 -0.00469222 0)
(6.54233 0.00538084 0)
(6.44858 0.0118379 0)
(6.3606 0.0157723 0)
(6.27843 0.0179457 0)
(6.20198 0.0188948 0)
(6.13107 0.0190015 0)
(6.06546 0.0185397 0)
(6.00487 0.0177053 0)
(5.949 0.0166382 0)
(5.89755 0.0154372 0)
(5.85023 0.0141714 0)
(5.80674 0.0128882 0)
(5.76681 0.0116186 0)
(5.73019 0.0103821 0)
(5.69665 0.00918938 0)
(5.66599 0.00804427 0)
(5.63802 0.00694512 0)
(5.61261 0.00588744 0)
(5.58962 0.00485647 0)
(5.56904 0.00386013 0)
(5.55046 0.00284045 0)
(5.53516 0.00184235 0)
(5.5179 0.00204127 0)
(5.51413 -0.00577739 0)
(7.3428 0.124512 0)
(7.36544 0.2109 0)
(7.37961 0.198762 0)
(7.39309 0.16575 0)
(7.41115 0.136351 0)
(7.43029 0.112976 0)
(7.44612 0.0949389 0)
(7.45691 0.0813154 0)
(7.46262 0.0710195 0)
(7.46358 0.0631086 0)
(7.46021 0.0569112 0)
(7.45298 0.0519655 0)
(7.44242 0.0479431 0)
(7.42904 0.0446062 0)
(7.41334 0.0417835 0)
(7.39573 0.0393511 0)
(7.3766 0.0372188 0)
(7.35631 0.0353197 0)
(7.33515 0.0336037 0)
(7.31339 0.0320329 0)
(7.29123 0.0305774 0)
(7.26888 0.0292134 0)
(7.2465 0.027921 0)
(7.22422 0.0266826 0)
(7.20217 0.0254819 0)
(7.18044 0.0243018 0)
(7.15914 0.0231266 0)
(7.13832 0.0219292 0)
(7.11812 0.0207167 0)
(7.09851 0.0193632 0)
(7.07992 0.0182474 0)
(7.06218 0.0161758 0)
(7.04818 0.0172498 0)
(7.32611 0.00484873 0)
(7.3195 -0.0105567 0)
(7.32606 -0.0225816 0)
(7.33745 -0.0194461 0)
(7.34972 -0.00944195 0)
(7.36204 0.000516442 0)
(7.37361 0.00882195 0)
(7.38404 0.015618 0)
(7.39341 0.0210851 0)
(7.4018 0.0253628 0)
(7.40919 0.0286274 0)
(7.41556 0.0310597 0)
(7.42092 0.0328137 0)
(7.42532 0.0340154 0)
(7.42879 0.0347696 0)
(7.43139 0.035164 0)
(7.43318 0.0352709 0)
(7.43424 0.0351492 0)
(7.43462 0.0348462 0)
(7.43439 0.0343996 0)
(7.43363 0.0338386 0)
(7.4324 0.0331854 0)
(7.43076 0.0324556 0)
(7.42878 0.0316593 0)
(7.42651 0.0308013 0)
(7.42402 0.0298805 0)
(7.42136 0.0288919 0)
(7.41859 0.0278185 0)
(7.41579 0.0266517 0)
(7.413 0.0253236 0)
(7.41043 0.0238592 0)
(7.40802 0.0218745 0)
(7.40617 0.0193899 0)
(7.32909 -0.00529055 0)
(7.32382 0.00299055 0)
(7.32882 0.01477 0)
(7.33556 0.024418 0)
(7.34147 0.0307507 0)
(7.34759 0.0341978 0)
(7.35396 0.0359701 0)
(7.36023 0.0369631 0)
(7.3663 0.0375303 0)
(7.37221 0.0377854 0)
(7.37789 0.0378 0)
(7.38329 0.0376346 0)
(7.38839 0.0373322 0)
(7.39317 0.0369225 0)
(7.39763 0.036428 0)
(7.40178 0.035867 0)
(7.40562 0.0352542 0)
(7.40916 0.0346006 0)
(7.41243 0.0339142 0)
(7.41544 0.0332002 0)
(7.41823 0.0324614 0)
(7.4208 0.0316981 0)
(7.42319 0.0309082 0)
(7.42542 0.0300868 0)
(7.42752 0.0292266 0)
(7.42953 0.0283157 0)
(7.43145 0.0273393 0)
(7.43334 0.0262721 0)
(7.43522 0.0250892 0)
(7.43712 0.0237181 0)
(7.43911 0.0221263 0)
(7.44109 0.0199946 0)
(7.44314 0.0173959 0)
(7.3315 -0.00137218 0)
(7.32877 0.00833401 0)
(7.33145 0.0159154 0)
(7.33547 0.0198342 0)
(7.33933 0.0227654 0)
(7.34375 0.0252334 0)
(7.34857 0.0272004 0)
(7.35339 0.0287966 0)
(7.35812 0.0301017 0)
(7.36279 0.0311247 0)
(7.36737 0.0318807 0)
(7.37183 0.0324018 0)
(7.37614 0.0327202 0)
(7.38029 0.0328629 0)
(7.38429 0.0328538 0)
(7.38813 0.0327148 0)
(7.39182 0.0324652 0)
(7.39535 0.0321212 0)
(7.39874 0.0316959 0)
(7.40201 0.0311993 0)
(7.40516 0.0306388 0)
(7.40821 0.0300184 0)
(7.41117 0.0293395 0)
(7.41406 0.0286001 0)
(7.41689 0.0277948 0)
(7.41969 0.0269137 0)
(7.42247 0.0259424 0)
(7.42524 0.0248576 0)
(7.42803 0.0236302 0)
(7.43084 0.0222029 0)
(7.43369 0.0205246 0)
(7.4365 0.0184311 0)
(7.43922 0.0159577 0)
(7.33229 0.00073327 0)
(7.33091 0.00775938 0)
(7.33278 0.0134446 0)
(7.33607 0.0171926 0)
(7.33943 0.0206261 0)
(7.34313 0.023632 0)
(7.34713 0.0259319 0)
(7.35116 0.027669 0)
(7.35513 0.0290084 0)
(7.35908 0.0300147 0)
(7.363 0.0307277 0)
(7.36685 0.0311922 0)
(7.37061 0.0314484 0)
(7.37428 0.0315287 0)
(7.37786 0.03146 0)
(7.38134 0.0312653 0)
(7.38472 0.0309644 0)
(7.38801 0.0305732 0)
(7.39122 0.0301041 0)
(7.39436 0.0295664 0)
(7.39742 0.028966 0)
(7.40043 0.0283061 0)
(7.40339 0.0275865 0)
(7.40632 0.0268041 0)
(7.40923 0.0259523 0)
(7.41212 0.02502 0)
(7.41501 0.0239919 0)
(7.4179 0.0228452 0)
(7.42081 0.0215509 0)
(7.42373 0.0200635 0)
(7.42664 0.0183375 0)
(7.42948 0.0162836 0)
(7.43218 0.0139076 0)
(7.3326 0.00133018 0)
(7.33197 0.00685657 0)
(7.33361 0.012165 0)
(7.33658 0.016136 0)
(7.33969 0.0195061 0)
(7.34299 0.0223137 0)
(7.34652 0.0244517 0)
(7.35012 0.0260702 0)
(7.35368 0.0273216 0)
(7.35723 0.0282665 0)
(7.36076 0.02894 0)
(7.36424 0.0293812 0)
(7.36765 0.0296266 0)
(7.371 0.0297052 0)
(7.37428 0.029641 0)
(7.37749 0.0294546 0)
(7.38063 0.0291635 0)
(7.38371 0.0287816 0)
(7.38672 0.0283198 0)
(7.38969 0.0277859 0)
(7.39261 0.0271849 0)
(7.39549 0.0265189 0)
(7.39834 0.0257871 0)
(7.40118 0.0249859 0)
(7.404 0.0241083 0)
(7.40681 0.0231435 0)
(7.40963 0.0220767 0)
(7.41245 0.0208876 0)
(7.41526 0.0195508 0)
(7.41807 0.0180318 0)
(7.42085 0.0162966 0)
(7.42353 0.0142971 0)
(7.42606 0.0120401 0)
(7.3328 0.00159497 0)
(7.33264 0.00641883 0)
(7.33413 0.0113103 0)
(7.33679 0.0151154 0)
(7.33969 0.0182321 0)
(7.34276 0.0208422 0)
(7.34603 0.0228972 0)
(7.34938 0.0244805 0)
(7.35271 0.0257064 0)
(7.35602 0.0266331 0)
(7.35931 0.0272961 0)
(7.36255 0.0277319 0)
(7.36575 0.0279748 0)
(7.36888 0.0280525 0)
(7.37196 0.0279878 0)
(7.37498 0.0278003 0)
(7.37794 0.0275063 0)
(7.38085 0.0271189 0)
(7.38371 0.0266482 0)
(7.38653 0.0261016 0)
(7.38931 0.0254835 0)
(7.39206 0.0247957 0)
(7.39479 0.0240373 0)
(7.39751 0.0232046 0)
(7.40021 0.0222909 0)
(7.40291 0.0212863 0)
(7.4056 0.0201776 0)
(7.40829 0.0189475 0)
(7.41097 0.0175752 0)
(7.41361 0.0160362 0)
(7.4162 0.0143075 0)
(7.41869 0.012365 0)
(7.42104 0.0102195 0)
(7.33292 0.0017213 0)
(7.33306 0.0060523 0)
(7.33442 0.0104466 0)
(7.3368 0.0140154 0)
(7.33951 0.0169495 0)
(7.3424 0.0194268 0)
(7.34548 0.021417 0)
(7.34865 0.0229636 0)
(7.35182 0.0241587 0)
(7.35497 0.0250613 0)
(7.3581 0.0257075 0)
(7.36119 0.0261318 0)
(7.36424 0.0263663 0)
(7.36723 0.0264374 0)
(7.37016 0.0263671 0)
(7.37305 0.0261737 0)
(7.37588 0.0258728 0)
(7.37867 0.0254766 0)
(7.38141 0.0249947 0)
(7.38411 0.0244337 0)
(7.38679 0.0237978 0)
(7.38943 0.0230886 0)
(7.39205 0.0223049 0)
(7.39466 0.0214435 0)
(7.39725 0.0204983 0)
(7.39982 0.0194605 0)
(7.40239 0.0183188 0)
(7.40494 0.0170594 0)
(7.40746 0.0156665 0)
(7.40994 0.0141234 0)
(7.41235 0.0124161 0)
(7.41466 0.0105346 0)
(7.41682 0.00849199 0)
(7.33299 0.00174133 0)
(7.33329 0.00567247 0)
(7.33456 0.00962212 0)
(7.3367 0.0129624 0)
(7.33922 0.0157363 0)
(7.34195 0.0180787 0)
(7.34486 0.0199831 0)
(7.34787 0.0214776 0)
(7.3509 0.022635 0)
(7.35392 0.02351 0)
(7.35693 0.0241375 0)
(7.35991 0.0245491 0)
(7.36285 0.0247744 0)
(7.36573 0.0248386 0)
(7.36857 0.0247623 0)
(7.37136 0.024563 0)
(7.3741 0.0242551 0)
(7.37679 0.0238502 0)
(7.37944 0.0233572 0)
(7.38206 0.0227823 0)
(7.38464 0.0221295 0)
(7.38719 0.0214003 0)
(7.38972 0.0205937 0)
(7.39222 0.0197069 0)
(7.39471 0.0187348 0)
(7.39717 0.01767 0)
(7.39962 0.0165035 0)
(7.40204 0.0152248 0)
(7.40441 0.0138226 0)
(7.40674 0.0122864 0)
(7.40899 0.010609 0)
(7.41113 0.00878833 0)
(7.41314 0.00683863 0)
(7.33302 0.00169438 0)
(7.33342 0.00529071 0)
(7.33461 0.00885844 0)
(7.33655 0.0119645 0)
(7.33889 0.0145721 0)
(7.34145 0.0167742 0)
(7.3442 0.0185822 0)
(7.34705 0.020016 0)
(7.34995 0.0211305 0)
(7.35286 0.0219739 0)
(7.35576 0.0225791 0)
(7.35864 0.0229753 0)
(7.36148 0.0231895 0)
(7.36428 0.0232453 0)
(7.36704 0.0231619 0)
(7.36975 0.0229558 0)
(7.37241 0.0226404 0)
(7.37503 0.0222268 0)
(7.37761 0.0217232 0)
(7.38015 0.0211356 0)
(7.38265 0.0204676 0)
(7.38512 0.0197208 0)
(7.38757 0.0188948 0)
(7.38999 0.0179873 0)
(7.39238 0.0169941 0)
(7.39474 0.0159095 0)
(7.39708 0.0147268 0)
(7.39937 0.0134385 0)
(7.40162 0.0120372 0)
(7.40381 0.010517 0)
(7.40591 0.00887568 0)
(7.40791 0.00711542 0)
(7.40979 0.00525053 0)
(7.33304 0.00161057 0)
(7.33348 0.00491181 0)
(7.3346 0.00814442 0)
(7.33637 0.0110135 0)
(7.33854 0.0134506 0)
(7.34094 0.0155129 0)
(7.34353 0.0172187 0)
(7.34624 0.0185834 0)
(7.34901 0.0196481 0)
(7.3518 0.020454 0)
(7.3546 0.021032 0)
(7.35738 0.0214086 0)
(7.36013 0.0216085 0)
(7.36285 0.0216532 0)
(7.36553 0.0215608 0)
(7.36816 0.0213466 0)
(7.37076 0.0210232 0)
(7.37331 0.0206008 0)
(7.37582 0.0200872 0)
(7.37829 0.0194881 0)
(7.38073 0.018807 0)
(7.38313 0.0180458 0)
(7.3855 0.0172043 0)
(7.38784 0.0162809 0)
(7.39014 0.0152727 0)
(7.39241 0.0141755 0)
(7.39464 0.0129847 0)
(7.39683 0.0116953 0)
(7.39896 0.0103033 0)
(7.40102 0.00880616 0)
(7.403 0.00720476 0)
(7.40488 0.00550379 0)
(7.40665 0.00371688 0)
(7.33304 0.00150762 0)
(7.3335 0.00453722 0)
(7.33455 0.00747073 0)
(7.33618 0.0101072 0)
(7.33819 0.0123723 0)
(7.34044 0.014295 0)
(7.34288 0.0158936 0)
(7.34545 0.0171814 0)
(7.34809 0.0181894 0)
(7.35077 0.0189522 0)
(7.35346 0.0194979 0)
(7.35614 0.0198505 0)
(7.3588 0.0200322 0)
(7.36144 0.0200629 0)
(7.36404 0.0199592 0)
(7.3666 0.0197353 0)
(7.36913 0.0194028 0)
(7.37161 0.0189713 0)
(7.37406 0.0184482 0)
(7.37646 0.0178388 0)
(7.37883 0.0171467 0)
(7.38116 0.0163739 0)
(7.38346 0.0155206 0)
(7.38572 0.0145862 0)
(7.38794 0.0135687 0)
(7.39012 0.0124655 0)
(7.39226 0.0112736 0)
(7.39434 0.00999055 0)
(7.39637 0.00861451 0)
(7.39832 0.00714559 0)
(7.40019 0.00558663 0)
(7.40196 0.00394353 0)
(7.40362 0.00222894 0)
(7.33305 0.0013957 0)
(7.3335 0.00416916 0)
(7.33449 0.0068316 0)
(7.33599 0.00924343 0)
(7.33785 0.0113359 0)
(7.33997 0.0131186 0)
(7.34226 0.0146063 0)
(7.3447 0.015811 0)
(7.34721 0.0167562 0)
(7.34977 0.0174706 0)
(7.35235 0.0179791 0)
(7.35494 0.0183033 0)
(7.35751 0.0184632 0)
(7.36006 0.0184767 0)
(7.36258 0.0183593 0)
(7.36507 0.0181238 0)
(7.36753 0.0177811 0)
(7.36994 0.0173401 0)
(7.37232 0.0168078 0)
(7.37466 0.0161892 0)
(7.37696 0.0154879 0)
(7.37922 0.0147062 0)
(7.38145 0.0138449 0)
(7.38363 0.0129038 0)
(7.38577 0.0118822 0)
(7.38787 0.0107786 0)
(7.38991 0.00959185 0)
(7.3919 0.00832099 0)
(7.39382 0.00696619 0)
(7.39567 0.00552921 0)
(7.39744 0.00401411 0)
(7.39912 0.00242727 0)
(7.40069 0.000780232 0)
(7.33305 0.00128073 0)
(7.33348 0.00380978 0)
(7.33441 0.00622263 0)
(7.3358 0.00841885 0)
(7.33754 0.0103393 0)
(7.33952 0.0119816 0)
(7.34168 0.0133559 0)
(7.34399 0.0144725 0)
(7.34638 0.0153497 0)
(7.34883 0.0160108 0)
(7.3513 0.0164776 0)
(7.35379 0.0167693 0)
(7.35627 0.0169038 0)
(7.35874 0.0168973 0)
(7.36118 0.0167636 0)
(7.36359 0.0165148 0)
(7.36597 0.0161609 0)
(7.36832 0.01571 0)
(7.37063 0.0151687 0)
(7.3729 0.0145419 0)
(7.37513 0.0138333 0)
(7.37732 0.0130453 0)
(7.37947 0.0121791 0)
(7.38157 0.0112354 0)
(7.38363 0.0102142 0)
(7.38564 0.00911526 0)
(7.3876 0.00793864 0)
(7.3895 0.00668479 0)
(7.39133 0.00535521 0)
(7.39309 0.00395277 0)
(7.39476 0.00248219 0)
(7.39635 0.000949895 0)
(7.39785 -0.000633661 0)
(7.33304 0.00116605 0)
(7.33346 0.00346057 0)
(7.33433 0.0056404 0)
(7.33563 0.00763002 0)
(7.33724 0.00938026 0)
(7.3391 0.010882 0)
(7.34114 0.012141 0)
(7.34332 0.0131657 0)
(7.3456 0.0139704 0)
(7.34794 0.0145739 0)
(7.35031 0.0149948 0)
(7.3527 0.0152503 0)
(7.35509 0.0153562 0)
(7.35747 0.0153268 0)
(7.35983 0.0151748 0)
(7.36217 0.0149111 0)
(7.36447 0.0145449 0)
(7.36675 0.0140837 0)
(7.36898 0.0135338 0)
(7.37118 0.0129 0)
(7.37334 0.0121858 0)
(7.37546 0.0113938 0)
(7.37753 0.0105258 0)
(7.37956 0.00958303 0)
(7.38154 0.00856626 0)
(7.38347 0.00747624 0)
(7.38534 0.00631394 0)
(7.38715 0.0050809 0)
(7.3889 0.00377952 0)
(7.39057 0.00241338 0)
(7.39216 0.000987469 0)
(7.39366 -0.000491987 0)
(7.39508 -0.00201557 0)
(7.33304 0.00105346 0)
(7.33343 0.00312234 0)
(7.33425 0.00508222 0)
(7.33546 0.00687372 0)
(7.33697 0.00845635 0)
(7.33871 0.00981789 0)
(7.34064 0.0109603 0)
(7.3427 0.0118901 0)
(7.34487 0.0126184 0)
(7.3471 0.0131604 0)
(7.34937 0.0135318 0)
(7.35167 0.0137477 0)
(7.35397 0.0138219 0)
(7.35626 0.0137672 0)
(7.35855 0.0135949 0)
(7.3608 0.013315 0)
(7.36303 0.0129357 0)
(7.36523 0.0124641 0)
(7.3674 0.0119061 0)
(7.36952 0.0112662 0)
(7.37161 0.010548 0)
(7.37365 0.00975435 0)
(7.37565 0.00888738 0)
(7.37761 0.00794874 0)
(7.37951 0.00693992 0)
(7.38135 0.00586238 0)
(7.38314 0.00471786 0)
(7.38487 0.00350863 0)
(7.38653 0.00223769 0)
(7.38812 0.00090901 0)
(7.38963 -0.000472386 0)
(7.39106 -0.00190062 0)
(7.39241 -0.00336723 0)
(7.33304 0.000943845 0)
(7.33341 0.00279536 0)
(7.33418 0.00454593 0)
(7.33531 0.006147 0)
(7.33672 0.00756511 0)
(7.33836 0.00878705 0)
(7.34018 0.00981198 0)
(7.34213 0.0106445 0)
(7.34419 0.0112932 0)
(7.34632 0.0117704 0)
(7.3485 0.0120892 0)
(7.3507 0.0122625 0)
(7.35291 0.0123024 0)
(7.35512 0.0122201 0)
(7.35732 0.0120258 0)
(7.3595 0.0117284 0)
(7.36166 0.0113354 0)
(7.36379 0.0108534 0)
(7.36588 0.0102878 0)
(7.36793 0.00964287 0)
(7.36994 0.00892238 0)
(7.37191 0.00812921 0)
(7.37384 0.00726578 0)
(7.37571 0.00633418 0)
(7.37754 0.00533637 0)
(7.37931 0.00427437 0)
(7.38102 0.00315047 0)
(7.38266 0.00196745 0)
(7.38424 0.000728652 0)
(7.38575 -0.000561807 0)
(7.38719 -0.00189901 0)
(7.38855 -0.0032775 0)
(7.38983 -0.00468967 0)
(7.33304 0.000837587 0)
(7.33338 0.00247949 0)
(7.33411 0.00402965 0)
(7.33516 0.00544715 0)
(7.33649 0.00670405 0)
(7.33803 0.00778732 0)
(7.33975 0.00869425 0)
(7.34161 0.00942768 0)
(7.34356 0.00999433 0)
(7.3456 0.0104038 0)
(7.34768 0.0106671 0)
(7.34979 0.0107951 0)
(7.35192 0.0107984 0)
(7.35405 0.0106867 0)
(7.35617 0.0104689 0)
(7.35827 0.0101531 0)
(7.36035 0.00974597 0)
(7.3624 0.00925356 0)
(7.36442 0.00868086 0)
(7.3664 0.00803212 0)
(7.36834 0.0073109 0)
(7.37024 0.0065202 0)
(7.37209 0.00566266 0)
(7.37389 0.00474066 0)
(7.37564 0.00375653 0)
(7.37733 0.00271268 0)
(7.37896 0.00161178 0)
(7.38053 0.000456884 0)
(7.38204 -0.000748475 0)
(7.38348 -0.0020002 0)
(7.38484 -0.00329358 0)
(7.38613 -0.00462361 0)
(7.38735 -0.00598346 0)
(7.33304 0.000734753 0)
(7.33336 0.00217432 0)
(7.33404 0.00353167 0)
(7.33503 0.00477169 0)
(7.33628 0.00587071 0)
(7.33773 0.0068165 0)
(7.33936 0.00760519 0)
(7.34112 0.00823824 0)
(7.34299 0.00872069 0)
(7.34493 0.00906014 0)
(7.34692 0.00926551 0)
(7.34895 0.00934601 0)
(7.35099 0.00931062 0)
(7.35304 0.00916781 0)
(7.35508 0.00892537 0)
(7.35711 0.00859029 0)
(7.35912 0.00816875 0)
(7.3611 0.00766613 0)
(7.36304 0.00708707 0)
(7.36495 0.00643559 0)
(7.36682 0.00571515 0)
(7.36864 0.00492879 0)
(7.37042 0.00407927 0)
(7.37215 0.00316918 0)
(7.37382 0.00220108 0)
(7.37544 0.00117762 0)
(7.377 0.000101701 0)
(7.37849 -0.0010235 0)
(7.37993 -0.00219439 0)
(7.38129 -0.003407 0)
(7.38259 -0.00465692 0)
(7.38382 -0.00593955 0)
(7.38498 -0.00724878 0)
(7.33303 0.000635244 0)
(7.33334 0.00187923 0)
(7.33398 0.00305043 0)
(7.33491 0.00411832 0)
(7.33609 0.00506266 0)
(7.33746 0.00587228 0)
(7.339 0.00654275 0)
(7.34067 0.00707445 0)
(7.34245 0.00747104 0)
(7.34431 0.00773845 0)
(7.34622 0.00788388 0)
(7.34816 0.00791495 0)
(7.35013 0.00783922 0)
(7.3521 0.00766394 0)
(7.35406 0.00739583 0)
(7.35602 0.00704098 0)
(7.35795 0.00660488 0)
(7.35986 0.00609235 0)
(7.36173 0.00550766 0)
(7.36357 0.00485456 0)
(7.36537 0.00413637 0)
(7.36712 0.00335611 0)
(7.36883 0.00251657 0)
(7.37048 0.00162045 0)
(7.37208 0.000670442 0)
(7.37363 -0.000330675 0)
(7.37512 -0.00137992 0)
(7.37655 -0.00247409 0)
(7.37791 -0.00360967 0)
(7.37921 -0.00478286 0)
(7.38044 -0.00598957 0)
(7.38161 -0.00722564 0)
(7.38271 -0.00848559 0)
(7.33303 0.000538874 0)
(7.33332 0.0015935 0)
(7.33392 0.00258439 0)
(7.3348 0.00348488 0)
(7.33591 0.0042775 0)
(7.33721 0.00495229 0)
(7.33867 0.00550471 0)
(7.34027 0.00593436 0)
(7.34196 0.0062438 0)
(7.34374 0.00643756 0)
(7.34557 0.00652138 0)
(7.34743 0.00650144 0)
(7.34932 0.00638403 0)
(7.35122 0.0061752 0)
(7.35311 0.00588068 0)
(7.355 0.00550572 0)
(7.35686 0.00505509 0)
(7.35869 0.00453308 0)
(7.3605 0.00394355 0)
(7.36227 0.00328996 0)
(7.364 0.00257545 0)
(7.36568 0.00180294 0)
(7.36732 0.000975202 0)
(7.3689 9.4936e-05 0)
(7.37044 -0.000835133 0)
(7.37191 -0.00181219 0)
(7.37333 -0.00283328 0)
(7.37469 -0.00389525 0)
(7.37599 -0.00499475 0)
(7.37723 -0.00612819 0)
(7.3784 -0.00729184 0)
(7.37951 -0.00848193 0)
(7.38055 -0.00969357 0)
(7.33303 0.000445406 0)
(7.3333 0.00131634 0)
(7.33387 0.00213209 0)
(7.3347 0.00286926 0)
(7.33575 0.00351283 0)
(7.33699 0.00405408 0)
(7.33838 0.00448868 0)
(7.3399 0.00481577 0)
(7.34152 0.00503704 0)
(7.34322 0.00515588 0)
(7.34497 0.00517675 0)
(7.34677 0.00510456 0)
(7.34858 0.0049444 0)
(7.35041 0.00470124 0)
(7.35223 0.00437984 0)
(7.35404 0.00398462 0)
(7.35584 0.00351968 0)
(7.35761 0.00298875 0)
(7.35935 0.00239526 0)
(7.36105 0.00174234 0)
(7.36271 0.00103291 0)
(7.36432 0.000269737 0)
(7.36589 -0.000544509 0)
(7.36741 -0.00140719 0)
(7.36888 -0.00231563 0)
(7.37029 -0.00326708 0)
(7.37165 -0.00425867 0)
(7.37294 -0.00528738 0)
(7.37418 -0.00635006 0)
(7.37535 -0.0074434 0)
(7.37647 -0.00856397 0)
(7.37752 -0.00970844 0)
(7.37851 -0.0108724 0)
(7.33303 0.000354591 0)
(7.33329 0.00104696 0)
(7.33382 0.00169209 0)
(7.33461 0.00226945 0)
(7.33561 0.00276622 0)
(7.33678 0.00317501 0)
(7.33811 0.00349202 0)
(7.33956 0.00371615 0)
(7.34112 0.00384845 0)
(7.34275 0.00389137 0)
(7.34443 0.00384826 0)
(7.34616 0.00372289 0)
(7.3479 0.00351924 0)
(7.34966 0.00324125 0)
(7.35142 0.00289275 0)
(7.35317 0.00247737 0)
(7.3549 0.00199851 0)
(7.3566 0.00145936 0)
(7.35827 0.000862873 0)
(7.35991 0.000211839 0)
(7.36151 -0.000491095 0)
(7.36306 -0.00124337 0)
(7.36456 -0.00204249 0)
(7.36602 -0.00288593 0)
(7.36742 -0.00377114 0)
(7.36877 -0.0046955 0)
(7.37006 -0.00565629 0)
(7.3713 -0.00665068 0)
(7.37247 -0.00767575 0)
(7.37359 -0.00872849 0)
(7.37465 -0.00980579 0)
(7.37564 -0.0109047 0)
(7.37658 -0.0120212 0)
(7.33303 0.000266185 0)
(7.33327 0.000784603 0)
(7.33378 0.00126302 0)
(7.33453 0.00168346 0)
(7.33548 0.00203516 0)
(7.3366 0.0023123 0)
(7.33787 0.0025118 0)
(7.33926 0.0026326 0)
(7.34075 0.00267527 0)
(7.34232 0.00264149 0)
(7.34394 0.00253365 0)
(7.3456 0.00235448 0)
(7.34729 0.0021069 0)
(7.34898 0.00179387 0)
(7.35068 0.00141834 0)
(7.35236 0.000983121 0)
(7.35403 0.000490945 0)
(7.35567 -5.55913e-05 0)
(7.35728 -0.000654001 0)
(7.35886 -0.00130189 0)
(7.36039 -0.00199692 0)
(7.36188 -0.00273679 0)
(7.36333 -0.00351921 0)
(7.36472 -0.00434186 0)
(7.36606 -0.00520236 0)
(7.36735 -0.00609826 0)
(7.36858 -0.00702706 0)
(7.36976 -0.00798613 0)
(7.37088 -0.00897282 0)
(7.37194 -0.0099844 0)
(7.37294 -0.0110181 0)
(7.37389 -0.0120713 0)
(7.37478 -0.0131404 0)
(7.33303 0.00017998 0)
(7.33326 0.000528594 0)
(7.33374 0.000843627 0)
(7.33445 0.0011093 0)
(7.33536 0.00131706 0)
(7.33643 0.00146289 0)
(7.33765 0.00154473 0)
(7.33899 0.00156175 0)
(7.34043 0.0015142 0)
(7.34194 0.00140313 0)
(7.34351 0.00123005 0)
(7.34511 0.00099674 0)
(7.34674 0.000705102 0)
(7.34838 0.000357148 0)
(7.35001 -4.50755e-05 0)
(7.35164 -0.000499522 0)
(7.35325 -0.00100416 0)
(7.35483 -0.00155699 0)
(7.35638 -0.00215603 0)
(7.3579 -0.00279929 0)
(7.35938 -0.00348481 0)
(7.36081 -0.00421059 0)
(7.36219 -0.00497458 0)
(7.36353 -0.00577471 0)
(7.36481 -0.00660883 0)
(7.36604 -0.00747471 0)
(7.36722 -0.00837007 0)
(7.36834 -0.00929256 0)
(7.3694 -0.0102398 0)
(7.37041 -0.0112093 0)
(7.37136 -0.0121987 0)
(7.37226 -0.0132056 0)
(7.3731 -0.0142269 0)
(7.33302 9.58426e-05 0)
(7.33325 0.000278453 0)
(7.3337 0.000432822 0)
(7.33438 0.000545074 0)
(7.33525 0.000609158 0)
(7.33629 0.000623383 0)
(7.33746 0.000587029 0)
(7.33875 0.000499635 0)
(7.34014 0.000361266 0)
(7.3416 0.000172449 0)
(7.34312 -6.60987e-05 0)
(7.34468 -0.000353576 0)
(7.34625 -0.000689074 0)
(7.34784 -0.00107156 0)
(7.34942 -0.00149987 0)
(7.351 -0.00197279 0)
(7.35255 -0.00248898 0)
(7.35408 -0.00304706 0)
(7.35558 -0.00364557 0)
(7.35704 -0.00428298 0)
(7.35846 -0.00495769 0)
(7.35983 -0.00566803 0)
(7.36116 -0.00641227 0)
(7.36245 -0.00718858 0)
(7.36367 -0.00799508 0)
(7.36485 -0.00882979 0)
(7.36597 -0.00969068 0)
(7.36704 -0.0105757 0)
(7.36805 -0.0114826 0)
(7.36901 -0.0124094 0)
(7.36991 -0.0133539 0)
(7.37076 -0.014314 0)
(7.37155 -0.015287 0)
(7.33302 1.37865e-05 0)
(7.33323 3.40631e-05 0)
(7.33367 2.98608e-05 0)
(7.33432 -1.10736e-05 0)
(7.33515 -9.15308e-05 0)
(7.33615 -0.000210061 0)
(7.33729 -0.000365695 0)
(7.33855 -0.000558424 0)
(7.33989 -0.000788296 0)
(7.34132 -0.00105525 0)
(7.34279 -0.00135932 0)
(7.3443 -0.00170067 0)
(7.34583 -0.00207937 0)
(7.34737 -0.00249534 0)
(7.34891 -0.00294836 0)
(7.35043 -0.00343803 0)
(7.35194 -0.00396378 0)
(7.35342 -0.00452489 0)
(7.35486 -0.00512048 0)
(7.35627 -0.00574951 0)
(7.35764 -0.00641082 0)
(7.35897 -0.00710313 0)
(7.36025 -0.00782503 0)
(7.36148 -0.00857502 0)
(7.36265 -0.00935149 0)
(7.36378 -0.0101528 0)
(7.36485 -0.0109771 0)
(7.36587 -0.0118226 0)
(7.36683 -0.0126875 0)
(7.36774 -0.01357 0)
(7.3686 -0.0144681 0)
(7.3694 -0.0153802 0)
(7.37015 -0.0163039 0)
(7.33302 -6.58928e-05 0)
(7.33322 -0.000204008 0)
(7.33363 -0.000365392 0)
(7.33425 -0.000560817 0)
(7.33506 -0.000788294 0)
(7.33603 -0.00104195 0)
(7.33714 -0.00131873 0)
(7.33836 -0.0016181 0)
(7.33968 -0.00194014 0)
(7.34107 -0.00228536 0)
(7.34251 -0.00265481 0)
(7.34399 -0.00304982 0)
(7.34548 -0.0034716 0)
(7.34698 -0.00392108 0)
(7.34848 -0.00439895 0)
(7.34996 -0.00490562 0)
(7.35142 -0.00544122 0)
(7.35285 -0.00600564 0)
(7.35425 -0.00659852 0)
(7.35562 -0.0072193 0)
(7.35694 -0.00786724 0)
(7.35822 -0.00854142 0)
(7.35945 -0.00924077 0)
(7.36063 -0.00996412 0)
(7.36176 -0.0107102 0)
(7.36283 -0.0114775 0)
(7.36386 -0.0122647 0)
(7.36483 -0.0130701 0)
(7.36575 -0.0138924 0)
(7.36661 -0.0147297 0)
(7.36742 -0.0155807 0)
(7.36818 -0.0164437 0)
(7.36889 -0.0173167 0)
(7.33302 -0.000142337 0)
(7.3332 -0.000433878 0)
(7.33359 -0.000752023 0)
(7.33418 -0.00110562 0)
(7.33496 -0.00148477 0)
(7.33591 -0.00187739 0)
(7.337 -0.00227843 0)
(7.33821 -0.00268682 0)
(7.3395 -0.00310225 0)
(7.34087 -0.00352531 0)
(7.34229 -0.0039579 0)
(7.34373 -0.00440266 0)
(7.34519 -0.00486221 0)
(7.34666 -0.00533885 0)
(7.34812 -0.00583455 0)
(7.34957 -0.00635084 0)
(7.35099 -0.00688885 0)
(7.35238 -0.00744927 0)
(7.35374 -0.00803245 0)
(7.35506 -0.00863839 0)
(7.35634 -0.00926684 0)
(7.35758 -0.00991729 0)
(7.35876 -0.010589 0)
(7.3599 -0.0112812 0)
(7.36098 -0.0119928 0)
(7.36202 -0.0127227 0)
(7.363 -0.0134696 0)
(7.36393 -0.0142324 0)
(7.3648 -0.0150097 0)
(7.36562 -0.0158001 0)
(7.36639 -0.0166025 0)
(7.36711 -0.0174155 0)
(7.36778 -0.0182376 0)
(7.33302 -0.000213548 0)
(7.33318 -0.000651043 0)
(7.33353 -0.00112717 0)
(7.33409 -0.00164695 0)
(7.33485 -0.00218592 0)
(7.33579 -0.00272262 0)
(7.33687 -0.00325071 0)
(7.33807 -0.00377047 0)
(7.33935 -0.00428275 0)
(7.34071 -0.0047893 0)
(7.34211 -0.00529314 0)
(7.34354 -0.00579771 0)
(7.34498 -0.00630623 0)
(7.34643 -0.00682162 0)
(7.34786 -0.00734644 0)
(7.34928 -0.00788289 0)
(7.35067 -0.00843271 0)
(7.35202 -0.00899722 0)
(7.35335 -0.00957735 0)
(7.35463 -0.0101737 0)
(7.35587 -0.0107865 0)
(7.35706 -0.0114159 0)
(7.35821 -0.0120615 0)
(7.3593 -0.0127229 0)
(7.36034 -0.0133996 0)
(7.36134 -0.0140908 0)
(7.36228 -0.0147956 0)
(7.36316 -0.0155132 0)
(7.364 -0.0162425 0)
(7.36478 -0.0169825 0)
(7.36551 -0.0177321 0)
(7.36618 -0.0184903 0)
(7.36681 -0.0192552 0)
(7.33301 -0.000275144 0)
(7.33315 -0.00084612 0)
(7.33345 -0.00148403 0)
(7.33397 -0.00218425 0)
(7.33471 -0.00289846 0)
(7.33565 -0.00359187 0)
(7.33673 -0.0042529 0)
(7.33793 -0.00487826 0)
(7.33921 -0.0054684 0)
(7.34056 -0.00602869 0)
(7.34196 -0.00656735 0)
(7.34337 -0.00709238 0)
(7.3448 -0.00761055 0)
(7.34623 -0.00812744 0)
(7.34764 -0.00864763 0)
(7.34903 -0.0091747 0)
(7.3504 -0.00971129 0)
(7.35173 -0.0102593 0)
(7.35302 -0.01082 0)
(7.35427 -0.0113943 0)
(7.35548 -0.0119824 0)
(7.35664 -0.0125846 0)
(7.35775 -0.0132006 0)
(7.3588 -0.01383 0)
(7.35981 -0.0144724 0)
(7.36077 -0.015127 0)
(7.36167 -0.0157931 0)
(7.36252 -0.01647 0)
(7.36332 -0.0171567 0)
(7.36406 -0.0178525 0)
(7.36476 -0.0185564 0)
(7.3654 -0.019268 0)
(7.366 -0.0199861 0)
(7.33301 -0.000316753 0)
(7.33308 -0.00100139 0)
(7.3333 -0.00181546 0)
(7.33377 -0.002714 0)
(7.3345 -0.00361039 0)
(7.33545 -0.00447624 0)
(7.33656 -0.00531354 0)
(7.3378 -0.00611611 0)
(7.33911 -0.00687407 0)
(7.34049 -0.00758519 0)
(7.3419 -0.00825386 0)
(7.34332 -0.00888648 0)
(7.34474 -0.00948972 0)
(7.34615 -0.0100702 0)
(7.34754 -0.0106343 0)
(7.34891 -0.0111876 0)
(7.35025 -0.0117348 0)
(7.35154 -0.0122799 0)
(7.3528 -0.0128259 0)
(7.35402 -0.0133755 0)
(7.35519 -0.0139304 0)
(7.35631 -0.0144919 0)
(7.35738 -0.015061 0)
(7.3584 -0.0156383 0)
(7.35937 -0.0162239 0)
(7.36029 -0.0168179 0)
(7.36115 -0.0174201 0)
(7.36196 -0.0180303 0)
(7.36272 -0.0186479 0)
(7.36343 -0.0192723 0)
(7.36409 -0.019903 0)
(7.36469 -0.020539 0)
(7.36525 -0.021179 0)
(7.33299 -0.000312258 0)
(7.33294 -0.00106817 0)
(7.33303 -0.00211774 0)
(7.33344 -0.00329443 0)
(7.33417 -0.00437639 0)
(7.33511 -0.00530474 0)
(7.33621 -0.00611108 0)
(7.33743 -0.00682902 0)
(7.33876 -0.00748213 0)
(7.34015 -0.00809066 0)
(7.34158 -0.00867072 0)
(7.34302 -0.00923328 0)
(7.34446 -0.00978569 0)
(7.34589 -0.0103332 0)
(7.34729 -0.0108794 0)
(7.34867 -0.0114268 0)
(7.35 -0.0119771 0)
(7.35129 -0.0125315 0)
(7.35254 -0.0130905 0)
(7.35375 -0.0136549 0)
(7.3549 -0.0142248 0)
(7.356 -0.0148003 0)
(7.35706 -0.0153815 0)
(7.35806 -0.0159682 0)
(7.359 -0.0165603 0)
(7.3599 -0.0171574 0)
(7.36074 -0.0177592 0)
(7.36153 -0.0183655 0)
(7.36227 -0.0189758 0)
(7.36295 -0.0195898 0)
(7.36359 -0.0202072 0)
(7.36418 -0.020828 0)
(7.36473 -0.0214518 0)
(7.33295 -0.000217553 0)
(7.33262 -0.00093718 0)
(7.33243 -0.00220775 0)
(7.33281 -0.00383454 0)
(7.33371 -0.00557664 0)
(7.33485 -0.00728424 0)
(7.33611 -0.00884557 0)
(7.33743 -0.0101987 0)
(7.3388 -0.0113421 0)
(7.34019 -0.0123053 0)
(7.34159 -0.0131209 0)
(7.34299 -0.0138179 0)
(7.34438 -0.0144227 0)
(7.34574 -0.0149584 0)
(7.34709 -0.0154439 0)
(7.34841 -0.0158944 0)
(7.34969 -0.0163214 0)
(7.35094 -0.0167339 0)
(7.35215 -0.0171386 0)
(7.35332 -0.0175408 0)
(7.35444 -0.0179439 0)
(7.35552 -0.0183507 0)
(7.35655 -0.018763 0)
(7.35754 -0.019182 0)
(7.35847 -0.0196083 0)
(7.35936 -0.0200424 0)
(7.3602 -0.0204842 0)
(7.36099 -0.0209337 0)
(7.36172 -0.0213905 0)
(7.36241 -0.0218541 0)
(7.36305 -0.0223239 0)
(7.36364 -0.0227992 0)
(7.36418 -0.0232787 0)
(7.3329 0.000113775 0)
(7.33207 -0.000906124 0)
(7.33126 -0.00222289 0)
(7.33111 -0.00289886 0)
(7.33162 -0.00318658 0)
(7.33258 -0.0035466 0)
(7.33387 -0.00409074 0)
(7.33538 -0.00475731 0)
(7.33699 -0.00549974 0)
(7.33863 -0.00629883 0)
(7.34026 -0.00713565 0)
(7.34188 -0.00798976 0)
(7.34346 -0.00884552 0)
(7.34501 -0.00969299 0)
(7.34651 -0.0105259 0)
(7.34797 -0.0113405 0)
(7.34938 -0.0121347 0)
(7.35075 -0.0129079 0)
(7.35207 -0.0136604 0)
(7.35334 -0.014393 0)
(7.35456 -0.0151067 0)
(7.35573 -0.015803 0)
(7.35686 -0.0164831 0)
(7.35794 -0.0171483 0)
(7.35896 -0.0177998 0)
(7.35994 -0.0184389 0)
(7.36087 -0.0190665 0)
(7.36174 -0.0196836 0)
(7.36257 -0.020291 0)
(7.36335 -0.0208896 0)
(7.36409 -0.0214801 0)
(7.36478 -0.0220631 0)
(7.36542 -0.0226391 0)
(7.33241 0.00206622 0)
(7.33046 -0.000597158 0)
(7.33031 -0.00731237 0)
(7.33141 -0.0137494 0)
(7.33241 -0.0184508 0)
(7.33315 -0.0216184 0)
(7.33399 -0.0236701 0)
(7.33505 -0.0249112 0)
(7.33629 -0.0255799 0)
(7.33764 -0.025866 0)
(7.33909 -0.0259088 0)
(7.34063 -0.0258059 0)
(7.34224 -0.0256244 0)
(7.3439 -0.0254097 0)
(7.34558 -0.0251913 0)
(7.34727 -0.0249881 0)
(7.34896 -0.0248115 0)
(7.35064 -0.024668 0)
(7.35229 -0.0245607 0)
(7.35391 -0.0244906 0)
(7.3555 -0.0244571 0)
(7.35704 -0.024459 0)
(7.35853 -0.0244943 0)
(7.35998 -0.0245608 0)
(7.36137 -0.0246564 0)
(7.36271 -0.0247787 0)
(7.36398 -0.0249255 0)
(7.3652 -0.0250947 0)
(7.36637 -0.0252844 0)
(7.36747 -0.0254926 0)
(7.36851 -0.0257178 0)
(7.36949 -0.0259589 0)
(7.37041 -0.0262148 0)
(7.32878 0.00627823 0)
(7.31725 0.0179461 0)
(7.31242 0.0251466 0)
(7.31395 0.0271892 0)
(7.3178 0.0258674 0)
(7.32198 0.0230387 0)
(7.32619 0.0196599 0)
(7.33041 0.0160883 0)
(7.33455 0.0125061 0)
(7.33855 0.00905197 0)
(7.3424 0.00581064 0)
(7.34611 0.00281431 0)
(7.34969 6.57195e-05 0)
(7.35313 -0.00244433 0)
(7.35644 -0.00473062 0)
(7.35962 -0.00681114 0)
(7.36268 -0.00870518 0)
(7.36562 -0.0104317 0)
(7.36844 -0.0120085 0)
(7.37115 -0.0134519 0)
(7.37374 -0.0147767 0)
(7.37621 -0.0159961 0)
(7.37858 -0.0171219 0)
(7.38084 -0.0181644 0)
(7.38299 -0.0191329 0)
(7.38503 -0.0200355 0)
(7.38697 -0.0208791 0)
(7.38882 -0.0216702 0)
(7.39056 -0.0224139 0)
(7.39221 -0.0231151 0)
(7.39377 -0.0237776 0)
(7.39524 -0.0244041 0)
(7.39663 -0.0249981 0)
(7.33379 -0.0332977 0)
(7.333 -0.0723045 0)
(7.32812 -0.0856773 0)
(7.32657 -0.0871144 0)
(7.33014 -0.0847269 0)
(7.33737 -0.0807681 0)
(7.34634 -0.0759397 0)
(7.35584 -0.0708976 0)
(7.36534 -0.0660983 0)
(7.37458 -0.0617142 0)
(7.3834 -0.0577737 0)
(7.3917 -0.0542676 0)
(7.39945 -0.0511735 0)
(7.40663 -0.0484581 0)
(7.41327 -0.0460822 0)
(7.41939 -0.0440072 0)
(7.42501 -0.0421976 0)
(7.43017 -0.0406213 0)
(7.43488 -0.0392497 0)
(7.43919 -0.0380575 0)
(7.44311 -0.0370226 0)
(7.44667 -0.0361259 0)
(7.4499 -0.0353504 0)
(7.45282 -0.0346815 0)
(7.45544 -0.0341066 0)
(7.45778 -0.0336145 0)
(7.45987 -0.0331956 0)
(7.46172 -0.0328415 0)
(7.46334 -0.0325448 0)
(7.46475 -0.0322992 0)