/*--------------------------------*- C++ -*----------------------------------*\
| =========                 |                                                 |
| \\      /  F ield         | OpenFOAM: The Open Source CFD Toolbox           |
|  \\    /   O peration     | Version:  4.1                                   |
|   \\  /    A nd           | Web:      www.OpenFOAM.org                      |
|    \\/     M anipulation  |                                                 |
\*---------------------------------------------------------------------------*/
FoamFile
{
    version     2.0;
    format      ascii;
    class       volScalarField;
    location    "1600";
    object      k;
}
// * * * * * * * * * * * * * * * * * * * * * * * * * * * * * * * * * * * * * //

dimensions      [0 2 -2 0 0 0 0];

internalField   nonuniform List<scalar> 
6820
(
0.241787
0.289665
0.336844
0.381951
0.423953
0.46211
0.495948
0.525265
0.550093
0.57064
0.587232
0.60026
0.610145
0.617305
0.622142
0.625026
0.626287
0.62622
0.625078
0.623081
0.620414
0.617234
0.613671
0.609833
0.605811
0.601678
0.597494
0.593307
0.589155
0.585071
0.581074
0.577259
0.574892
0.202474
0.204679
0.206995
0.209467
0.212041
0.214681
0.217362
0.220056
0.222733
0.22537
0.227954
0.230479
0.232942
0.235349
0.237707
0.240025
0.242313
0.244581
0.246837
0.249089
0.251344
0.253607
0.255883
0.258175
0.260482
0.262807
0.265146
0.2675
0.269864
0.272236
0.274614
0.276992
0.279891
0.199741
0.199215
0.198471
0.197596
0.196619
0.195573
0.194483
0.193366
0.192235
0.191099
0.18997
0.188855
0.187761
0.186695
0.185662
0.184667
0.183716
0.182812
0.181958
0.181158
0.180414
0.179725
0.179091
0.17851
0.177983
0.177509
0.177086
0.176713
0.176389
0.176112
0.175879
0.175696
0.175595
0.199153
0.198176
0.197113
0.195992
0.194809
0.193571
0.192297
0.191001
0.189694
0.188384
0.187078
0.185782
0.184501
0.183238
0.181997
0.180781
0.179591
0.178431
0.177301
0.176204
0.17514
0.17411
0.173114
0.172153
0.171225
0.170332
0.169471
0.168644
0.16785
0.167087
0.166355
0.165653
0.164982
0.198981
0.1979
0.196807
0.195699
0.194559
0.193388
0.192197
0.190994
0.189785
0.188574
0.187366
0.186167
0.184978
0.183802
0.182643
0.181503
0.180382
0.179283
0.178206
0.177153
0.176124
0.175121
0.174143
0.17319
0.172263
0.171361
0.170485
0.169633
0.168807
0.168005
0.167226
0.166471
0.165731
0.198926
0.197795
0.196678
0.195576
0.194473
0.193363
0.192249
0.191134
0.190019
0.188909
0.187806
0.186711
0.185628
0.184558
0.183504
0.182465
0.181444
0.180441
0.179457
0.178492
0.177548
0.176624
0.17572
0.174837
0.173974
0.173133
0.172312
0.171511
0.17073
0.169969
0.169228
0.168505
0.167791
0.198906
0.197755
0.196631
0.195537
0.194463
0.193399
0.192342
0.191294
0.190254
0.189222
0.188201
0.187192
0.186194
0.18521
0.184241
0.183286
0.182348
0.181426
0.180521
0.179633
0.178762
0.177909
0.177075
0.176258
0.175459
0.174677
0.173914
0.173168
0.17244
0.171729
0.171035
0.170356
0.169684
0.1989
0.19774
0.196611
0.195517
0.194452
0.193408
0.192382
0.191373
0.19038
0.189401
0.188437
0.187487
0.186552
0.185631
0.184727
0.183837
0.182964
0.182107
0.181266
0.180441
0.179633
0.178841
0.178066
0.177307
0.176564
0.175838
0.175127
0.174433
0.173754
0.173091
0.172443
0.171808
0.171178
0.198897
0.197734
0.196603
0.195508
0.194448
0.193415
0.192408
0.191424
0.19046
0.189517
0.188591
0.187683
0.186792
0.185919
0.185061
0.184221
0.183396
0.182588
0.181796
0.18102
0.18026
0.179516
0.178787
0.178074
0.177376
0.176694
0.176026
0.175373
0.174735
0.174111
0.173501
0.172904
0.17231
0.198896
0.197732
0.1966
0.195505
0.194445
0.193417
0.192417
0.191444
0.190496
0.189571
0.188668
0.187785
0.186923
0.186079
0.185254
0.184446
0.183657
0.182884
0.182128
0.181388
0.180664
0.179956
0.179264
0.178587
0.177925
0.177278
0.176645
0.176026
0.175422
0.174831
0.174253
0.173687
0.173124
0.198896
0.197731
0.196599
0.195504
0.194444
0.193417
0.192421
0.191454
0.190514
0.1896
0.18871
0.187844
0.186999
0.186175
0.185371
0.184587
0.183821
0.183073
0.182342
0.181629
0.180931
0.18025
0.179585
0.178935
0.1783
0.177679
0.177073
0.17648
0.175902
0.175336
0.174784
0.174242
0.173704
0.198896
0.19773
0.196599
0.195504
0.194444
0.193418
0.192423
0.191458
0.190521
0.189612
0.188729
0.18787
0.187035
0.186222
0.18543
0.184659
0.183908
0.183176
0.182462
0.181765
0.181086
0.180423
0.179777
0.179146
0.17853
0.177929
0.177342
0.176769
0.17621
0.175664
0.175131
0.174609
0.174091
0.198896
0.19773
0.196599
0.195504
0.194444
0.193418
0.192424
0.19146
0.190525
0.189618
0.188738
0.187884
0.187054
0.186247
0.185463
0.1847
0.183958
0.183235
0.182532
0.181847
0.181179
0.180529
0.179895
0.179277
0.178675
0.178088
0.177515
0.176956
0.176411
0.175879
0.17536
0.174852
0.174348
0.198896
0.19773
0.196599
0.195504
0.194445
0.193419
0.192425
0.191461
0.190527
0.189621
0.188743
0.18789
0.187062
0.186259
0.185478
0.184719
0.183981
0.183264
0.182567
0.181888
0.181227
0.180584
0.179958
0.179349
0.178755
0.178176
0.177612
0.177063
0.176528
0.176006
0.175496
0.174998
0.174504
0.198896
0.19773
0.196599
0.195505
0.194445
0.193419
0.192425
0.191462
0.190528
0.189623
0.188745
0.187893
0.187067
0.186265
0.185486
0.184729
0.183994
0.18328
0.182586
0.181911
0.181254
0.180616
0.179995
0.17939
0.178802
0.178229
0.177671
0.177127
0.176598
0.176082
0.17558
0.175088
0.174601
0.198896
0.19773
0.196599
0.195505
0.194446
0.19342
0.192426
0.191463
0.190529
0.189624
0.188747
0.187895
0.187069
0.186268
0.18549
0.184734
0.184
0.183288
0.182595
0.181922
0.181267
0.180631
0.180012
0.179411
0.178825
0.178255
0.177701
0.177161
0.176635
0.176123
0.175625
0.175137
0.174654
0.198896
0.19773
0.1966
0.195505
0.194446
0.19342
0.192426
0.191463
0.19053
0.189625
0.188748
0.187896
0.187071
0.18627
0.185492
0.184737
0.184004
0.183292
0.1826
0.181928
0.181275
0.18064
0.180023
0.179422
0.178838
0.17827
0.177718
0.17718
0.176657
0.176147
0.175651
0.175166
0.174686
0.198896
0.19773
0.1966
0.195505
0.194446
0.19342
0.192427
0.191464
0.19053
0.189626
0.188748
0.187897
0.187072
0.186271
0.185493
0.184739
0.184006
0.183294
0.182603
0.181931
0.181279
0.180644
0.180028
0.179428
0.178845
0.178278
0.177726
0.17719
0.176667
0.176159
0.175664
0.175181
0.174702
0.198896
0.197729
0.1966
0.195506
0.194446
0.193421
0.192427
0.191464
0.190531
0.189626
0.188749
0.187898
0.187073
0.186272
0.185494
0.18474
0.184007
0.183296
0.182605
0.181933
0.181281
0.180647
0.180031
0.179432
0.178849
0.178283
0.177732
0.177195
0.176674
0.176166
0.175672
0.17519
0.174712
0.198896
0.197729
0.1966
0.195506
0.194446
0.193421
0.192427
0.191464
0.190531
0.189627
0.188749
0.187899
0.187073
0.186272
0.185495
0.184741
0.184008
0.183297
0.182606
0.181935
0.181283
0.180649
0.180033
0.179434
0.178852
0.178285
0.177734
0.177199
0.176677
0.17617
0.175676
0.175194
0.174717
0.198896
0.197729
0.1966
0.195506
0.194447
0.193421
0.192427
0.191465
0.190532
0.189627
0.18875
0.187899
0.187074
0.186273
0.185496
0.184742
0.184009
0.183298
0.182607
0.181936
0.181284
0.18065
0.180034
0.179435
0.178853
0.178287
0.177737
0.177201
0.17668
0.176173
0.175679
0.175197
0.17472
0.198896
0.197729
0.1966
0.195506
0.194447
0.193421
0.192428
0.191465
0.190532
0.189627
0.18875
0.1879
0.187074
0.186274
0.185497
0.184742
0.18401
0.183299
0.182608
0.181937
0.181285
0.180651
0.180035
0.179437
0.178855
0.178288
0.177738
0.177202
0.176681
0.176174
0.175681
0.175199
0.174722
0.198896
0.197729
0.1966
0.195506
0.194447
0.193421
0.192428
0.191465
0.190532
0.189628
0.188751
0.1879
0.187075
0.186274
0.185497
0.184743
0.18401
0.183299
0.182608
0.181937
0.181285
0.180652
0.180036
0.179437
0.178855
0.178289
0.177739
0.177203
0.176683
0.176176
0.175682
0.1752
0.174723
0.198896
0.19773
0.1966
0.195506
0.194447
0.193421
0.192428
0.191465
0.190532
0.189628
0.188751
0.1879
0.187075
0.186274
0.185497
0.184743
0.184011
0.1833
0.182609
0.181938
0.181286
0.180652
0.180037
0.179438
0.178856
0.17829
0.17774
0.177204
0.176683
0.176176
0.175683
0.175201
0.174724
0.198896
0.197729
0.1966
0.195506
0.194447
0.193421
0.192428
0.191465
0.190532
0.189628
0.188751
0.1879
0.187075
0.186274
0.185497
0.184743
0.184011
0.1833
0.182609
0.181938
0.181286
0.180653
0.180037
0.179438
0.178856
0.17829
0.17774
0.177204
0.176683
0.176176
0.175683
0.175201
0.174724
0.198896
0.197729
0.1966
0.195506
0.194447
0.193421
0.192428
0.191465
0.190532
0.189628
0.188751
0.1879
0.187075
0.186274
0.185497
0.184743
0.184011
0.1833
0.182609
0.181938
0.181286
0.180653
0.180037
0.179438
0.178856
0.17829
0.17774
0.177204
0.176683
0.176177
0.175683
0.175201
0.174724
0.198896
0.197729
0.1966
0.195506
0.194447
0.193421
0.192428
0.191465
0.190532
0.189628
0.188751
0.1879
0.187075
0.186274
0.185497
0.184743
0.18401
0.183299
0.182608
0.181937
0.181285
0.180652
0.180036
0.179437
0.178855
0.178289
0.177738
0.177203
0.176682
0.176175
0.175681
0.175199
0.174722
0.198896
0.197729
0.1966
0.195506
0.194447
0.193421
0.192428
0.191465
0.190532
0.189628
0.188751
0.1879
0.187075
0.186274
0.185497
0.184743
0.18401
0.183299
0.182608
0.181937
0.181285
0.180652
0.180036
0.179437
0.178855
0.178289
0.177738
0.177203
0.176682
0.176175
0.175681
0.175199
0.174722
0.198896
0.197729
0.1966
0.195506
0.194447
0.193421
0.192428
0.191465
0.190532
0.189627
0.18875
0.187899
0.187074
0.186273
0.185496
0.184741
0.184009
0.183297
0.182606
0.181935
0.181283
0.180649
0.180033
0.179434
0.178852
0.178285
0.177735
0.177199
0.176678
0.176171
0.175677
0.175195
0.174718
0.198896
0.197729
0.1966
0.195506
0.194447
0.193421
0.192427
0.191465
0.190532
0.189627
0.18875
0.187899
0.187074
0.186273
0.185496
0.184742
0.184009
0.183298
0.182607
0.181936
0.181283
0.18065
0.180034
0.179435
0.178852
0.178286
0.177735
0.177199
0.176678
0.176171
0.175677
0.175195
0.174717
0.198896
0.197729
0.1966
0.195506
0.194447
0.193421
0.192427
0.191464
0.190531
0.189626
0.188749
0.187898
0.187072
0.186271
0.185493
0.184738
0.184005
0.183294
0.182602
0.181931
0.181278
0.180644
0.180028
0.179428
0.178846
0.178279
0.177728
0.177192
0.17667
0.176162
0.175668
0.175185
0.174708
0.198896
0.197729
0.1966
0.195506
0.194446
0.193421
0.192427
0.191464
0.190531
0.189627
0.18875
0.187899
0.187074
0.186273
0.185496
0.184741
0.184008
0.183297
0.182605
0.181934
0.181281
0.180646
0.18003
0.17943
0.178847
0.17828
0.177728
0.177191
0.176669
0.176161
0.175666
0.175182
0.174704
0.198896
0.19773
0.1966
0.195505
0.194446
0.19342
0.192426
0.191462
0.190528
0.189623
0.188745
0.187893
0.187067
0.186265
0.185487
0.184732
0.183998
0.183286
0.182594
0.181921
0.181267
0.180632
0.180014
0.179413
0.178829
0.178261
0.177708
0.17717
0.176646
0.176136
0.175639
0.175154
0.174674
0.198896
0.19773
0.1966
0.195506
0.194447
0.193422
0.192429
0.191467
0.190534
0.18963
0.188753
0.187901
0.187075
0.186274
0.185495
0.184739
0.184004
0.183291
0.182597
0.181923
0.181267
0.180629
0.180009
0.179405
0.178818
0.178247
0.17769
0.177149
0.176621
0.176108
0.175607
0.175118
0.174633
0.198896
0.19773
0.1966
0.195504
0.194443
0.193416
0.192421
0.191457
0.190522
0.189617
0.188738
0.187885
0.187057
0.186253
0.185472
0.184713
0.183975
0.183258
0.18256
0.181881
0.181221
0.180578
0.179952
0.179343
0.17875
0.178172
0.177609
0.177061
0.176527
0.176007
0.175499
0.175004
0.174512
0.198897
0.197733
0.196606
0.195516
0.194462
0.193441
0.19245
0.191489
0.190556
0.18965
0.18877
0.187914
0.187082
0.186273
0.185486
0.18472
0.183974
0.183248
0.182541
0.181852
0.181181
0.180527
0.17989
0.17927
0.178665
0.178075
0.1775
0.17694
0.176393
0.17586
0.175341
0.174832
0.174328
0.1989
0.197735
0.196605
0.195515
0.194465
0.193449
0.192464
0.191508
0.190579
0.189676
0.188796
0.187939
0.187104
0.186291
0.185497
0.184724
0.18397
0.183235
0.182518
0.181819
0.181138
0.180473
0.179825
0.179193
0.178577
0.177976
0.177391
0.176819
0.176262
0.175719
0.175189
0.174672
0.174158
0.198944
0.197852
0.196795
0.195774
0.194787
0.193827
0.192894
0.191986
0.191101
0.190238
0.189397
0.188577
0.187778
0.186998
0.186237
0.185495
0.184771
0.184066
0.183378
0.182708
0.182054
0.181417
0.180797
0.180192
0.179603
0.179029
0.178471
0.177927
0.177397
0.176881
0.176379
0.175889
0.175406
0.199227
0.198572
0.198048
0.197613
0.197233
0.196892
0.196584
0.196305
0.196052
0.195821
0.19561
0.195418
0.195243
0.195084
0.194942
0.194813
0.194699
0.194597
0.194508
0.194431
0.194364
0.194308
0.194261
0.194224
0.194195
0.194174
0.194162
0.194156
0.194157
0.194164
0.194178
0.194197
0.194225
0.209515
0.220347
0.230808
0.24093
0.250733
0.260233
0.269438
0.278351
0.286978
0.295321
0.303382
0.311166
0.318675
0.325913
0.332885
0.339595
0.346049
0.352252
0.35821
0.363929
0.369416
0.374677
0.379719
0.38455
0.389175
0.393602
0.397838
0.401889
0.405764
0.409467
0.413007
0.416391
0.419648
0.644257
0.805083
0.984484
1.16996
1.33645
1.47314
1.57917
1.65843
1.71684
1.76018
1.79285
1.81763
1.83657
1.85103
1.86176
1.86911
1.87288
1.87351
1.87074
1.86487
1.85632
1.84557
1.83315
1.81963
1.80555
1.79141
1.77761
1.76446
1.75222
1.74108
1.7312
1.72267
1.71555
1.70985
1.70554
1.70254
1.70074
1.69999
1.70014
1.70097
1.7023
1.70392
1.7056
1.70714
1.70833
1.70896
1.70883
1.70777
1.70561
1.7022
1.69741
1.69112
1.68326
1.67375
1.66255
1.64963
1.63498
1.61864
1.60064
1.58104
1.55993
1.5374
1.51357
1.48858
1.46257
1.4357
1.40815
1.38008
1.35168
1.32313
1.29461
1.26631
1.23839
1.21102
1.18435
1.15853
1.13368
1.10988
1.08721
1.06571
1.04541
1.0263
1.00837
0.991592
0.97593
0.961325
0.947706
0.934994
0.923099
0.911925
0.901371
0.891333
0.881717
0.872427
0.863436
0.854708
0.846522
0.839048
0.833707
0.8306
0.287841
0.307521
0.342161
0.39611
0.46865
0.556221
0.652979
0.75262
0.849886
0.941059
1.02401
1.09791
1.16295
1.21993
1.26981
1.31347
1.35139
1.38395
1.41192
1.43561
1.45529
1.47126
1.48384
1.49343
1.50045
1.50533
1.5085
1.51032
1.51116
1.51131
1.51106
1.51063
1.51022
1.50998
1.51001
1.51038
1.51111
1.51217
1.51351
1.51504
1.51667
1.51826
1.51967
1.52076
1.52137
1.52136
1.52057
1.51887
1.51612
1.51221
1.50704
1.50053
1.49261
1.48322
1.47236
1.45999
1.44613
1.43082
1.41409
1.39601
1.37666
1.35614
1.33457
1.31206
1.28876
1.26482
1.24039
1.21563
1.1907
1.16577
1.141
1.11654
1.09254
1.06914
1.04647
1.02464
1.00375
0.983886
0.965089
0.947393
0.930809
0.915332
0.900943
0.88761
0.875289
0.863921
0.853441
0.84377
0.834825
0.826513
0.81874
0.811408
0.804429
0.797712
0.791231
0.784954
0.779123
0.773885
0.770448
0.768765
0.175883
0.177379
0.180713
0.187102
0.197761
0.213715
0.23628
0.26632
0.303956
0.348541
0.399019
0.45403
0.512084
0.571728
0.631658
0.690738
0.747959
0.80228
0.853513
0.90144
0.945898
0.986774
1.02402
1.05767
1.08781
1.11461
1.13828
1.15908
1.17728
1.19317
1.20702
1.21912
1.22973
1.23909
1.24742
1.25488
1.26163
1.26777
1.27336
1.27846
1.28305
1.28713
1.29065
1.29355
1.29577
1.29723
1.29783
1.29749
1.29612
1.29366
1.29003
1.28517
1.27903
1.27158
1.26281
1.25271
1.2413
1.22861
1.21469
1.19961
1.18343
1.16626
1.1482
1.12937
1.1099
1.08993
1.06959
1.04903
1.02839
1.00781
0.987422
0.967369
0.947773
0.928749
0.910406
0.892838
0.876124
0.860326
0.845488
0.831633
0.818767
0.806882
0.795957
0.785963
0.776855
0.768583
0.761084
0.754287
0.748116
0.742487
0.737313
0.732506
0.727984
0.723665
0.719524
0.715529
0.711893
0.708732
0.707058
0.706665
0.164172
0.163488
0.163038
0.16304
0.163751
0.165459
0.168527
0.173355
0.180334
0.189997
0.202772
0.218999
0.238946
0.262768
0.290476
0.321904
0.35667
0.394153
0.433596
0.474404
0.515938
0.557557
0.59865
0.638672
0.677168
0.71378
0.748254
0.780432
0.810239
0.837674
0.862792
0.885695
0.906515
0.925406
0.942534
0.958062
0.972145
0.984923
0.996517
1.00702
1.01652
1.02505
1.03266
1.03934
1.0451
1.04992
1.05375
1.05657
1.05833
1.05898
1.0585
1.05684
1.05397
1.04989
1.04458
1.03807
1.03036
1.02149
1.01152
1.0005
0.988519
0.975658
0.962016
0.947702
0.93283
0.917519
0.901893
0.886074
0.870187
0.85435
0.838682
0.823294
0.808291
0.793773
0.779827
0.766534
0.753961
0.74216
0.731169
0.721007
0.711683
0.703188
0.695508
0.688615
0.682473
0.677039
0.672258
0.668071
0.664409
0.661199
0.658366
0.655829
0.653516
0.651355
0.649321
0.647384
0.645728
0.644437
0.64434
0.64508
0.164797
0.163875
0.162998
0.162212
0.161573
0.161149
0.161034
0.161341
0.162195
0.163749
0.166181
0.169687
0.174467
0.180726
0.188679
0.198533
0.210471
0.224618
0.240986
0.259611
0.280448
0.303371
0.328166
0.354542
0.382142
0.41057
0.439415
0.468277
0.496789
0.524632
0.551545
0.577328
0.60184
0.624995
0.646753
0.667111
0.686093
0.703741
0.720106
0.735243
0.749205
0.762038
0.77378
0.784457
0.794087
0.802677
0.810222
0.816715
0.822138
0.826475
0.829709
0.831824
0.83281
0.832664
0.83139
0.829004
0.82553
0.821004
0.815473
0.808994
0.801636
0.793475
0.784598
0.775097
0.765071
0.754621
0.743853
0.73287
0.721777
0.710674
0.699661
0.688832
0.678276
0.668076
0.658308
0.649041
0.640332
0.63223
0.624768
0.617968
0.611841
0.606385
0.60159
0.597437
0.5939
0.590944
0.588526
0.586596
0.585098
0.583971
0.583149
0.582564
0.582153
0.581851
0.581637
0.581483
0.581543
0.58187
0.583126
0.584819
0.166889
0.165976
0.165066
0.164173
0.163312
0.162504
0.161777
0.16117
0.160729
0.160505
0.160562
0.160974
0.16182
0.163187
0.165168
0.167861
0.171369
0.175792
0.181214
0.187721
0.195405
0.204343
0.214596
0.2262
0.239157
0.253428
0.268932
0.285548
0.303113
0.321437
0.340311
0.359517
0.378843
0.39809
0.417079
0.43566
0.453708
0.471125
0.487836
0.503789
0.518944
0.533275
0.546764
0.559397
0.571161
0.582045
0.592035
0.601115
0.609271
0.616485
0.622743
0.62803
0.632338
0.635662
0.638005
0.639378
0.639797
0.63929
0.637893
0.63565
0.632615
0.62885
0.624422
0.619406
0.613881
0.60793
0.601637
0.595088
0.588368
0.581561
0.574749
0.56801
0.56142
0.555049
0.548963
0.543221
0.537877
0.532973
0.528544
0.524614
0.521197
0.5183
0.51592
0.514046
0.512662
0.511744
0.511259
0.51117
0.511432
0.511995
0.512806
0.513806
0.514942
0.516159
0.517438
0.51875
0.520225
0.521886
0.524241
0.526688
0.168835
0.167969
0.1671
0.16623
0.165369
0.16452
0.163693
0.162901
0.16216
0.161491
0.160917
0.160469
0.160182
0.160095
0.160251
0.160697
0.161481
0.162654
0.164261
0.166347
0.168961
0.17215
0.175962
0.180443
0.185634
0.191569
0.198276
0.205767
0.214041
0.22308
0.232848
0.243291
0.254337
0.265902
0.277889
0.290196
0.302718
0.315351
0.327994
0.340555
0.352948
0.365097
0.376933
0.388395
0.399428
0.409983
0.420015
0.429484
0.438351
0.44658
0.454141
0.461005
0.467148
0.472554
0.477209
0.481109
0.484254
0.486656
0.48833
0.489303
0.489607
0.489283
0.488377
0.486942
0.485035
0.482716
0.480051
0.477104
0.473941
0.47063
0.467235
0.463819
0.460446
0.457175
0.45406
0.451155
0.448506
0.446153
0.444132
0.442469
0.441181
0.44028
0.439772
0.439655
0.43992
0.440554
0.441534
0.442833
0.444419
0.446252
0.448289
0.450482
0.452788
0.455159
0.457577
0.460018
0.462583
0.465272
0.468456
0.471449
0.170384
0.169571
0.168753
0.16793
0.167106
0.166281
0.16546
0.164646
0.163847
0.16307
0.162326
0.161627
0.160989
0.16043
0.15997
0.159633
0.159443
0.159428
0.159616
0.160031
0.160701
0.161651
0.162908
0.164497
0.166443
0.168768
0.171493
0.174638
0.178218
0.182246
0.186728
0.191666
0.197055
0.202884
0.209134
0.215779
0.222786
0.230117
0.237727
0.245569
0.253591
0.26174
0.269963
0.278205
0.286413
0.294534
0.302518
0.310313
0.317873
0.325151
0.332104
0.338692
0.344876
0.350626
0.355913
0.360715
0.365016
0.368807
0.372083
0.37485
0.377118
0.378905
0.380233
0.381133
0.381638
0.381788
0.381625
0.381194
0.380542
0.379716
0.378767
0.377742
0.376691
0.375662
0.374699
0.373847
0.373147
0.372636
0.372345
0.372303
0.372529
0.373039
0.373845
0.37495
0.376354
0.37805
0.380025
0.382263
0.384738
0.387422
0.390282
0.393278
0.396376
0.399535
0.402741
0.405968
0.409297
0.412703
0.416446
0.419776
0.171562
0.170796
0.170024
0.169247
0.168465
0.167679
0.166891
0.166103
0.165316
0.164535
0.163764
0.163006
0.162269
0.161561
0.160892
0.160272
0.159716
0.159237
0.158851
0.158576
0.158426
0.158419
0.158571
0.158899
0.159418
0.160143
0.161088
0.162264
0.163684
0.165356
0.167289
0.16949
0.171962
0.174709
0.177731
0.181026
0.184589
0.188412
0.192485
0.196793
0.201321
0.206048
0.210953
0.216009
0.221191
0.226469
0.23181
0.237183
0.242553
0.247885
0.253143
0.258292
0.263298
0.268126
0.272747
0.277132
0.281257
0.2851
0.288646
0.291885
0.29481
0.297421
0.299722
0.301724
0.303442
0.304894
0.306104
0.307098
0.307904
0.308554
0.309082
0.309522
0.30991
0.31028
0.310669
0.311111
0.311641
0.31229
0.313086
0.314055
0.315219
0.316594
0.318195
0.320029
0.322101
0.324411
0.326952
0.329715
0.332683
0.335834
0.339145
0.342584
0.346124
0.349731
0.353392
0.357082
0.360863
0.364692
0.368737
0.372212
0.172416
0.17169
0.170959
0.170221
0.169479
0.168731
0.16798
0.167224
0.166466
0.165707
0.164948
0.164191
0.16344
0.162697
0.161967
0.161255
0.160569
0.159915
0.159302
0.158739
0.158237
0.157806
0.157456
0.157199
0.157046
0.157007
0.157092
0.157312
0.157673
0.158184
0.158852
0.159681
0.160677
0.161842
0.163181
0.164694
0.166382
0.168244
0.17028
0.172487
0.174861
0.177396
0.180087
0.182923
0.185897
0.188996
0.192206
0.195513
0.198899
0.202346
0.205833
0.209339
0.212842
0.216318
0.219745
0.223099
0.22636
0.229506
0.232521
0.235389
0.238098
0.240638
0.243005
0.245197
0.247215
0.249066
0.250759
0.252305
0.25372
0.255022
0.256231
0.25737
0.25846
0.259529
0.260601
0.261702
0.26286
0.264099
0.265443
0.266915
0.268535
0.270319
0.272282
0.274434
0.276783
0.279333
0.282082
0.285024
0.288151
0.291447
0.294895
0.29847
0.302151
0.30591
0.309736
0.313606
0.317564
0.321554
0.325673
0.329128
0.173028
0.172334
0.171635
0.170931
0.170221
0.169507
0.168787
0.168063
0.167336
0.166604
0.16587
0.165134
0.164396
0.163659
0.162925
0.162195
0.161473
0.160763
0.160068
0.159394
0.158747
0.158133
0.157558
0.15703
0.156556
0.156143
0.1558
0.155533
0.155349
0.155254
0.155254
0.155354
0.155558
0.15587
0.156294
0.156831
0.157483
0.158252
0.159138
0.160141
0.161261
0.162497
0.163847
0.165309
0.16688
0.168556
0.170332
0.172202
0.17416
0.176197
0.178304
0.18047
0.182683
0.184932
0.187202
0.189479
0.191749
0.193999
0.196214
0.198381
0.20049
0.20253
0.204494
0.206376
0.208171
0.20988
0.211505
0.213048
0.214516
0.215919
0.217266
0.218572
0.219851
0.221119
0.222395
0.223696
0.225042
0.226453
0.227949
0.229547
0.231265
0.233119
0.235122
0.237286
0.239619
0.242127
0.244812
0.247673
0.250705
0.253898
0.257238
0.26071
0.264295
0.267972
0.27173
0.275548
0.279455
0.28339
0.287399
0.290701
0.173439
0.172772
0.172099
0.171421
0.170738
0.170051
0.169359
0.168662
0.167961
0.167256
0.166547
0.165834
0.165117
0.164398
0.163677
0.162955
0.162234
0.161514
0.160799
0.160091
0.159393
0.158709
0.158042
0.157396
0.156777
0.156189
0.155638
0.155127
0.154663
0.154251
0.153894
0.153598
0.153366
0.153202
0.15311
0.153091
0.153148
0.153283
0.153497
0.153792
0.154167
0.154624
0.155162
0.155781
0.15648
0.157258
0.158115
0.159047
0.160052
0.161127
0.162269
0.163472
0.164731
0.166041
0.167394
0.168783
0.1702
0.171636
0.173084
0.174535
0.17598
0.177413
0.178827
0.180216
0.181575
0.182902
0.184196
0.185457
0.186687
0.187889
0.18907
0.190237
0.191398
0.192564
0.193747
0.19496
0.196217
0.197532
0.198922
0.2004
0.201982
0.203681
0.205509
0.207478
0.209598
0.211874
0.214312
0.216913
0.219674
0.22259
0.225653
0.22885
0.232169
0.235591
0.239108
0.242701
0.246387
0.250103
0.253862
0.256919
0.173715
0.173067
0.172414
0.171756
0.171094
0.170428
0.169757
0.169082
0.168403
0.16772
0.167032
0.166341
0.165645
0.164946
0.164243
0.163537
0.162829
0.162119
0.161408
0.160698
0.15999
0.159286
0.158588
0.157899
0.15722
0.156556
0.15591
0.155285
0.154683
0.15411
0.153568
0.153061
0.152591
0.152163
0.151779
0.151441
0.151152
0.150914
0.150729
0.150597
0.150521
0.150501
0.150538
0.150632
0.150783
0.150992
0.151259
0.151582
0.151962
0.152396
0.152884
0.153425
0.154015
0.154652
0.155333
0.156055
0.156813
0.157604
0.158422
0.159263
0.160123
0.160995
0.161877
0.162764
0.163652
0.16454
0.165424
0.166305
0.167183
0.16806
0.168937
0.16982
0.170714
0.171625
0.172561
0.173532
0.174548
0.175619
0.176758
0.177976
0.179286
0.180699
0.182226
0.183879
0.185667
0.187597
0.189675
0.191904
0.194285
0.196816
0.199492
0.202305
0.205244
0.208298
0.211457
0.214704
0.218052
0.221433
0.224849
0.227603
0.173885
0.17325
0.172612
0.171969
0.171323
0.170672
0.170018
0.16936
0.168698
0.168031
0.167362
0.166688
0.16601
0.165328
0.164642
0.163953
0.16326
0.162564
0.161865
0.161165
0.160462
0.15976
0.159058
0.158358
0.157662
0.156972
0.156288
0.155614
0.154952
0.154303
0.153671
0.153058
0.152465
0.151897
0.151353
0.150838
0.150353
0.1499
0.14948
0.149095
0.148747
0.148436
0.148164
0.14793
0.147737
0.147585
0.147473
0.147403
0.147373
0.147384
0.147436
0.147528
0.147659
0.147829
0.148036
0.148279
0.148555
0.148863
0.149202
0.149567
0.149957
0.15037
0.150802
0.151252
0.151717
0.152196
0.152687
0.153189
0.153703
0.154229
0.154769
0.155326
0.155902
0.156503
0.157133
0.157799
0.158509
0.159271
0.160093
0.160986
0.16196
0.163024
0.16419
0.165466
0.166862
0.168386
0.170045
0.171844
0.173785
0.17587
0.178095
0.180458
0.182951
0.185564
0.188292
0.191118
0.194051
0.197025
0.200038
0.20246
0.173991
0.173366
0.172737
0.172105
0.17147
0.170831
0.170188
0.169542
0.168892
0.168239
0.167582
0.166922
0.166257
0.16559
0.164918
0.164243
0.163564
0.162882
0.162196
0.161508
0.160816
0.160123
0.159428
0.158731
0.158035
0.15734
0.156647
0.155957
0.155272
0.154592
0.153921
0.153258
0.152607
0.151968
0.151343
0.150733
0.150142
0.149569
0.149016
0.148485
0.147977
0.147493
0.147034
0.146601
0.146195
0.145817
0.145466
0.145144
0.144851
0.144587
0.144352
0.144147
0.143971
0.143824
0.143705
0.143614
0.143551
0.143515
0.143505
0.143519
0.143557
0.143617
0.143698
0.143799
0.143919
0.144057
0.144213
0.144385
0.144574
0.144781
0.145006
0.145251
0.145519
0.145813
0.146135
0.146492
0.146889
0.147331
0.147826
0.148381
0.149005
0.149707
0.150494
0.151377
0.152365
0.153464
0.154684
0.156029
0.157506
0.159116
0.160862
0.16274
0.16475
0.166883
0.169136
0.171495
0.173966
0.176488
0.179065
0.18114
0.17405
0.173431
0.172809
0.172184
0.171556
0.170924
0.170289
0.169652
0.169011
0.168366
0.167719
0.167068
0.166415
0.165757
0.165097
0.164432
0.163765
0.163094
0.16242
0.161742
0.161061
0.160378
0.159692
0.159004
0.158314
0.157623
0.156932
0.156241
0.155551
0.154863
0.154177
0.153496
0.15282
0.152149
0.151486
0.150831
0.150185
0.14955
0.148926
0.148315
0.147718
0.147136
0.146569
0.146018
0.145485
0.14497
0.144473
0.143995
0.143537
0.143099
0.142681
0.142283
0.141906
0.141551
0.141216
0.140901
0.140608
0.140334
0.140081
0.139848
0.139634
0.139439
0.139262
0.139103
0.138962
0.138837
0.138729
0.138638
0.138564
0.138506
0.138467
0.138447
0.138448
0.138472
0.138522
0.138601
0.138712
0.138862
0.139054
0.139296
0.139593
0.139952
0.140382
0.14089
0.141485
0.142174
0.142965
0.143865
0.144881
0.146018
0.147278
0.148664
0.150175
0.15181
0.153565
0.155431
0.157413
0.159457
0.161575
0.163294
0.174085
0.17347
0.172852
0.172231
0.171608
0.170981
0.170352
0.16972
0.169084
0.168446
0.167805
0.167161
0.166514
0.165864
0.165211
0.164555
0.163896
0.163233
0.162568
0.161899
0.161227
0.160553
0.159875
0.159196
0.158513
0.157829
0.157144
0.156457
0.15577
0.155082
0.154395
0.153709
0.153025
0.152343
0.151664
0.150989
0.150318
0.149653
0.148994
0.148342
0.147698
0.147062
0.146435
0.145819
0.145212
0.144618
0.144034
0.143463
0.142905
0.14236
0.141829
0.141312
0.140809
0.14032
0.139846
0.139386
0.138942
0.138512
0.138097
0.137697
0.137311
0.13694
0.136583
0.136241
0.135912
0.135598
0.135297
0.13501
0.134737
0.134479
0.134236
0.134008
0.133798
0.133606
0.133434
0.133285
0.133161
0.133066
0.133004
0.132979
0.132996
0.13306
0.133178
0.133357
0.133603
0.133924
0.134326
0.134818
0.135405
0.136095
0.136893
0.137802
0.138826
0.139965
0.141221
0.142586
0.144067
0.145617
0.147264
0.148615
0.174103
0.17349
0.172875
0.172257
0.171636
0.171012
0.170386
0.169757
0.169125
0.168491
0.167854
0.167214
0.166572
0.165927
0.165279
0.164628
0.163974
0.163318
0.162659
0.161996
0.161331
0.160663
0.159993
0.15932
0.158645
0.157967
0.157288
0.156607
0.155924
0.155241
0.154556
0.153872
0.153187
0.152503
0.15182
0.151138
0.150458
0.14978
0.149106
0.148435
0.147767
0.147105
0.146448
0.145796
0.14515
0.144512
0.14388
0.143256
0.14264
0.142032
0.141434
0.140844
0.140264
0.139694
0.139133
0.138583
0.138043
0.137514
0.136995
0.136486
0.135988
0.135501
0.135025
0.134559
0.134103
0.133659
0.133224
0.132801
0.132388
0.131986
0.131595
0.131216
0.13085
0.130498
0.13016
0.129839
0.129535
0.129252
0.128992
0.128759
0.128555
0.128384
0.128252
0.128164
0.128124
0.12814
0.128216
0.12836
0.128578
0.128877
0.129262
0.12974
0.130315
0.13099
0.131769
0.132648
0.133638
0.134699
0.13587
0.136845
0.174113
0.173502
0.172888
0.172272
0.171652
0.171031
0.170406
0.169779
0.16915
0.168518
0.167883
0.167246
0.166607
0.165964
0.16532
0.164672
0.164022
0.16337
0.162715
0.162057
0.161396
0.160733
0.160068
0.1594
0.15873
0.158057
0.157383
0.156707
0.156029
0.15535
0.15467
0.153988
0.153306
0.152623
0.151941
0.151258
0.150576
0.149894
0.149214
0.148535
0.147858
0.147183
0.146511
0.145842
0.145177
0.144515
0.143857
0.143204
0.142556
0.141913
0.141276
0.140645
0.14002
0.139401
0.138789
0.138184
0.137586
0.136996
0.136412
0.135836
0.135268
0.134707
0.134154
0.133609
0.133071
0.132541
0.132018
0.131504
0.130997
0.130497
0.130006
0.129524
0.12905
0.128585
0.128131
0.127688
0.127256
0.126838
0.126436
0.12605
0.125684
0.125341
0.125023
0.124734
0.124478
0.12426
0.124084
0.123955
0.123879
0.123862
0.123908
0.124025
0.124216
0.124488
0.124844
0.125285
0.125822
0.126423
0.127139
0.127736
0.174119
0.173508
0.172895
0.172279
0.171661
0.17104
0.170417
0.169791
0.169163
0.168532
0.167899
0.167263
0.166625
0.165985
0.165342
0.164697
0.164049
0.163399
0.162746
0.162091
0.161433
0.160773
0.160111
0.159447
0.15878
0.158112
0.157441
0.156769
0.156095
0.155419
0.154742
0.154064
0.153385
0.152705
0.152024
0.151343
0.150661
0.149979
0.149298
0.148617
0.147937
0.147257
0.146579
0.145902
0.145228
0.144555
0.143885
0.143217
0.142552
0.141891
0.141233
0.140578
0.139928
0.139282
0.138641
0.138004
0.137372
0.136745
0.136123
0.135506
0.134895
0.134289
0.133689
0.133094
0.132505
0.131921
0.131343
0.13077
0.130202
0.12964
0.129084
0.128533
0.127988
0.12745
0.126917
0.126392
0.125874
0.125365
0.124865
0.124376
0.123899
0.123435
0.122988
0.122559
0.12215
0.121766