/*--------------------------------*- C++ -*----------------------------------*\
| =========                 |                                                 |
| \\      /  F ield         | OpenFOAM: The Open Source CFD Toolbox           |
|  \\    /   O peration     | Version:  4.1                                   |
|   \\  /    A nd           | Web:      www.OpenFOAM.org                      |
|    \\/     M anipulation  |                                                 |
\*---------------------------------------------------------------------------*/
FoamFile
{
    version     2.0;
    format      ascii;
    class       volScalarField;
    location    "1600";
    object      p;
}
// * * * * * * * * * * * * * * * * * * * * * * * * * * * * * * * * * * * * * //

dimensions      [0 2 -2 0 0 0 0];

internalField   nonuniform List<scalar> 
6820
(
-8.24308
-8.50064
-8.59826
-8.61898
-8.65222
-8.69754
-8.73918
-8.77536
-8.8091
-8.84123
-8.87131
-8.89923
-8.92522
-8.94956
-8.97243
-8.99398
-9.01439
-9.03379
-9.05234
-9.07014
-9.0873
-9.10392
-9.12008
-9.13585
-9.15131
-9.16651
-9.18152
-9.19638
-9.21119
-9.22582
-9.24121
-9.25507
-9.2852
-8.35587
-8.52192
-8.60064
-8.62154
-8.64848
-8.68375
-8.71538
-8.74231
-8.76764
-8.79239
-8.81629
-8.83919
-8.86127
-8.88267
-8.90344
-8.92363
-8.94327
-8.96243
-8.98113
-8.99943
-9.01736
-9.03496
-9.05226
-9.06931
-9.08612
-9.10275
-9.11923
-9.13558
-9.15188
-9.16811
-9.1845
-9.20101
-9.21772
-8.41212
-8.51683
-8.59486
-8.62678
-8.65499
-8.6882
-8.71866
-8.745
-8.76964
-8.79358
-8.8166
-8.83859
-8.85968
-8.88001
-8.89965
-8.91865
-8.93706
-8.95494
-8.97236
-8.98935
-9.00598
-9.02227
-9.03827
-9.05403
-9.06957
-9.08494
-9.10018
-9.11532
-9.13041
-9.14545
-9.16062
-9.17552
-9.19105
-8.4619
-8.5369
-8.60955
-8.64472
-8.67221
-8.70379
-8.73382
-8.76017
-8.78458
-8.80802
-8.83039
-8.85165
-8.87195
-8.89144
-8.91023
-8.92838
-8.94596
-8.96305
-8.9797
-8.99596
-9.01188
-9.02751
-9.04287
-9.05802
-9.07298
-9.08779
-9.10248
-9.1171
-9.13167
-9.14622
-9.16081
-9.17539
-9.19005
-8.5034
-8.55463
-8.61484
-8.64971
-8.67696
-8.70722
-8.73647
-8.76251
-8.78666
-8.80988
-8.83216
-8.85344
-8.87385
-8.89353
-8.91254
-8.93094
-8.94878
-8.96612
-8.98302
-8.99951
-9.01563
-9.03144
-9.04695
-9.06222
-9.07727
-9.09214
-9.10687
-9.12148
-9.13602
-9.15051
-9.165
-9.17952
-9.19411
-8.53819
-8.57404
-8.62489
-8.66018
-8.68784
-8.7169
-8.74526
-8.77098
-8.79494
-8.81795
-8.84003
-8.86113
-8.88135
-8.9008
-8.91957
-8.93771
-8.95528
-8.97234
-8.98895
-9.00515
-9.02098
-9.03649
-9.05172
-9.0667
-9.08146
-9.09605
-9.11048
-9.1248
-9.13904
-9.15323
-9.16742
-9.18164
-9.19598
-8.56803
-8.59359
-8.63549
-8.66866
-8.69514
-8.72225
-8.74916
-8.77409
-8.79747
-8.81994
-8.84158
-8.86233
-8.8823
-8.90157
-8.92021
-8.93827
-8.95582
-8.97288
-8.98952
-9.00576
-9.02165
-9.03722
-9.05251
-9.06754
-9.08236
-9.09697
-9.11143
-9.12575
-9.13996
-9.1541
-9.16819
-9.18229
-9.19645
-8.59397
-8.61255
-8.64697
-8.67781
-8.70355
-8.72943
-8.75534
-8.77975
-8.80277
-8.82492
-8.84629
-8.86686
-8.88667
-8.9058
-8.92432
-8.94226
-8.95968
-8.97662
-8.99311
-9.00921
-9.02495
-9.04035
-9.05546
-9.07031
-9.08491
-9.09932
-9.11354
-9.12761
-9.14155
-9.15539
-9.16916
-9.18288
-9.19658
-8.61682
-8.63065
-8.65895
-8.68706
-8.71152
-8.73582
-8.76029
-8.78372
-8.80599
-8.8275
-8.84832
-8.86842
-8.88785
-8.90665
-8.92489
-8.9426
-8.95982
-8.97659
-8.99295
-9.00892
-9.02455
-9.03987
-9.05489
-9.06965
-9.08418
-9.09849
-9.11262
-9.12657
-9.14038
-9.15406
-9.16763
-9.18111
-9.19451
-8.6372
-8.64773
-8.67109
-8.6964
-8.71949
-8.74242
-8.76568
-8.78829
-8.81
-8.83104
-8.85148
-8.87129
-8.89048
-8.90909
-8.92717
-8.94474
-8.96184
-8.97849
-8.99474
-9.01061
-9.02612
-9.04131
-9.05621
-9.07082
-9.08519
-9.09933
-9.11325
-9.12698
-9.14054
-9.15393
-9.16718
-9.18027
-9.1932
-8.65553
-8.66373
-8.68315
-8.70579
-8.72739
-8.74895
-8.77092
-8.79255
-8.81349
-8.83387
-8.85374
-8.87305
-8.89182
-8.91006
-8.92782
-8.9451
-8.96193
-8.97835
-8.99438
-9.01005
-9.02537
-9.04038
-9.0551
-9.06954
-9.08373
-9.09768
-9.11141
-9.12494
-9.13827
-9.15141
-9.16437
-9.17715
-9.18974
-8.67214
-8.67866
-8.69494
-8.71511
-8.73519
-8.75544
-8.77619
-8.79686
-8.81709
-8.83687
-8.85623
-8.87514
-8.89358
-8.91154
-8.92905
-8.94613
-8.96279
-8.97905
-8.99493
-9.01046
-9.02565
-9.04052
-9.05509
-9.06939
-9.08341
-9.09719
-9.11072
-9.12403
-9.13712
-9.14999
-9.16264
-9.17505
-9.18721
-8.68728
-8.69253
-8.70633
-8.7243
-8.74287
-8.76185
-8.78142
-8.80112
-8.82057
-8.8397
-8.85849
-8.8769
-8.8949
-8.91248
-8.92965
-8.94642
-8.9628
-8.97879
-8.99443
-9.00972
-9.02468
-9.03933
-9.05369
-9.06775
-9.08155
-9.09509
-9.10838
-9.12143
-9.13423
-9.1468
-9.15913
-9.1712
-9.183
-8.70111
-8.70541
-8.71722
-8.73324
-8.75038
-8.76814
-8.78659
-8.80535
-8.82403
-8.8425
-8.86074
-8.87867
-8.89626
-8.9135
-8.93036
-8.94686
-8.96299
-8.97877
-8.99421
-9.00931
-9.02409
-9.03856
-9.05273
-9.06662
-9.08023
-9.09357
-9.10664
-9.11946
-9.13201
-9.14431
-9.15633
-9.16807
-9.1795
-8.71377
-8.71733
-8.72753
-8.74187
-8.75766
-8.77427
-8.79167
-8.80951
-8.82742
-8.84524
-8.8629
-8.88033
-8.89748
-8.91432
-8.93083
-8.94701
-8.96285
-8.97835
-8.99353
-9.00838
-9.02291
-9.03714
-9.05107
-9.06471
-9.07806
-9.09114
-9.10394
-9.11648
-9.12873
-9.14071
-9.15241
-9.16381
-9.1749
-8.72535
-8.72833
-8.73724
-8.75012
-8.76467
-8.7802
-8.79661
-8.81357
-8.83072
-8.8479
-8.86499
-8.88193
-8.89864
-8.9151
-8.93126
-8.94713
-8.96268
-8.97793
-8.99285
-9.00747
-9.02178
-9.03579
-9.0495
-9.06292
-9.07606
-9.0889
-9.10147
-9.11375
-9.12575
-9.13745
-9.14886
-9.15995
-9.1707
-8.73594
-8.73844
-8.74629
-8.75794
-8.77136
-8.78589
-8.80137
-8.8175
-8.83393
-8.85047
-8.867
-8.88344
-8.89972
-8.91577
-8.93158
-8.94712
-8.96237
-8.97732
-8.99197
-9.00633
-9.02038
-9.03413
-9.04759
-9.06075
-9.07362
-9.0862
-9.09849
-9.11049
-9.12219
-9.13358
-9.14467
-9.15545
-9.16588
-8.74557
-8.7477
-8.75467
-8.76526
-8.77767
-8.79129
-8.80592
-8.82126
-8.837
-8.85292
-8.86891
-8.88486
-8.9007
-8.91637
-8.93181
-8.94702
-8.96197
-8.97663
-8.99102
-9.00511
-9.01891
-9.03242
-9.04563
-9.05855
-9.07118
-9.08351
-9.09554
-9.10727
-9.1187
-9.12983
-9.14063
-9.15111
-9.16125
-8.75429
-8.7561
-8.76236
-8.77204
-8.78357
-8.79636
-8.8102
-8.82481
-8.8399
-8.85524
-8.8707
-8.88618
-8.90159
-8.91686
-8.93195
-8.94683
-8.96146
-8.97584
-8.98994
-9.00377
-9.0173
-9.03055
-9.0435
-9.05616
-9.06852
-9.08058
-9.09234
-9.10379
-9.11494
-9.12577
-9.13628
-9.14647
-9.15631
-8.76212
-8.76367
-8.76934
-8.77825
-8.789
-8.80104
-8.81417
-8.82812
-8.84259
-8.85739
-8.87235
-8.88737
-8.90236
-8.91726
-8.93199
-8.94654
-8.96087
-8.97495
-8.98878
-9.00233
-9.0156
-9.02859
-9.04128
-9.05368
-9.06579
-9.07759
-9.08909
-9.10028
-9.11115
-9.12172
-9.13195
-9.14187
-9.15144
-8.76906
-8.7704
-8.77558
-8.78385
-8.79393
-8.80531
-8.8178
-8.83114
-8.84506
-8.85933
-8.87382
-8.88841
-8.90301
-8.91753
-8.93193
-8.94615
-8.96017
-8.97397
-8.98751
-9.00079
-9.0138
-9.02652
-9.03896
-9.0511
-9.06294
-9.07448
-9.08571
-9.09663
-9.10724
-9.11753
-9.1275
-9.13714
-9.14644
-8.77512
-8.77629
-8.78106
-8.7888
-8.79831
-8.80911
-8.82104
-8.83384
-8.84725
-8.86105
-8.8751
-8.88929
-8.9035
-8.91767
-8.93174
-8.94565
-8.95937
-8.97288
-8.98615
-8.99916
-9.0119
-9.02437
-9.03654
-9.04843
-9.06001
-9.07129
-9.08227
-9.09293
-9.10328
-9.11331
-9.12301
-9.1324
-9.14145
-8.78028
-8.78131
-8.78576
-8.79306
-8.80209
-8.8124
-8.82384
-8.83617
-8.84913
-8.86251
-8.87616
-8.88997
-8.90383
-8.91767
-8.93142
-8.94503
-8.95846
-8.97169
-8.98469
-8.99743
-9.00992
-9.02213
-9.03405
-9.04568
-9.05701
-9.06804
-9.07876
-9.08917
-9.09927
-9.10904
-9.1185
-9.12764
-9.13645
-8.78452
-8.78544
-8.78963
-8.79659
-8.80523
-8.81514
-8.82617
-8.8381
-8.85066
-8.86366
-8.87696
-8.89042
-8.90396
-8.91748
-8.93094
-8.94426
-8.95742
-8.97038
-8.98311
-8.9956
-9.00783
-9.01978
-9.03145
-9.04283
-9.05391
-9.06469
-9.07516
-9.08532
-9.09517
-9.1047
-9.11391
-9.12281
-9.13138
-8.78779
-8.78864
-8.79265
-8.79934
-8.80769
-8.81728
-8.82798
-8.83957
-8.8518
-8.86448
-8.87746
-8.89062
-8.90386
-8.9171
-8.93028
-8.94333
-8.95623
-8.96893
-8.98142
-8.99366
-9.00564
-9.01735
-9.02878
-9.03993
-9.05077
-9.06131
-9.07155
-9.08147
-9.09109
-9.10039
-9.10938
-9.11805
-9.1264
-8.79005
-8.79085
-8.79473
-8.80125
-8.80938
-8.81874
-8.82919
-8.84051
-8.85248
-8.86489
-8.8776
-8.8905
-8.90348
-8.91647
-8.92939
-8.94219
-8.95484
-8.9673
-8.97954
-8.99153
-9.00327
-9.01474
-9.02593
-9.03683
-9.04743
-9.05773
-9.06773
-9.07741
-9.08679
-9.09586
-9.10461
-9.11306
-9.12119
-8.79122
-8.792
-8.79581
-8.80223
-8.81025
-8.81946
-8.82974
-8.84088
-8.85264
-8.86484
-8.87734
-8.89002
-8.90278
-8.91554
-8.92824
-8.94082
-8.95324
-8.96548
-8.9775
-8.98928
-9.0008
-9.01206
-9.02303
-9.03371
-9.0441
-9.05419
-9.06397
-9.07345
-9.08262
-9.09148
-9.10004
-9.10828
-9.11621
-8.79123
-8.79202
-8.79584
-8.80225
-8.81025
-8.81941
-8.82961
-8.84065
-8.85229
-8.86434
-8.87668
-8.88918
-8.90175
-8.91431
-8.9268
-8.93918
-8.95139
-8.9634
-8.9752
-8.98675
-8.99804
-9.00907
-9.01981
-9.03026
-9.04042
-9.05027
-9.05983
-9.06907
-9.07802
-9.08665
-9.09499
-9.10302
-9.11075
-8.78998
-8.79083
-8.79474
-8.80126
-8.80935
-8.81857
-8.82879
-8.83981
-8.85141
-8.8634
-8.87564
-8.88802
-8.90046
-8.91288
-8.92522
-8.93743
-8.94948
-8.96132
-8.97294
-8.98432
-8.99544
-9.00628
-9.01684
-9.02711
-9.03709
-9.04676
-9.05613
-9.0652
-9.07396
-9.08242
-9.09057
-9.09842
-9.10595
-8.78734
-8.7883
-8.7924
-8.79916
-8.80748
-8.81689
-8.82724
-8.83835
-8.84999
-8.86196
-8.87415
-8.88645
-8.89877
-8.91105
-8.92323
-8.93527
-8.94712
-8.95877
-8.97019
-8.98135
-8.99226
-9.00288
-9.01322
-9.02327
-9.03303
-9.04248
-9.05163
-9.06048
-9.06903
-9.07728
-9.08523
-9.09289
-9.10027
-8.78315
-8.78426
-8.7887
-8.79588
-8.80459
-8.81432
-8.82494
-8.83626
-8.84805
-8.86013
-8.87238
-8.8847
-8.89702
-8.90926
-8.92138
-8.93334
-8.9451
-8.95664
-8.96794
-8.97898
-8.98975
-9.00024
-9.01044
-9.02034
-9.02995
-9.03925
-9.04825
-9.05695
-9.06534
-9.07343
-9.08122
-9.0887
-9.09586
-8.77715
-8.77852
-8.78348
-8.79131
-8.8006
-8.81081
-8.82181
-8.83341
-8.84539
-8.85758
-8.86986
-8.88216
-8.89442
-8.90657
-8.91857
-8.93038
-8.94199
-8.95336
-8.96448
-8.97533
-8.9859
-8.9962
-9.00619
-9.0159
-9.0253
-9.0344
-9.0432
-9.0517
-9.0599
-9.0678
-9.07542
-9.08276
-9.08982
-8.76903
-8.77078
-8.77655
-8.78533
-8.79548
-8.8064
-8.81802
-8.83017
-8.8426
-8.85512
-8.86766
-8.88015
-8.89253
-8.90475
-8.91677
-8.92858
-8.94015
-8.95146
-8.9625
-8.97327
-8.98374
-8.99392
-9.0038
-9.01338
-9.02265
-9.03162
-9.04028
-9.04864
-9.05669
-9.06444
-9.07189
-9.07903
-9.08585
-8.75833
-8.76068
-8.76771
-8.77786
-8.78904
-8.80068
-8.81285
-8.82543
-8.83816
-8.85087
-8.86352
-8.87606
-8.88844
-8.90063
-8.91258
-8.9243
-8.93575
-8.94694
-8.95784
-8.96845
-8.97877
-8.98879
-8.9985
-9.00791
-9.01702
-9.02582
-9.03432
-9.04252
-9.05042
-9.05803
-9.06535
-9.07241
-9.0792
-8.74432
-8.74764
-8.75671
-8.76905
-8.78198
-8.79504
-8.80842
-8.82197
-8.83539
-8.84861
-8.86161
-8.87438
-8.88691
-8.89917
-8.91115
-8.92285
-8.93426
-8.94537
-8.95619
-8.96669
-8.9769
-8.98679
-8.99637
-9.00564
-9.01459
-9.02324
-9.03158
-9.03962
-9.04735
-9.05478
-9.0619
-9.06872
-9.07522
-8.72593
-8.73102
-8.74311
-8.75761
-8.77156
-8.78543
-8.79971
-8.81402
-8.82798
-8.84158
-8.85487
-8.86785
-8.88051
-8.89283
-8.90482
-8.91649
-8.92785
-8.93888
-8.9496
-8.96
-8.97009
-8.97986
-8.98932
-8.99848
-9.00732
-9.01586
-9.02409
-9.03203
-9.03967
-9.04701
-9.05408
-9.06087
-9.0674
-8.701
-8.71015
-8.72955
-8.74929
-8.76572
-8.78112
-8.79664
-8.81175
-8.82613
-8.83992
-8.85331
-8.86631
-8.87891
-8.89115
-8.90302
-8.91456
-8.92576
-8.93663
-8.94716
-8.95738
-8.96726
-8.97683
-8.98608
-8.99502
-9.00364
-9.01195
-9.01996
-9.02766
-9.03507
-9.04218
-9.049
-9.05552
-9.06175
-8.66606
-8.67972
-8.70535
-8.72861
-8.74756
-8.76558
-8.78322
-8.79967
-8.81488
-8.82926
-8.84303
-8.85623
-8.86891
-8.88113
-8.89296
-8.90441
-8.91551
-8.92628
-8.93672
-8.94684
-8.95665
-8.96615
-8.97535
-8.98424
-8.99283
-9.00112
-9.00911
-9.01681
-9.02421
-9.03132
-9.03812
-9.04461
-9.05077
-8.61867
-8.66633
-8.70571
-8.72598
-8.74225
-8.7606
-8.77856
-8.79451
-8.80906
-8.82299
-8.83642
-8.84931
-8.86169
-8.87362
-8.88517
-8.89636
-8.9072
-8.91771
-8.9279
-8.93778
-8.94736
-8.95663
-8.96562
-8.97431
-8.98272
-8.99084
-8.99869
-9.00626
-9.01358
-9.02067
-9.02753
-9.03423
-9.04079
-8.48434
-8.60652
-8.68117
-8.7054
-8.72172
-8.74274
-8.76322
-8.78042
-8.79575
-8.81057
-8.82509
-8.8392
-8.85292
-8.86634
-8.87948
-8.89236
-8.90496
-8.91727
-8.9293
-8.94101
-8.95242
-8.96351
-8.97428
-8.98471
-8.99481
-9.00457
-9.01398
-9.02305
-9.03178
-9.04015
-9.04818
-9.05583
-9.06323
-9.33266
-9.48858
-9.70596
-9.81051
-9.92145
-10.0275
-10.1087
-10.1715
-10.2209
-10.2577
-10.283
-10.2976
-10.3034
-10.3029
-10.2991
-10.2946
-10.2897
-10.2815
-10.2764
-10.2789
-10.2907
-10.3115
-10.3397
-10.3731
-10.4094
-10.4471
-10.4851
-10.5227
-10.559
-10.593
-10.6238
-10.6506
-10.6727
-10.6895
-10.7005
-10.7057
-10.7046
-10.6972
-10.6833
-10.6627
-10.6351
-10.6005
-10.5585
-10.509
-10.4519
-10.3869
-10.314
-10.2329
-10.1434
-10.0454
-9.9386
-9.82277
-9.69771
-9.56324
-9.41921
-9.26552
-9.10211
-8.92896
-8.74614
-8.55375
-8.352
-8.14112
-7.92148
-7.69347
-7.45762
-7.2145
-6.9648
-6.70923
-6.44857
-6.18362
-5.91521
-5.64419
-5.37148
-5.098
-4.82474
-4.55274
-4.28311
-4.017
-3.75564
-3.50021
-3.25172
-3.01082
-2.77791
-2.55331
-2.33734
-2.13028
-1.93233
-1.74362
-1.56416
-1.39388
-1.23248
-1.07981
-0.934777
-0.797843
-0.665105
-0.541364
-0.410655
-0.302193
-0.144504
-0.0949683
-9.24804
-9.30064
-9.39284
-9.43904
-9.49256
-9.56016
-9.62639
-9.68963
-9.75029
-9.80584
-9.85423
-9.89464
-9.92735
-9.95357
-9.9753
-9.99492
-10.0144
-10.0298
-10.0452
-10.0653
-10.0922
-10.1259
-10.1654
-10.2086
-10.2538
-10.2994
-10.3444
-10.388
-10.4295
-10.468
-10.5027
-10.5326
-10.5574
-10.5764
-10.5893
-10.5959
-10.5961
-10.5896
-10.5763
-10.5561
-10.5289
-10.4944
-10.4526
-10.4032
-10.3461
-10.2813
-10.2084
-10.1274
-10.0381
-9.94032
-9.8338
-9.71835
-9.59379
-9.45994
-9.31667
-9.16389
-9.00155
-8.82965
-8.64824
-8.45747
-8.2575
-8.04861
-7.83114
-7.60549
-7.37218
-7.13178
-6.88495
-6.6324
-6.37488
-6.11317
-5.8481
-5.58051
-5.31126
-5.04129
-4.77155
-4.50305
-4.23687
-3.97412
-3.71599
-3.4636
-3.21792
-2.97959
-2.74903
-2.52658
-2.31256
-2.10723
-1.91081
-1.72341
-1.54505
-1.3757
-1.21502
-1.06293
-0.918321
-0.781714
-0.64924
-0.525866
-0.395735
-0.288571
-0.133525
-0.0881315
-9.20948
-9.23085
-9.27539
-9.30298
-9.3264
-9.359
-9.39422
-9.42893
-9.46405
-9.49894
-9.53233
-9.56347
-9.59219
-9.61905
-9.64528
-9.67253
-9.70183
-9.73191
-9.76287
-9.79766
-9.8381
-9.88433
-9.93529
-9.98927
-10.0445
-10.0996
-10.1534
-10.205
-10.2537
-10.2987
-10.3391
-10.3742
-10.4036
-10.4266
-10.4432
-10.4529
-10.4558
-10.4517
-10.4405
-10.4222
-10.3966
-10.3636
-10.3231
-10.2749
-10.219
-10.1552
-10.0834
-10.0036
-9.91538
-9.81873
-9.71344
-9.5993
-9.47614
-9.34382
-9.2022
-9.0512
-8.89079
-8.72096
-8.5418
-8.35341
-8.15601
-7.94985
-7.73526
-7.51266
-7.28255
-7.04549
-6.80212
-6.55313
-6.29926
-6.04129
-5.77999
-5.51621
-5.25079
-4.98463
-4.71867
-4.45391
-4.19137
-3.93215
-3.67737
-3.4281
-3.18529
-2.94958
-2.72139
-2.50108
-2.28897
-2.08533
-1.89036
-1.70421
-1.52688
-1.35835
-1.19831
-1.04669
-0.902418
-0.766046
-0.63378
-0.510691
-0.381192
-0.275181
-0.123173
-0.0811599
-9.20736
-9.23041
-9.26675
-9.29492
-9.31385
-9.33437
-9.35472
-9.37202
-9.38741
-9.4017
-9.41466
-9.42632
-9.43718
-9.44821
-9.46074
-9.47629
-9.49603
-9.52023
-9.54799
-9.58097
-9.62055
-9.66672
-9.71843
-9.77406
-9.83187
-9.89029
-9.94802
-10.004
-10.0572
-10.1067
-10.1517
-10.1913
-10.225
-10.2522
-10.2727
-10.2861
-10.2925
-10.2916
-10.2834
-10.2678
-10.2447
-10.2141
-10.1758
-10.1298
-10.076
-10.0143
-9.94449
-9.86658
-9.78039
-9.68576
-9.58252
-9.47049
-9.34953
-9.21948
-9.08025
-8.93175
-8.77396
-8.60688
-8.43061
-8.24525
-8.05102
-7.84816
-7.63702
-7.41801
-7.19159
-6.95834
-6.71887
-6.47386
-6.22401
-5.9701
-5.71288
-5.45316
-5.19179
-4.92964
-4.66763
-4.40671
-4.14791
-3.89227
-3.64087
-3.39475
-3.1548
-2.92167
-2.69581
-2.47757
-2.26729
-2.06524
-1.87163
-1.68661
-1.51018
-1.34236
-1.18284
-1.03156
-0.887508
-0.751252
-0.619114
-0.496198
-0.367364
-0.262304
-0.113676
-0.0742006
-9.21172
-9.23378
-9.26154
-9.28519
-9.30204
-9.31886
-9.33588
-9.35064
-9.36317
-9.37388
-9.3825
-9.38892
-9.39359
-9.39742
-9.40169
-9.40788
-9.41737
-9.4309
-9.44866
-9.47183
-9.50154
-9.53795
-9.58034
-9.62746
-9.67787
-9.73014
-9.78302
-9.83535
-9.88605
-9.93407
-9.97841
-10.0182
-10.0526
-10.0812
-10.1033
-10.1187
-10.1272
-10.1286
-10.1227
-10.1094
-10.0886
-10.0603
-10.0243
-9.98057
-9.92898
-9.86948
-9.80195
-9.72628
-9.64236
-9.55004
-9.44916
-9.33957
-9.22113
-9.0937
-8.9572
-8.81155
-8.65672
-8.49275
-8.3197
-8.13772
-7.94698
-7.74776
-7.54037
-7.32521
-7.10276
-6.87356
-6.6382
-6.39735
-6.1517
-5.90197
-5.64894
-5.39339
-5.13613
-4.87803
-4.61997
-4.36291
-4.10782
-3.85571
-3.60764
-3.36458
-3.12741
-2.89677
-2.67312
-2.45684
-2.24826
-2.04767
-1.85527
-1.67122
-1.49555
-1.32827
-1.16911
-1.01803
-0.874051
-0.737768
-0.605652
-0.482778
-0.354594
-0.25028
-0.105222
-0.0675138
-9.2131
-9.23367
-9.2573
-9.27971
-9.29792
-9.31495
-9.33144
-9.3457
-9.35736
-9.36674
-9.37382
-9.37863
-9.3816
-9.38354
-9.38551
-9.38873
-9.39434
-9.40316
-9.41578
-9.4329
-9.45546
-9.4837
-9.51718
-9.555
-9.59608
-9.63928
-9.68353
-9.72784
-9.77123
-9.81276
-9.85149
-9.88656
-9.91721
-9.94279
-9.96275
-9.97669
-9.98426
-9.98521
-9.97932
-9.9664
-9.9463
-9.91885
-9.88394
-9.84144
-9.79125
-9.73326
-9.66737
-9.59345
-9.51139
-9.42103
-9.32224
-9.21486
-9.09875
-8.9738
-8.83991
-8.69702
-8.5451
-8.38419
-8.21434
-8.0357
-7.84845
-7.65284
-7.44918
-7.23787
-7.01936
-6.79418
-6.5629
-6.32616
-6.08464
-5.83905
-5.59014
-5.33866
-5.08542
-4.83126
-4.57706
-4.32373
-4.07221
-3.82351
-3.57861
-3.33847
-3.10392
-2.87562
-2.65403
-2.43954
-2.23249
-2.03318
-1.84182
-1.65856
-1.48347
-1.31656
-1.15759
-1.00653
-0.862465
-0.725996
-0.593776
-0.470793
-0.343211
-0.23941
-0.0979985
-0.0613098
-9.21314
-9.2329
-9.25423
-9.27487
-9.29249
-9.30836
-9.32331
-9.3365
-9.34751
-9.35653
-9.36364
-9.36886
-9.37252
-9.37523
-9.37785
-9.38135
-9.38669
-9.39462
-9.40577
-9.42068
-9.44004
-9.46409
-9.49249
-9.52453
-9.5593
-9.59584
-9.63324
-9.67061
-9.70711
-9.74192
-9.77422
-9.80326
-9.82835
-9.84889
-9.86438
-9.87441
-9.87862
-9.87673
-9.86849
-9.85369
-9.83212
-9.8036
-9.76797
-9.72508
-9.67479
-9.61696
-9.55147
-9.47819
-9.39697
-9.30767
-9.21013
-9.1042
-8.98974
-8.86663
-8.73477
-8.59411
-8.44461
-8.2863
-8.11924
-7.94355
-7.75942
-7.56707
-7.36683
-7.15906
-6.94419
-6.72274
-6.49527
-6.26238
-6.02475
-5.78304
-5.538
-5.29037
-5.04092
-4.79049
-4.53991
-4.29009
-4.04194
-3.79642
-3.55449
-3.31707
-3.08495
-2.85879
-2.63907
-2.42618
-2.22047
-2.02224
-1.83172
-1.64908
-1.47437
-1.30764
-1.14867
-0.997445
-0.853119
-0.716295
-0.583829
-0.460575
-0.333512
-0.229983
-0.0921584
-0.0558049
-9.21254
-9.23127
-9.25079
-9.26976
-9.28682
-9.30236
-9.31692
-9.33003
-9.34125
-9.3506
-9.35815
-9.36397
-9.36833
-9.37179
-9.37509
-9.37904
-9.3845
-9.39216
-9.40259
-9.41634
-9.43387
-9.45538
-9.4806
-9.50892
-9.53959
-9.57175
-9.60455
-9.63719
-9.66887
-9.69883
-9.72631
-9.75063
-9.77116
-9.78734
-9.79871
-9.80487
-9.80549
-9.80031
-9.78909
-9.7716
-9.74764
-9.71704
-9.67963
-9.63524
-9.58374
-9.52498
-9.45881
-9.38511
-9.30371
-9.21447
-9.11723
-9.01185
-8.89817
-8.77608
-8.64548
-8.5063
-8.35851
-8.20212
-8.03721
-7.86386
-7.68227
-7.49265
-7.2953
-7.09057
-6.87888
-6.66072
-6.43662
-6.20719
-5.97305
-5.73487
-5.49336
-5.24924
-5.00328
-4.75627
-4.50904
-4.26246
-4.01742
-3.77484
-3.53564
-3.3007
-3.0708
-2.84658
-2.62851
-2.41703
-2.21246
-2.01513
-1.82525
-1.64302
-1.46851
-1.30177
-1.14261
-0.991048
-0.84629
-0.70894
-0.576083
-0.45239
-0.325735
-0.222233
-0.0878139
-0.0511729
-9.21008
-9.228
-9.24631
-9.26414
-9.28063
-9.29575
-9.30976
-9.32239
-9.33335
-9.34264
-9.35034
-9.35659
-9.36164
-9.36598
-9.3702
-9.37501
-9.3811
-9.38909
-9.39949
-9.41278
-9.42929
-9.44918
-9.47223
-9.49794
-9.52565
-9.55461
-9.58406
-9.61323
-9.64138
-9.6678
-9.69178
-9.71267
-9.72987
-9.74284
-9.75113
-9.75437
-9.75221
-9.74441
-9.7307
-9.71089
-9.68477
-9.65218
-9.61294
-9.56691
-9.51395
-9.45391
-9.38666
-9.31206
-9.22996
-9.14023
-9.0427
-8.93725
-8.82372
-8.70201
-8.57202
-8.43368
-8.28697
-8.13189
-7.9685
-7.79691
-7.61728
-7.42982
-7.23481
-7.03261
-6.8236
-6.60825
-6.38708
-6.16067
-5.92962
-5.69458
-5.45624
-5.21529
-4.97249
-4.7286
-4.48443
-4.24082
-3.99862
-3.75874
-3.52203
-3.28936
-3.06147
-2.83898
-2.6224
-2.41213
-2.20853
-2.0119
-1.8225
-1.6405
-1.46601
-1.29909
-1.13957
-0.987497
-0.842147
-0.70411
-0.570717
-0.446426
-0.320045
-0.216327
-0.0850237
-0.0475445
-9.20803
-9.22509
-9.24231
-9.25911
-9.27485
-9.28944
-9.30297
-9.31532
-9.32627
-9.33578
-9.34392
-9.35081
-9.35667
-9.36189
-9.367
-9.37257
-9.3792
-9.38745
-9.39776
-9.41056
-9.42612
-9.44457
-9.46572
-9.48915
-9.51429
-9.54047
-9.56702
-9.59322
-9.61838
-9.64183
-9.66291
-9.68098
-9.69549
-9.7059
-9.71178
-9.71274
-9.70845
-9.69864
-9.68306
-9.66149
-9.63373
-9.59961
-9.55896
-9.51164
-9.45749
-9.39638
-9.32819
-9.25276
-9.16998
-9.0797
-8.98178
-8.87609
-8.76251
-8.64093
-8.51125
-8.37344
-8.22745
-8.07331
-7.91106
-7.74083
-7.56275
-7.37705
-7.18399
-6.98391
-6.77718
-6.56427
-6.34566
-6.12192
-5.89362
-5.66139
-5.42591
-5.18784
-4.94792
-4.7069
-4.46554
-4.22466
-3.9851
-3.7477
-3.5133
-3.28271
-3.05666
-2.83575
-2.62049
-2.41128
-2.20849
-2.01243
-1.82335
-1.64144
-1.46682
-1.29957
-1.13955
-0.986815
-0.840731
-0.701866
-0.567805
-0.442765
-0.316515
-0.212346
-0.0837817
-0.0449862
-9.20419
-9.22058
-9.23697
-9.25296
-9.2681
-9.28224
-9.29545
-9.30756
-9.31845
-9.32807
-9.33646
-9.34375
-9.35018
-9.35607
-9.36186
-9.36807
-9.37519
-9.38372
-9.39404
-9.4065
-9.42136
-9.43865
-9.45824
-9.47978
-9.50274
-9.52656
-9.55061
-9.57425
-9.59683
-9.61771
-9.63628
-9.65194
-9.66413
-9.67238
-9.67623
-9.6753
-9.66926
-9.65783
-9.64075
-9.6178
-9.58877
-9.55348
-9.51177
-9.46347
-9.40844
-9.34655
-9.27766
-9.20164
-9.11836
-9.02768
-8.92948
-8.82364
-8.71004
-8.58859
-8.4592
-8.32184
-8.17648
-8.02315
-7.8619
-7.69284
-7.51613
-7.33197
-7.14064
-6.94245
-6.73778
-6.52706
-6.31077
-6.08946
-5.86369
-5.63406
-5.40122
-5.16584
-4.92861
-4.69026
-4.45154
-4.21323
-3.97614
-3.74107
-3.50883
-3.2802
-3.05586
-2.83642
-2.62236
-2.41411
-2.21203
-2.01642
-1.82755
-1.64562
-1.47076
-1.30305
-1.14241
-0.988904
-0.841969
-0.702159
-0.567314
-0.441395
-0.315124
-0.210286
-0.0840179
-0.0434977
-9.20102
-9.21673
-9.23235
-9.24761
-9.26218
-9.27586
-9.28867
-9.30053
-9.31132
-9.321
-9.32963
-9.33733
-9.3443
-9.35083
-9.35728
-9.36407
-9.37164
-9.38039
-9.39067
-9.40277
-9.41691
-9.43309
-9.45121
-9.47096
-9.49187
-9.51346
-9.53516
-9.55638
-9.57652
-9.59499
-9.61119
-9.62458
-9.63462
-9.64084
-9.6428
-9.64014
-9.6325
-9.61961
-9.6012
-9.57705
-9.54693
-9.51066
-9.46807
-9.419
-9.36329
-9.30081
-9.23143
-9.15499
-9.07139
-8.9805
-8.88218
-8.77632
-8.66283
-8.5416
-8.41259
-8.27573
-8.13104
-7.97852
-7.81825
-7.65034
-7.47494
-7.29227
-7.10258
-6.90619
-6.70347
-6.49483
-6.28076
-6.06176
-5.83839
-5.61124
-5.38093
-5.14811
-4.91346
-4.67767
-4.44149
-4.20565
-3.97093
-3.7381
-3.50794
-3.28118
-3.05848
-2.84043
-2.62752
-2.42015
-2.2187
-2.02348
-1.83474
-1.65271
-1.47752
-1.30928
-1.14794
-0.993564
-0.845688
-0.704841
-0.569117
-0.442207
-0.315765
-0.210056
-0.085602
-0.0430111
-9.19645
-9.21158
-9.22658
-9.24122
-9.25528
-9.26859
-9.28106
-9.2927
-9.30342
-9.31318
-9.32201
-9.33004
-9.33744
-9.34445
-9.35139
-9.35861
-9.36648
-9.37535
-9.38553
-9.39726
-9.41069
-9.42586
-9.44266
-9.46078
-9.47985
-9.49941
-9.51897
-9.53799
-9.5559
-9.57215
-9.58619
-9.5975
-9.60557
-9.60993
-9.61018
-9.60593
-9.59685
-9.58264
-9.56304
-9.53781
-9.50674
-9.46963
-9.4263
-9.37658
-9.32033
-9.25739
-9.18763
-9.11092
-9.02713
-8.93613
-8.83781
-8.73205
-8.61877
-8.49788
-8.36931
-8.23305
-8.08907
-7.93743
-7.77818
-7.61145
-7.43738
-7.25619
-7.06814
-6.87353
-6.67272
-6.46614
-6.25423
-6.0375
-5.81648
-5.59176
-5.36393
-5.13362
-4.9015
-4.66823
-4.43453
-4.20111
-3.96871
-3.73808
-3.50995
-3.28502
-3.06393
-2.84724
-2.63544
-2.42892
-2.22806
-2.03318
-1.84453
-1.66234
-1.48678
-1.31795
-1.15584
-1.00054
-0.851657
-0.709702
-0.57302
-0.445026
-0.318266
-0.211497
-0.0883601
-0.0434042
-9.19242
-9.207
-9.22142
-9.2355
-9.24906
-9.26197
-9.27412
-9.2855
-9.2961
-9.30589
-9.31487
-9.32316
-9.33089
-9.3383
-9.34564
-9.35321
-9.36132
-9.37027
-9.38031
-9.39164
-9.40438
-9.41858
-9.43409
-9.45068
-9.46798
-9.48562
-9.50313
-9.52002
-9.53579
-9.54991
-9.56186
-9.57115
-9.57729
-9.57985
-9.57842
-9.57262
-9.56212
-9.54663
-9.52587
-9.49961
-9.46763
-9.42972
-9.38569
-9.33539
-9.27865
-9.21532
-9.14526
-9.06834
-8.98443
-8.89342
-8.79517
-8.6896
-8.57661
-8.45612
-8.32809
-8.19248
-8.0493
-7.89859
-7.74042
-7.5749
-7.4022
-7.22253
-7.03613
-6.84332
-6.64444
-6.43991
-6.23016
-6.0157
-5.79703
-5.57472
-5.34936
-5.12155
-4.89194
-4.66118
-4.42995
-4.19893
-3.96885
-3.7404
-3.51429
-3.29118
-3.07169
-2.85635
-2.64564
-2.43997
-2.23969
-2.04512
-1.85654
-1.67418
-1.4982
-1.32874
-1.16582
-1.00955
-0.859617
-0.716503
-0.578796
-0.449639
-0.322412
-0.214413
-0.0920953
-0.0445203
-9.18746
-9.20154
-9.21544
-9.22902
-9.24214
-9.25469
-9.26658
-9.27775
-9.28821
-9.29798
-9.30708
-9.31557
-9.32357
-9.33128
-9.33892
-9.34673
-9.35498
-9.36391
-9.37374
-9.38463
-9.39667
-9.4099
-9.42419
-9.43931
-9.45496
-9.47078
-9.48637
-9.50128
-9.51503
-9.52714
-9.53712
-9.54451
-9.54884
-9.5497
-9.54667
-9.53941
-9.52758
-9.51088
-9.48905
-9.46182
-9.42899
-9.39034
-9.34569
-9.29486
-9.23769
-9.17403
-9.10373
-9.02666
-8.9427
-8.85173
-8.75362
-8.64829
-8.53565
-8.41563
-8.28818
-8.15329
-8.01095
-7.86122
-7.70416
-7.53991
-7.36861
-7.19048
-7.00577
-6.81478
-6.61786
-6.4154
-6.20783
-5.99564
-5.77934
-5.55946
-5.33657
-5.11128
-4.88419
-4.65594
-4.42718
-4.19858
-3.97082
-3.74456
-3.52048
-3.2992
-3.08132
-2.86735
-2.65775
-2.45292
-2.25322
-2.05897
-1.87045
-1.68789
-1.51148
-1.34137
-1.17762
-1.02034
-0.869318
-0.725004
-0.586213
-0.455823
-0.32798
-0.21859
-0.0966091
-0.046192
-9.18283
-9.19645
-9.20988
-9.22301
-9.23572
-9.24793
-9.25955
-9.27053
-9.28086
-9.29056
-9.29969
-9.3083
-9.31649
-9.32441
-9.33225
-9.34021
-9.34851
-9.35736
-9.36693
-9.37735
-9.38871
-9.40098
-9.41408
-9.42781
-9.44187
-9.45597
-9.46972
-9.48272
-9.49452
-9.50469
-9.51276
-9.51829
-9.52085
-9.52003
-9.51544
-9.50672
-9.49356
-9.47566
-9.45274
-9.42455
-9.39087
-9.35149
-9.30621
-9.25486
-9.19727
-9.13329
-9.06277
-8.98558
-8.90159
-8.81068
-8.71275
-8.6077
-8.49545
-8.37593
-8.24911
-8.11497
-7.97351
-7.8248
-7.6689
-7.50594
-7.33608
-7.15952
-6.97653
-6.78738
-6.59244
-6.39207
-6.1867
-5.97681
-5.76288
-5.54545
-5.32506
-5.1023
-4.87775
-4.65204
-4.42578
-4.19962
-3.97419
-3.75015
-3.52812
-3.3087
-3.09245
-2.87986
-2.6714
-2.46744
-2.26834
-2.07442
-1.88595
-1.7032
-1.52635
-1.35558
-1.19098
-1.03268
-0.880533
-0.734986
-0.595055
-0.463368
-0.334759
-0.223828
-0.101722
-0.048267
-9.17766
-9.19084
-9.20383
-9.21654
-9.22887
-9.24075
-9.25211
-9.2629
-9.27311
-9.28275
-9.29185
-9.30052
-9.30882
-9.31688
-9.32483
-9.33286
-9.34114
-9.34983
-9.35909
-9.36902
-9.37966
-9.39098
-9.40292
-9.41529
-9.42785
-9.4403
-9.45231
-9.46349
-9.47345
-9.48177
-9.48801
-9.49177
-9.49262
-9.49019
-9.48409
-9.47398
-9.45954
-9.44047
-9.41651
-9.3874
-9.3529
-9.31282
-9.26695
-9.2151
-9.15712
-9.09285
-9.02214
-8.94485
-8.86087
-8.77006
-8.67233
-8.56759
-8.45575
-8.33677
-8.2106
-8.07723
-7.93669
-7.78901
-7.63429
-7.47265
-7.30425
-7.12929
-6.94803
-6.76075
-6.56779
-6.36953
-6.16639
-5.95881
-5.74728
-5.53232
-5.31445
-5.09425
-4.87227
-4.64911
-4.42538
-4.20168
-3.97863
-3.75683
-3.53688
-3.31934
-3.10476
-2.8936
-2.6863
-2.48323
-2.28476
-2.09119
-1.9028
-1.71986
-1.54258
-1.37115
-1.20569
-1.04635
-0.893064
-0.746257
-0.605133
-0.472091
-0.342565
-0.229957
-0.10729
-0.0506321
-9.17266
-9.18544
-9.19803
-9.21035
-9.22233
-9.23391
-9.24501
-9.25562
-9.2657
-9.27526
-9.28433
-9.29298
-9.30131
-9.30942
-9.31742
-9.32544
-9.33362
-9.34209
-9.35099
-9.36037
-9.37027
-9.38066
-9.39148
-9.40257
-9.41369
-9.42458
-9.43492
-9.44436
-9.45254
-9.45907
-9.46355
-9.46558
-9.46477
-9.46075
-9.45316
-9.44167
-9.42596
-9.40573
-9.38071
-9.35066
-9.31534
-9.27454
-9.22807
-9.17572
-9.11734
-9.05277
-8.98186
-8.90448
-8.82049
-8.72979
-8.63227
-8.52784
-8.41644
-8.29799
-8.17249
-8.03991
-7.90029
-7.75367
-7.60014
-7.43982
-7.27289
-7.09954
-6.92002
-6.73462
-6.54366
-6.34753
-6.14661
-5.94137
-5.73225
-5.51978
-5.30445
-5.08682
-4.86743
-4.64686
-4.42568
-4.20447
-3.98382
-3.76429
-3.54646
-3.33085
-3.11797
-2.90827
-2.70217
-2.50004
-2.30222
-2.10903
-1.92075
-1.73764
-1.55994
-1.38785
-1.22153
-1.06116
-0.906715
-0.758632
-0.616271
-0.481824
-0.351236
-0.236833
-0.113199
-0.0532145
-9.16739
-9.17978
-9.19199
-9.20395
-9.21559
-9.22686
-9.23771
-9.24811
-9.25804
-9.2675
-9.27652
-9.28513
-9.29341
-9.30149
-9.30944
-9.31739
-9.32541
-9.33362
-9.3421
-9.35091
-9.36007
-9.36957
-9.37932
-9.38917
-9.39891
-9.4083
-9.41704
-9.42483
-9.4313
-9.43612
-9.43889
-9.43926
-9.43685
-9.43129
-9.42226
-9.40942
-9.39246
-9.37109
-9.34505
-9.31409
-9.27796
-9.23646
-9.18939
-9.13656
-9.07779
-9.01294
-8.94184
-8.86437
-8.78039
-8.6898
-8.5925
-8.4884
-8.37743
-8.25954
-8.1347
-8.00292
-7.86422
-7.71866
-7.56632
-7.40734
-7.24188
-7.07014
-6.89236
-6.70883
-6.51988
-6.32587
-6.12719
-5.92428
-5.71759
-5.50761
-5.29484
-5.0798
-4.86302
-4.64506
-4.42645
-4.20776
-3.98953
-3.77231
-3.55662
-3.34298
-3.13184
-2.92364
-2.71878
-2.51762
-2.32048
-2.12769
-1.93954
-1.75628
-1.57818
-1.40545
-1.23828
-1.07687
-0.921275
-0.771907
-0.628273
-0.492382
-0.360599
-0.244309
-0.119341
-0.0559635
-9.1622
-9.17423
-9.18608
-9.1977
-9.20902
-9.22001
-9.23062
-9.24081
-9.25058
-9.25992
-9.26885
-9.27739
-9.2856
-9.29358
-9.3014
-9.30917
-9.31696
-9.32485
-9.33289
-9.34113
-9.34958
-9.35821
-9.36693
-9.37559
-9.38402
-9.39197
-9.39919
-9.40538
-9.41023
-9.41339
-9.41452
-9.41328
-9.4093
-9.40225