/*--------------------------------*- C++ -*----------------------------------*\
| =========                 |                                                 |
| \\      /  F ield         | OpenFOAM: The Open Source CFD Toolbox           |
|  \\    /   O peration     | Version:  4.1                                   |
|   \\  /    A nd           | Web:      www.OpenFOAM.org                      |
|    \\/     M anipulation  |                                                 |
\*---------------------------------------------------------------------------*/
FoamFile
{
    version     2.0;
    format      ascii;
    class       volVectorField;
    location    "1600";
    object      U;
}
// * * * * * * * * * * * * * * * * * * * * * * * * * * * * * * * * * * * * * //

dimensions      [0 1 -1 0 0 0 0];

internalField   nonuniform List<vector> 
6820
(
(7.2813 0.0192603 0)
(7.18936 0.0329224 0)
(7.0895 0.0360689 0)
(6.98491 0.0374729 0)
(6.88226 0.0387345 0)
(6.7831 0.0397556 0)
(6.68718 0.0405158 0)
(6.59472 0.0410297 0)
(6.50618 0.0412713 0)
(6.42176 0.0412187 0)
(6.34143 0.0408782 0)
(6.26513 0.040277 0)
(6.19273 0.0394507 0)
(6.12412 0.0384369 0)
(6.05912 0.037272 0)
(5.99759 0.0359901 0)
(5.93934 0.0346214 0)
(5.88423 0.0331921 0)
(5.8321 0.0317243 0)
(5.78279 0.0302364 0)
(5.73617 0.0287434 0)
(5.6921 0.0272573 0)
(5.65046 0.0257874 0)
(5.61112 0.0243411 0)
(5.57397 0.0229238 0)
(5.53892 0.0215395 0)
(5.50586 0.0201904 0)
(5.47471 0.0188809 0)
(5.44533 0.0176027 0)
(5.41784 0.0163867 0)
(5.39148 0.0151669 0)
(5.36901 0.0139109 0)
(5.34246 0.0139885 0)
(7.35129 0.0206776 0)
(7.39587 0.0322614 0)
(7.42787 0.0326356 0)
(7.44987 0.0332017 0)
(7.46739 0.0343599 0)
(7.48118 0.0351444 0)
(7.49064 0.0355189 0)
(7.49593 0.0356542 0)
(7.49763 0.0356103 0)
(7.49622 0.0354081 0)
(7.49207 0.0350811 0)
(7.48557 0.0346672 0)
(7.47707 0.0341959 0)
(7.46691 0.0336874 0)
(7.45537 0.0331559 0)
(7.44272 0.0326109 0)
(7.42918 0.032059 0)
(7.41493 0.0315041 0)
(7.40014 0.0309486 0)
(7.38495 0.0303934 0)
(7.36949 0.029839 0)
(7.35385 0.0292853 0)
(7.33812 0.0287319 0)
(7.32238 0.0281783 0)
(7.30668 0.0276235 0)
(7.29109 0.0270672 0)
(7.27564 0.0265072 0)
(7.26038 0.0259471 0)
(7.24534 0.0253695 0)
(7.23054 0.0248337 0)
(7.21607 0.0241282 0)
(7.20165 0.0238796 0)
(7.18868 0.021999 0)
(7.33498 0.0124973 0)
(7.34477 0.0201473 0)
(7.35181 0.0214421 0)
(7.35496 0.0233119 0)
(7.35732 0.0252257 0)
(7.35979 0.0263816 0)
(7.362 0.0270188 0)
(7.36384 0.0274552 0)
(7.36547 0.0277918 0)
(7.36696 0.0280465 0)
(7.36826 0.0282374 0)
(7.36935 0.0283826 0)
(7.37019 0.0284909 0)
(7.37079 0.0285642 0)
(7.37113 0.0286024 0)
(7.3712 0.0286055 0)
(7.371 0.0285735 0)
(7.37054 0.0285066 0)
(7.36981 0.0284052 0)
(7.36883 0.02827 0)
(7.3676 0.0281021 0)
(7.36615 0.0279027 0)
(7.36447 0.0276731 0)
(7.36258 0.0274147 0)
(7.3605 0.0271285 0)
(7.35825 0.026816 0)
(7.35584 0.0264776 0)
(7.35328 0.026115 0)
(7.3506 0.0257267 0)
(7.34781 0.025315 0)
(7.34491 0.0248783 0)
(7.34192 0.0243645 0)
(7.33896 0.023933 0)
(7.3347 0.00985765 0)
(7.34304 0.0202391 0)
(7.35045 0.0247379 0)
(7.35468 0.0280675 0)
(7.35778 0.0307885 0)
(7.36077 0.0326924 0)
(7.36343 0.0340309 0)
(7.36564 0.0350516 0)
(7.36756 0.0358228 0)
(7.3693 0.0363545 0)
(7.37087 0.0366705 0)
(7.37229 0.0368044 0)
(7.37357 0.0367864 0)
(7.37473 0.0366419 0)
(7.37579 0.0363935 0)
(7.37676 0.0360611 0)
(7.37765 0.0356622 0)
(7.37846 0.0352109 0)
(7.3792 0.0347191 0)
(7.37987 0.0341962 0)
(7.38048 0.0336496 0)
(7.38103 0.0330851 0)
(7.38153 0.0325071 0)
(7.38198 0.0319188 0)
(7.38238 0.0313224 0)
(7.38275 0.0307192 0)
(7.38307 0.0301095 0)
(7.38337 0.0294944 0)
(7.38365 0.0288701 0)
(7.3839 0.028243 0)
(7.38414 0.0275947 0)
(7.38437 0.0269526 0)
(7.3846 0.0263143 0)
(7.33417 0.00784833 0)
(7.3405 0.0172866 0)
(7.34711 0.021246 0)
(7.35171 0.0237419 0)
(7.35548 0.0258496 0)
(7.3592 0.0273803 0)
(7.36268 0.0284139 0)
(7.3658 0.0291468 0)
(7.36865 0.0296698 0)
(7.37132 0.0300166 0)
(7.37384 0.0302221 0)
(7.37621 0.0303221 0)
(7.37843 0.0303439 0)
(7.38054 0.0303055 0)
(7.38254 0.03022 0)
(7.38444 0.0300967 0)
(7.38624 0.0299427 0)
(7.38796 0.0297625 0)
(7.38961 0.0295592 0)
(7.39118 0.0293347 0)
(7.39269 0.0290903 0)
(7.39415 0.0288268 0)
(7.39555 0.0285442 0)
(7.39691 0.0282426 0)
(7.39822 0.0279216 0)
(7.39951 0.0275806 0)
(7.40076 0.0272187 0)
(7.40198 0.026835 0)
(7.40319 0.0264274 0)
(7.40439 0.0259958 0)
(7.40558 0.0255367 0)
(7.40676 0.0250534 0)
(7.40797 0.0245584 0)
(7.33381 0.00630819 0)
(7.33861 0.0150537 0)
(7.34442 0.0196755 0)
(7.34904 0.0229117 0)
(7.35294 0.0256593 0)
(7.35675 0.0277509 0)
(7.36037 0.029258 0)
(7.36368 0.0303936 0)
(7.36676 0.0312701 0)
(7.36969 0.0319277 0)
(7.37246 0.0323985 0)
(7.3751 0.0327144 0)
(7.37761 0.0329007 0)
(7.38001 0.0329761 0)
(7.3823 0.0329561 0)
(7.3845 0.0328544 0)
(7.38662 0.0326825 0)
(7.38866 0.0324506 0)
(7.39063 0.0321669 0)
(7.39253 0.0318386 0)
(7.39438 0.0314717 0)
(7.39618 0.0310709 0)
(7.39793 0.0306402 0)
(7.39964 0.0301825 0)
(7.40131 0.0297002 0)
(7.40295 0.0291946 0)
(7.40457 0.0286665 0)
(7.40616 0.0281161 0)
(7.40774 0.0275425 0)
(7.4093 0.0269454 0)
(7.41086 0.0263229 0)
(7.41242 0.0256728 0)
(7.41401 0.025004 0)
(7.33356 0.00519296 0)
(7.33722 0.013153 0)
(7.34215 0.0178517 0)
(7.34647 0.0210123 0)
(7.35023 0.0235059 0)
(7.3539 0.0253483 0)
(7.35745 0.0266384 0)
(7.36077 0.0275703 0)
(7.36389 0.028252 0)
(7.36687 0.0287269 0)
(7.36972 0.0290301 0)
(7.37245 0.0291967 0)
(7.37506 0.0292553 0)
(7.37757 0.029227 0)
(7.37999 0.0291288 0)
(7.38233 0.0289743 0)
(7.38459 0.0287741 0)
(7.38678 0.0285364 0)
(7.3889 0.0282676 0)
(7.39096 0.027972 0)
(7.39298 0.027653 0)
(7.39494 0.0273127 0)
(7.39686 0.0269526 0)
(7.39874 0.0265731 0)
(7.40059 0.0261744 0)
(7.4024 0.0257557 0)
(7.40419 0.0253161 0)
(7.40596 0.0248539 0)
(7.40771 0.024367 0)
(7.40944 0.0238528 0)
(7.41117 0.0233081 0)
(7.41289 0.0227266 0)
(7.41462 0.0221091 0)
(7.33341 0.00435415 0)
(7.33622 0.0115132 0)
(7.34039 0.0161814 0)
(7.34439 0.0194343 0)
(7.34802 0.0220417 0)
(7.35158 0.024078 0)
(7.35506 0.0256024 0)
(7.35836 0.0267625 0)
(7.36149 0.0276576 0)
(7.36449 0.0283344 0)
(7.36737 0.0288284 0)
(7.37013 0.0291732 0)
(7.37279 0.029395 0)
(7.37535 0.0295135 0)
(7.37782 0.0295439 0)
(7.38021 0.0294989 0)
(7.38252 0.0293886 0)
(7.38477 0.0292213 0)
(7.38695 0.0290038 0)
(7.38907 0.0287415 0)
(7.39114 0.0284389 0)
(7.39316 0.0280995 0)
(7.39514 0.0277261 0)
(7.39708 0.0273206 0)
(7.39898 0.0268844 0)
(7.40085 0.0264182 0)
(7.4027 0.0259221 0)
(7.40452 0.0253955 0)
(7.40632 0.0248371 0)
(7.4081 0.0242448 0)
(7.40988 0.0236157 0)
(7.41164 0.0229439 0)
(7.4134 0.0222271 0)
(7.3333 0.0037113 0)
(7.3355 0.0101276 0)
(7.33902 0.0146563 0)
(7.34267 0.0178947 0)
(7.34609 0.0204492 0)
(7.34946 0.022431 0)
(7.35279 0.023899 0)
(7.356 0.0249867 0)
(7.35906 0.0257972 0)
(7.36201 0.0263845 0)
(7.36486 0.0267875 0)
(7.3676 0.0270406 0)
(7.37025 0.0271719 0)
(7.37282 0.0272027 0)
(7.3753 0.0271499 0)
(7.3777 0.0270277 0)
(7.38004 0.0268473 0)
(7.38231 0.0266178 0)
(7.38452 0.0263464 0)
(7.38668 0.0260388 0)
(7.38878 0.0256992 0)
(7.39084 0.0253309 0)
(7.39286 0.024936 0)
(7.39484 0.0245159 0)
(7.39678 0.0240712 0)
(7.3987 0.0236017 0)
(7.40058 0.0231068 0)
(7.40244 0.0225851 0)
(7.40428 0.0220343 0)
(7.40609 0.0214514 0)
(7.40789 0.0208328 0)
(7.40968 0.0201716 0)
(7.41145 0.0194649 0)
(7.33324 0.00320678 0)
(7.33498 0.00894631 0)
(7.33796 0.0132556 0)
(7.34125 0.0164316 0)
(7.34446 0.0189417 0)
(7.34766 0.0209246 0)
(7.35085 0.0224408 0)
(7.35396 0.0235993 0)
(7.35696 0.0244911 0)
(7.35986 0.0251674 0)
(7.36268 0.0256638 0)
(7.36541 0.0260121 0)
(7.36805 0.0262382 0)
(7.37061 0.0263619 0)
(7.37309 0.026399 0)
(7.3755 0.026362 0)
(7.37785 0.0262612 0)
(7.38013 0.0261048 0)
(7.38235 0.0258991 0)
(7.38452 0.0256492 0)
(7.38663 0.0253592 0)
(7.3887 0.0250319 0)
(7.39073 0.0246697 0)
(7.39272 0.0242739 0)
(7.39467 0.0238455 0)
(7.39659 0.0233847 0)
(7.39847 0.0228909 0)
(7.40033 0.0223634 0)
(7.40216 0.0218003 0)
(7.40397 0.0211992 0)
(7.40576 0.020557 0)
(7.40752 0.0198683 0)
(7.40926 0.019131 0)
(7.33319 0.00280018 0)
(7.3346 0.00793323 0)
(7.33714 0.0119802 0)
(7.3401 0.0150543 0)
(7.34309 0.0174942 0)
(7.3461 0.0194358 0)
(7.34913 0.020935 0)
(7.35211 0.0220793 0)
(7.35502 0.0229505 0)
(7.35784 0.0236004 0)
(7.3606 0.0240659 0)
(7.36327 0.0243789 0)
(7.36587 0.0245657 0)
(7.3684 0.0246469 0)
(7.37085 0.0246391 0)
(7.37324 0.0245556 0)
(7.37557 0.0244074 0)
(7.37784 0.0242033 0)
(7.38005 0.0239506 0)
(7.38221 0.0236548 0)
(7.38432 0.0233204 0)
(7.38638 0.0229509 0)
(7.38841 0.0225487 0)
(7.39039 0.0221156 0)
(7.39234 0.0216525 0)
(7.39425 0.0211595 0)
(7.39613 0.0206365 0)
(7.39798 0.0200824 0)
(7.3998 0.0194954 0)
(7.4016 0.0188733 0)
(7.40337 0.0182132 0)
(7.40511 0.0175103 0)
(7.40682 0.0167633 0)
(7.33316 0.00246424 0)
(7.33432 0.00705673 0)
(7.3365 0.0108181 0)
(7.33915 0.0137565 0)
(7.34192 0.0161062 0)
(7.34475 0.017992 0)
(7.34762 0.0194698 0)
(7.35048 0.0206131 0)
(7.35329 0.0214948 0)
(7.35604 0.0221648 0)
(7.35873 0.0226586 0)
(7.36136 0.0230058 0)
(7.36392 0.023231 0)
(7.36642 0.0233536 0)
(7.36885 0.0233892 0)
(7.37122 0.0233501 0)
(7.37353 0.0232465 0)
(7.37578 0.0230865 0)
(7.37799 0.0228767 0)
(7.38014 0.022622 0)
(7.38224 0.0223265 0)
(7.3843 0.021993 0)
(7.38631 0.0216238 0)
(7.38828 0.0212203 0)
(7.39022 0.0207832 0)
(7.39212 0.0203128 0)
(7.39398 0.0198087 0)
(7.39582 0.01927 0)
(7.39762 0.0186954 0)
(7.39938 0.018083 0)
(7.40112 0.0174305 0)
(7.40282 0.0167343 0)
(7.40449 0.0159944 0)
(7.33314 0.00218021 0)
(7.33411 0.00629039 0)
(7.33599 0.00975797 0)
(7.33838 0.0125363 0)
(7.34093 0.01478 0)
(7.34358 0.0165949 0)
(7.3463 0.0180334 0)
(7.34903 0.0191554 0)
(7.35174 0.0200228 0)
(7.3544 0.0206817 0)
(7.35702 0.0211653 0)
(7.35958 0.0215017 0)
(7.36209 0.0217144 0)
(7.36454 0.0218224 0)
(7.36693 0.0218409 0)
(7.36926 0.0217824 0)
(7.37154 0.0216572 0)
(7.37377 0.0214735 0)
(7.37594 0.021238 0)
(7.37807 0.0209562 0)
(7.38015 0.0206323 0)
(7.38218 0.0202696 0)
(7.38417 0.0198706 0)
(7.38612 0.0194371 0)
(7.38804 0.0189702 0)
(7.38991 0.0184704 0)
(7.39175 0.0179378 0)
(7.39356 0.0173718 0)
(7.39533 0.0167715 0)
(7.39706 0.0161357 0)
(7.39877 0.0154627 0)
(7.40043 0.0147501 0)
(7.40206 0.0139987 0)
(7.33312 0.00193505 0)
(7.33395 0.00561292 0)
(7.33559 0.00878798 0)
(7.33773 0.0113892 0)
(7.34009 0.0135126 0)
(7.34258 0.0152433 0)
(7.34515 0.016629 0)
(7.34775 0.0177194 0)
(7.35035 0.0185679 0)
(7.35293 0.0192166 0)
(7.35547 0.0196975 0)
(7.35797 0.0200369 0)
(7.36043 0.020257 0)
(7.36283 0.0203759 0)
(7.36518 0.0204082 0)
(7.36748 0.0203657 0)
(7.36973 0.0202581 0)
(7.37193 0.0200934 0)
(7.37408 0.0198778 0)
(7.37618 0.0196163 0)
(7.37824 0.019313 0)
(7.38025 0.0189709 0)
(7.38222 0.0185921 0)
(7.38415 0.0181784 0)
(7.38604 0.0177307 0)
(7.38789 0.0172495 0)
(7.38971 0.0167349 0)
(7.39148 0.0161864 0)
(7.39322 0.0156035 0)
(7.39493 0.0149851 0)
(7.39659 0.0143303 0)
(7.39822 0.0136372 0)
(7.3998 0.0129075 0)
(7.33311 0.00171961 0)
(7.33382 0.00500731 0)
(7.33526 0.00789669 0)
(7.3372 0.0103096 0)
(7.33938 0.0123013 0)
(7.34171 0.0139369 0)
(7.34413 0.015258 0)
(7.34662 0.0163061 0)
(7.34911 0.0171258 0)
(7.3516 0.0177546 0)
(7.35407 0.0182217 0)
(7.3565 0.0185511 0)
(7.35889 0.0187633 0)
(7.36124 0.0188752 0)
(7.36355 0.0189005 0)
(7.36581 0.0188506 0)
(7.36802 0.0187347 0)
(7.37018 0.0185605 0)
(7.37229 0.0183342 0)
(7.37436 0.0180607 0)
(7.37639 0.017744 0)
(7.37837 0.0173874 0)
(7.38031 0.0169932 0)
(7.38221 0.0165632 0)
(7.38407 0.0160987 0)
(7.38589 0.0156004 0)
(7.38767 0.0150688 0)
(7.38941 0.0145039 0)
(7.39112 0.0139056 0)
(7.39278 0.0132736 0)
(7.3944 0.0126074 0)
(7.39599 0.0119063 0)
(7.39753 0.0111725 0)
(7.3331 0.00152727 0)
(7.33372 0.00445998 0)
(7.335 0.00707346 0)
(7.33676 0.00929177 0)
(7.33877 0.0111426 0)
(7.34095 0.0126737 0)
(7.34325 0.01392 0)
(7.34561 0.0149159 0)
(7.34801 0.0156986 0)
(7.35041 0.016301 0)
(7.35279 0.0167498 0)
(7.35516 0.0170672 0)
(7.35749 0.0172719 0)
(7.35979 0.01738 0)
(7.36205 0.0174044 0)
(7.36427 0.0173559 0)
(7.36644 0.0172433 0)
(7.36857 0.0170739 0)
(7.37065 0.0168537 0)
(7.37269 0.0165874 0)
(7.37468 0.0162789 0)
(7.37664 0.0159313 0)
(7.37855 0.0155468 0)
(7.38042 0.0151272 0)
(7.38225 0.0146739 0)
(7.38404 0.0141876 0)
(7.38579 0.0136689 0)
(7.3875 0.0131181 0)
(7.38916 0.0125352 0)
(7.39079 0.0119202 0)
(7.39238 0.0112733 0)
(7.39392 0.0105939 0)
(7.39542 0.00988461 0)
(7.3331 0.00135317 0)
(7.33364 0.00396011 0)
(7.33479 0.00630863 0)
(7.33639 0.00832939 0)
(7.33826 0.0100325 0)
(7.3403 0.0114513 0)
(7.34247 0.012614 0)
(7.34472 0.013549 0)
(7.34702 0.014287 0)
(7.34933 0.0148564 0)
(7.35164 0.0152809 0)
(7.35394 0.0155805 0)
(7.35622 0.0157723 0)
(7.35846 0.0158706 0)
(7.36067 0.0158876 0)
(7.36284 0.0158331 0)
(7.36497 0.0157155 0)
(7.36706 0.0155414 0)
(7.36911 0.0153166 0)
(7.37111 0.0150457 0)
(7.37307 0.0147323 0)
(7.37499 0.0143793 0)
(7.37687 0.0139892 0)
(7.3787 0.0135639 0)
(7.3805 0.0131046 0)
(7.38225 0.0126125 0)
(7.38396 0.0120883 0)
(7.38563 0.0115327 0)
(7.38726 0.0109461 0)
(7.38885 0.0103288 0)
(7.3904 0.00968153 0)
(7.39189 0.00900438 0)
(7.39335 0.00830019 0)
(7.33309 0.00119362 0)
(7.33358 0.00349896 0)
(7.33461 0.00559353 0)
(7.33608 0.00741627 0)
(7.33782 0.00896663 0)
(7.33973 0.0102666 0)
(7.34179 0.0113383 0)
(7.34394 0.0122046 0)
(7.34614 0.0128908 0)
(7.34837 0.013421 0)
(7.35061 0.0138159 0)
(7.35284 0.0140934 0)
(7.35506 0.0142687 0)
(7.35725 0.0143551 0)
(7.35941 0.0143636 0)
(7.36153 0.0143034 0)
(7.36362 0.0141822 0)
(7.36567 0.0140065 0)
(7.36768 0.0137815 0)
(7.36965 0.0135117 0)
(7.37158 0.0132007 0)
(7.37346 0.0128513 0)
(7.37531 0.0124658 0)
(7.37711 0.0120462 0)
(7.37887 0.0115939 0)
(7.38059 0.0111101 0)
(7.38227 0.0105958 0)
(7.3839 0.0100517 0)
(7.3855 0.00947848 0)
(7.38705 0.00887685 0)
(7.38855 0.00824764 0)
(7.39001 0.00759123 0)
(7.39143 0.00691055 0)
(7.33309 0.00104575 0)
(7.33353 0.00306942 0)
(7.33447 0.00492039 0)
(7.33582 0.00654623 0)
(7.33744 0.00794031 0)
(7.33924 0.00911621 0)
(7.34119 0.0100905 0)
(7.34325 0.0108814 0)
(7.34536 0.0115094 0)
(7.34751 0.0119946 0)
(7.34968 0.0123549 0)
(7.35185 0.0126058 0)
(7.35401 0.012761 0)
(7.35614 0.0128321 0)
(7.35826 0.012829 0)
(7.36034 0.0127602 0)
(7.36238 0.0126327 0)
(7.36439 0.0124523 0)
(7.36636 0.012224 0)
(7.3683 0.0119519 0)
(7.37019 0.0116393 0)
(7.37204 0.011289 0)
(7.37385 0.0109033 0)
(7.37561 0.0104839 0)
(7.37734 0.0100326 0)
(7.37902 0.00955041 0)
(7.38066 0.00903857 0)
(7.38226 0.00849801 0)
(7.38381 0.00792965 0)
(7.38532 0.00733438 0)
(7.38679 0.00671331 0)
(7.38821 0.00606716 0)
(7.38959 0.00539895 0)
(7.33308 0.000907258 0)
(7.33348 0.00266554 0)
(7.33435 0.00428227 0)
(7.3356 0.00571317 0)
(7.33712 0.00694868 0)
(7.33883 0.00799626 0)
(7.34068 0.00886779 0)
(7.34264 0.00957745 0)
(7.34468 0.0101415 0)
(7.34675 0.0105765 0)
(7.34885 0.0108975 0)
(7.35096 0.0111179 0)
(7.35306 0.0112494 0)
(7.35515 0.0113024 0)
(7.35721 0.0112857 0)
(7.35925 0.0112068 0)
(7.36125 0.011072 0)
(7.36322 0.0108868 0)
(7.36515 0.0106557 0)
(7.36705 0.0103825 0)
(7.3689 0.0100704 0)
(7.37072 0.00972209 0)
(7.37249 0.0093397 0)
(7.37423 0.00892515 0)
(7.37592 0.00848001 0)
(7.37756 0.00800565 0)
(7.37917 0.00750329 0)
(7.38073 0.00697403 0)
(7.38225 0.00641896 0)
(7.38372 0.00583914 0)
(7.38515 0.00523582 0)
(7.38653 0.00460985 0)
(7.38787 0.00396419 0)
(7.33308 0.000776228 0)
(7.33345 0.00228229 0)
(7.33425 0.00367282 0)
(7.33542 0.00491113 0)
(7.33685 0.00598658 0)
(7.33847 0.00690245 0)
(7.34024 0.00766672 0)
(7.34212 0.00829006 0)
(7.34408 0.00878515 0)
(7.34608 0.0091652 0)
(7.34812 0.00944264 0)
(7.35017 0.0096287 0)
(7.35222 0.0097334 0)
(7.35425 0.0097656 0)
(7.35627 0.00973296 0)
(7.35826 0.00964209 0)
(7.36023 0.00949862 0)
(7.36216 0.00930738 0)
(7.36405 0.00907244 0)
(7.36591 0.00879725 0)
(7.36773 0.00848475 0)
(7.36951 0.00813741 0)
(7.37125 0.00775732 0)
(7.37294 0.00734631 0)
(7.3746 0.00690592 0)
(7.37621 0.00643755 0)
(7.37778 0.00594246 0)
(7.3793 0.00542185 0)
(7.38078 0.00487689 0)
(7.38222 0.00430874 0)
(7.38361 0.00371877 0)
(7.38496 0.00310796 0)
(7.38626 0.00247923 0)
(7.33308 0.000651004 0)
(7.33342 0.00191519 0)
(7.33417 0.0030862 0)
(7.33527 0.00413418 0)
(7.33663 0.00504869 0)
(7.33817 0.00583017 0)
(7.33986 0.00648349 0)
(7.34167 0.00701627 0)
(7.34356 0.00743806 0)
(7.3455 0.00775909 0)
(7.34748 0.00798928 0)
(7.34947 0.00813776 0)
(7.35147 0.00821283 0)
(7.35346 0.00822189 0)
(7.35543 0.00817145 0)
(7.35738 0.00806718 0)
(7.3593 0.00791399 0)
(7.3612 0.00771609 0)
(7.36305 0.00747713 0)
(7.36488 0.00720021 0)
(7.36666 0.00688803 0)
(7.3684 0.00654288 0)
(7.37011 0.00616677 0)
(7.37177 0.00576146 0)
(7.37339 0.00532849 0)
(7.37496 0.00486929 0)
(7.3765 0.00438516 0)
(7.37799 0.00387738 0)
(7.37943 0.0033472 0)
(7.38084 0.00279584 0)
(7.38219 0.00222472 0)
(7.3835 0.00163483 0)
(7.38477 0.00102896 0)
(7.33308 0.000530079 0)
(7.3334 0.00156017 0)
(7.3341 0.00251683 0)
(7.33515 0.00337633 0)
(7.33644 0.00412917 0)
(7.33792 0.00477398 0)
(7.33955 0.00531317 0)
(7.34129 0.00575172 0)
(7.34312 0.00609642 0)
(7.34501 0.00635481 0)
(7.34693 0.00653441 0)
(7.34887 0.00664237 0)
(7.35082 0.00668525 0)
(7.35277 0.00666904 0)
(7.3547 0.00659906 0)
(7.35661 0.00648002 0)
(7.35849 0.00631602 0)
(7.36034 0.00611067 0)
(7.36216 0.0058671 0)
(7.36395 0.00558802 0)
(7.3657 0.00527582 0)
(7.36741 0.00493256 0)
(7.36907 0.00456008 0)
(7.3707 0.00416002 0)
(7.37229 0.00373385 0)
(7.37383 0.00328295 0)
(7.37533 0.00280863 0)
(7.37679 0.00231214 0)
(7.3782 0.00179474 0)
(7.37957 0.00125769 0)
(7.38089 0.000702367 0)
(7.38217 0.000129855 0)
(7.3834 -0.00045717 0)
(7.33307 0.000411963 0)
(7.33338 0.00121329 0)
(7.33405 0.00195929 0)
(7.33506 0.00263174 0)
(7.3363 0.00322245 0)
(7.33772 0.00372892 0)
(7.33929 0.00415159 0)
(7.34098 0.00449313 0)
(7.34276 0.0047578 0)
(7.3446 0.00495071 0)
(7.34647 0.00507714 0)
(7.34837 0.00514225 0)
(7.35027 0.00515097 0)
(7.35217 0.00510786 0)
(7.35406 0.00501707 0)
(7.35593 0.00488236 0)
(7.35778 0.00470706 0)
(7.3596 0.00449417 0)
(7.36138 0.0042463 0)
(7.36313 0.00396582 0)
(7.36485 0.00365478 0)
(7.36652 0.00331505 0)
(7.36815 0.00294831 0)
(7.36975 0.00255607 0)
(7.3713 0.00213975 0)
(7.37281 0.00170067 0)
(7.37427 0.00124012 0)
(7.37569 0.000759332 0)
(7.37707 0.000259561 0)
(7.37841 -0.000257966 0)
(7.3797 -0.000791906 0)
(7.38094 -0.00134128 0)
(7.38215 -0.00190362 0)
(7.33307 0.000295128 0)
(7.33337 0.000870348 0)
(7.33402 0.00140739 0)
(7.33499 0.00189304 0)
(7.33619 0.00232065 0)
(7.33757 0.00268705 0)
(7.3391 0.00299099 0)
(7.34074 0.00323306 0)
(7.34248 0.00341525 0)
(7.34427 0.00354032 0)
(7.3461 0.00361142 0)
(7.34795 0.00363178 0)
(7.34982 0.00360467 0)
(7.35168 0.00353323 0)
(7.35353 0.00342039 0)
(7.35537 0.0032689 0)
(7.35718 0.00308127 0)
(7.35896 0.0028598 0)
(7.36071 0.00260656 0)
(7.36243 0.00232347 0)
(7.36411 0.00201223 0)
(7.36575 0.00167445 0)
(7.36735 0.00131158 0)
(7.36891 0.000924988 0)
(7.37043 0.000515971 0)
(7.37191 8.57732e-05 0)
(7.37334 -0.000364396 0)
(7.37473 -0.000833337 0)
(7.37608 -0.00131985 0)
(7.37738 -0.00182274 0)
(7.37864 -0.0023407 0)
(7.37985 -0.0028727 0)
(7.38103 -0.00341637 0)
(7.33307 0.000178611 0)
(7.33336 0.000528878 0)
(7.33399 0.000857784 0)
(7.33494 0.00115669 0)
(7.33611 0.00142057 0)
(7.33746 0.00164576 0)
(7.33896 0.00182953 0)
(7.34057 0.00197053 0)
(7.34226 0.00206856 0)
(7.34402 0.00212421 0)
(7.34581 0.00213853 0)
(7.34763 0.00211295 0)
(7.34946 0.00204914 0)
(7.35129 0.00194887 0)
(7.35311 0.00181397 0)
(7.35491 0.00164624 0)
(7.35668 0.00144741 0)
(7.35843 0.00121914 0)
(7.36015 0.000963008 0)
(7.36183 0.000680487 0)
(7.36348 0.000372963 0)
(7.36509 4.17484e-05 0)
(7.36666 -0.000311914 0)
(7.36818 -0.000686831 0)
(7.36967 -0.00108186 0)
(7.37111 -0.00149586 0)
(7.37252 -0.00192775 0)
(7.37387 -0.00237641 0)
(7.37519 -0.00284075 0)
(7.37646 -0.00331965 0)
(7.37769 -0.00381196 0)
(7.37887 -0.00431684 0)
(7.38001 -0.00483219 0)
(7.33307 6.10873e-05 0)
(7.33336 0.000184361 0)
(7.33398 0.000303196 0)
(7.33491 0.000413596 0)
(7.33607 0.000512166 0)
(7.3374 0.000594719 0)
(7.33887 0.000657015 0)
(7.34045 0.000695746 0)
(7.34212 0.000708569 0)
(7.34385 0.000693824 0)
(7.34561 0.000650435 0)
(7.3474 0.000577893 0)
(7.3492 0.000476163 0)
(7.351 0.000345565 0)
(7.35278 0.000186677 0)
(7.35455 2.59443e-07 0)
(7.3563 -0.000212798 0)
(7.35802 -0.000451526 0)
(7.35971 -0.00071491 0)
(7.36136 -0.00100192 0)
(7.36298 -0.0013115 0)
(7.36456 -0.00164263 0)
(7.3661 -0.00199426 0)
(7.36759 -0.00236537 0)
(7.36905 -0.00275492 0)
(7.37047 -0.00316191 0)
(7.37184 -0.0035853 0)
(7.37317 -0.00402406 0)
(7.37445 -0.00447713 0)
(7.3757 -0.00494345 0)
(7.3769 -0.00542188 0)
(7.37805 -0.00591145 0)
(7.37917 -0.0064101 0)
(7.33307 -5.89205e-05 0)
(7.33336 -0.000167999 0)
(7.33398 -0.000263943 0)
(7.33491 -0.000345549 0)
(7.33606 -0.000414676 0)
(7.33738 -0.000476367 0)
(7.33884 -0.000536644 0)
(7.34041 -0.000600879 0)
(7.34206 -0.000673609 0)
(7.34377 -0.000758675 0)
(7.34551 -0.000859156 0)
(7.34728 -0.000977317 0)
(7.34905 -0.0011147 0)
(7.35082 -0.00127231 0)
(7.35258 -0.00145067 0)
(7.35432 -0.00165 0)
(7.35603 -0.0018702 0)
(7.35772 -0.00211102 0)
(7.35938 -0.00237201 0)
(7.361 -0.00265263 0)
(7.36259 -0.00295226 0)
(7.36414 -0.00327021 0)
(7.36564 -0.00360576 0)
(7.36711 -0.00395811 0)
(7.36854 -0.00432649 0)
(7.36992 -0.00471005 0)
(7.37126 -0.00510795 0)
(7.37256 -0.00551931 0)
(7.37381 -0.00594326 0)
(7.37502 -0.0063789 0)
(7.37619 -0.0068253 0)
(7.37732 -0.00728184 0)
(7.37841 -0.00774682 0)
(7.33307 -0.000183152 0)
(7.33336 -0.000532745 0)
(7.33399 -0.000850007 0)
(7.33494 -0.00112783 0)
(7.3361 -0.00136686 0)
(7.33743 -0.00157368 0)
(7.33889 -0.00175661 0)
(7.34046 -0.00192349 0)
(7.3421 -0.00208153 0)
(7.3438 -0.00223729 0)
(7.34553 -0.00239633 0)
(7.34728 -0.00256304 0)
(7.34903 -0.0027407 0)
(7.35078 -0.00293176 0)
(7.35252 -0.0031379 0)
(7.35424 -0.00336026 0)
(7.35593 -0.00359949 0)
(7.35759 -0.00385586 0)
(7.35923 -0.00412938 0)
(7.36082 -0.00441987 0)
(7.36239 -0.00472695 0)
(7.36391 -0.00505016 0)
(7.36539 -0.00538892 0)
(7.36683 -0.00574259 0)
(7.36823 -0.00611048 0)
(7.36959 -0.00649183 0)
(7.37091 -0.00688589 0)
(7.37218 -0.00729182 0)
(7.37341 -0.0077088 0)
(7.3746 -0.00813595 0)
(7.37574 -0.00857233 0)
(7.37684 -0.00901709 0)
(7.3779 -0.00946851 0)
(7.33307 -0.000314642 0)
(7.33338 -0.000918292 0)
(7.33403 -0.00146729 0)
(7.33501 -0.00194765 0)
(7.3362 -0.00235962 0)
(7.33755 -0.00271258 0)
(7.33903 -0.0030177 0)
(7.3406 -0.00328513 0)
(7.34225 -0.00352444 0)
(7.34395 -0.00374456 0)
(7.34567 -0.00395323 0)
(7.3474 -0.00415678 0)
(7.34914 -0.00436023 0)
(7.35087 -0.00456755 0)
(7.35259 -0.0047818 0)
(7.35428 -0.00500524 0)
(7.35595 -0.00523951 0)
(7.35759 -0.00548574 0)
(7.35919 -0.00574463 0)
(7.36076 -0.00601659 0)
(7.36229 -0.00630174 0)
(7.36378 -0.00660005 0)
(7.36524 -0.00691128 0)
(7.36665 -0.00723512 0)
(7.36802 -0.00757112 0)
(7.36935 -0.00791877 0)
(7.37063 -0.00827752 0)
(7.37187 -0.00864675 0)
(7.37307 -0.00902582 0)
(7.37423 -0.00941408 0)
(7.37535 -0.00981086 0)
(7.37643 -0.0102158 0)
(7.37747 -0.0106275 0)
(7.33308 -0.000457251 0)
(7.3334 -0.00133514 0)
(7.3341 -0.00213037 0)
(7.33512 -0.00282071 0)
(7.33636 -0.00340784 0)
(7.33776 -0.00390671 0)
(7.33927 -0.00433358 0)
(7.34087 -0.00470291 0)
(7.34254 -0.00502832 0)
(7.34425 -0.00532221 0)
(7.34598 -0.00559491 0)
(7.34772 -0.0058545 0)
(7.34945 -0.00610733 0)
(7.35118 -0.00635833 0)
(7.35288 -0.0066113 0)
(7.35456 -0.00686904 0)
(7.35622 -0.00713363 0)
(7.35784 -0.0074065 0)
(7.35943 -0.00768864 0)
(7.36098 -0.00798068 0)
(7.36249 -0.00828295 0)
(7.36396 -0.00859554 0)
(7.3654 -0.00891839 0)
(7.36679 -0.00925128 0)
(7.36813 -0.0095939 0)
(7.36944 -0.00994581 0)
(7.3707 -0.0103066 0)
(7.37192 -0.0106756 0)
(7.3731 -0.0110523 0)
(7.37424 -0.011436 0)
(7.37533 -0.0118262 0)
(7.37638 -0.0122219 0)
(7.37739 -0.012622 0)
(7.33308 -0.000616437 0)
(7.33344 -0.0017981 0)
(7.3342 -0.00285956 0)
(7.33531 -0.0037693 0)
(7.33662 -0.00453347 0)
(7.33808 -0.00517396 0)
(7.33964 -0.00571068 0)
(7.34128 -0.00616103 0)
(7.34298 -0.00654283 0)
(7.3447 -0.00687306 0)
(7.34643 -0.0071659 0)
(7.34816 -0.00743256 0)
(7.34989 -0.00768197 0)
(7.3516 -0.00792121 0)
(7.35329 -0.00815577 0)
(7.35495 -0.00838981 0)
(7.35658 -0.00862639 0)
(7.35818 -0.00886779 0)
(7.35974 -0.00911562 0)
(7.36126 -0.009371 0)
(7.36275 -0.00963467 0)
(7.36419 -0.00990704 0)
(7.3656 -0.0101883 0)
(7.36696 -0.0104785 0)
(7.36828 -0.0107776 0)
(7.36955 -0.0110851 0)
(7.37079 -0.011401 0)
(7.37198 -0.0117248 0)
(7.37313 -0.012056 0)
(7.37424 -0.0123943 0)
(7.37531 -0.0127392 0)
(7.37634 -0.0130904 0)
(7.37733 -0.0134471 0)
(7.33308 -0.000800605 0)
(7.3335 -0.00232916 0)
(7.33436 -0.00368161 0)
(7.33559 -0.00481839 0)
(7.33701 -0.00576328 0)
(7.33856 -0.00655673 0)
(7.34021 -0.00722733 0)
(7.34192 -0.00779627 0)
(7.34367 -0.00828444 0)
(7.34544 -0.00871104 0)
(7.3472 -0.00909133 0)
(7.34896 -0.0094371 0)
(7.3507 -0.00975782 0)
(7.35241 -0.0100611 0)
(7.3541 -0.010353 0)
(7.35576 -0.010638 0)
(7.35738 -0.0109196 0)
(7.35897 -0.0112007 0)
(7.36051 -0.0114831 0)
(7.36202 -0.0117683 0)
(7.36349 -0.0120574 0)
(7.36491 -0.0123509 0)
(7.36629 -0.0126494 0)
(7.36763 -0.0129531 0)
(7.36892 -0.013262 0)
(7.37018 -0.013576 0)
(7.37138 -0.0138949 0)
(7.37255 -0.0142185 0)
(7.37367 -0.0145465 0)
(7.37475 -0.0148786 0)
(7.37579 -0.0152141 0)
(7.37679 -0.0155529 0)
(7.37774 -0.0158939 0)
(7.33309 -0.00102338 0)
(7.3336 -0.00296479 0)
(7.33462 -0.00464241 0)
(7.33601 -0.00600397 0)
(7.33757 -0.00709389 0)
(7.33921 -0.0079715 0)
(7.34093 -0.00867748 0)
(7.3427 -0.00924621 0)
(7.34449 -0.00971165 0)
(7.34627 -0.0101021 0)
(7.34805 -0.010438 0)
(7.34981 -0.0107345 0)
(7.35154 -0.0110036 0)
(7.35325 -0.0112542 0)
(7.35492 -0.011493 0)
(7.35655 -0.0117251 0)
(7.35815 -0.0119542 0)
(7.35971 -0.012183 0)
(7.36123 -0.0124136 0)
(7.3627 -0.0126474 0)
(7.36414 -0.0128855 0)
(7.36553 -0.0131287 0)
(7.36687 -0.0133773 0)
(7.36818 -0.0136317 0)
(7.36944 -0.013892 0)
(7.37066 -0.0141582 0)
(7.37183 -0.0144301 0)
(7.37296 -0.0147077 0)
(7.37405 -0.0149906 0)
(7.3751 -0.0152786 0)
(7.37611 -0.0155714 0)
(7.37708 -0.0158688 0)
(7.37801 -0.01617 0)
(7.33311 -0.00130859 0)
(7.33375 -0.00375372 0)
(7.33503 -0.00579805 0)
(7.33669 -0.00743451 0)
(7.33847 -0.00877498 0)
(7.3403 -0.00988992 0)
(7.34218 -0.0108058 0)
(7.34406 -0.0115537 0)
(7.34593 -0.012173 0)
(7.34777 -0.0126961 0)
(7.34958 -0.0131456 0)
(7.35135 -0.0135388 0)
(7.35308 -0.0138899 0)
(7.35477 -0.0142104 0)
(7.35642 -0.0145085 0)
(7.35803 -0.0147909 0)
(7.3596 -0.0150622 0)
(7.36112 -0.0153261 0)
(7.3626 -0.0155853 0)
(7.36403 -0.0158418 0)
(7.36542 -0.016097 0)
(7.36676 -0.016352 0)
(7.36806 -0.0166075 0)
(7.36931 -0.016864 0)
(7.37052 -0.0171217 0)
(7.37168 -0.0173808 0)
(7.3728 -0.0176415 0)
(7.37388 -0.0179037 0)
(7.37491 -0.0181674 0)
(7.3759 -0.0184326 0)
(7.37685 -0.0186992 0)
(7.37776 -0.0189673 0)
(7.37862 -0.0192367 0)
(7.33314 -0.0017131 0)
(7.33403 -0.00480963 0)
(7.33564 -0.00713652 0)
(7.33755 -0.00877118 0)
(7.33947 -0.00999817 0)
(7.3414 -0.0109693 0)
(7.34337 -0.0117332 0)
(7.34532 -0.0123347 0)
(7.34722 -0.0128225 0)
(7.34907 -0.0132314 0)
(7.35086 -0.0135819 0)
(7.35261 -0.0138885 0)
(7.35431 -0.014163 0)
(7.35595 -0.0144146 0)
(7.35754 -0.01465 0)
(7.35908 -0.014874 0)
(7.36058 -0.0150908 0)
(7.36202 -0.0153032 0)
(7.36342 -0.0155136 0)
(7.36477 -0.0157237 0)
(7.36608 -0.0159349 0)
(7.36734 -0.0161482 0)
(7.36856 -0.0163641 0)
(7.36973 -0.0165832 0)
(7.37086 -0.0168058 0)
(7.37194 -0.0170319 0)
(7.37298 -0.0172615 0)
(7.37398 -0.0174946 0)
(7.37494 -0.0177309 0)
(7.37586 -0.0179703 0)
(7.37674 -0.0182122 0)
(7.37758 -0.0184563 0)
(7.37839 -0.0187019 0)
(7.33321 -0.00230682 0)
(7.33467 -0.00642727 0)
(7.33707 -0.0095151 0)
(7.33954 -0.0117567 0)
(7.34173 -0.0134588 0)
(7.34378 -0.0147551 0)
(7.34577 -0.0157246 0)
(7.34767 -0.016459 0)
(7.34946 -0.0170351 0)
(7.35115 -0.0175004 0)
(7.35277 -0.0178853 0)
(7.35432 -0.0182124 0)
(7.3558 -0.0184988 0)
(7.35722 -0.0187565 0)
(7.35859 -0.0189933 0)
(7.3599 -0.0192149 0)
(7.36116 -0.0194253 0)
(7.36237 -0.0196274 0)
(7.36353 -0.0198233 0)
(7.36464 -0.0200144 0)
(7.36571 -0.0202018 0)
(7.36673 -0.0203864 0)
(7.36771 -0.0205687 0)
(7.36864 -0.0207493 0)
(7.36954 -0.0209285 0)
(7.37039 -0.0211067 0)
(7.3712 -0.0212841 0)
(7.37197 -0.021461 0)
(7.37271 -0.0216377 0)
(7.3734 -0.0218148 0)
(7.37406 -0.0219927 0)
(7.37468 -0.0221734 0)
(7.37526 -0.0223582 0)
(7.33323 -0.00330733 0)
(7.33508 -0.00748595 0)
(7.33785 -0.00963437 0)
(7.34039 -0.0111617 0)
(7.34248 -0.0124964 0)
(7.34435 -0.0135477 0)
(7.34606 -0.0143184 0)
(7.34756 -0.0149098 0)
(7.34888 -0.0153926 0)
(7.35005 -0.0157925 0)
(7.35112 -0.0161249 0)
(7.3521 -0.0164067 0)
(7.35301 -0.0166528 0)
(7.35385 -0.0168736 0)
(7.35463 -0.0170766 0)
(7.35537 -0.0172676 0)
(7.35607 -0.0174508 0)
(7.35673 -0.0176297 0)
(7.35736 -0.0178065 0)
(7.35796 -0.0179828 0)
(7.35853 -0.0181598 0)
(7.35907 -0.0183383 0)
(7.35958 -0.0185185 0)
(7.36006 -0.0187007 0)
(7.36052 -0.0188849 0)
(7.36095 -0.019071 0)
(7.36136 -0.0192585 0)
(7.36174 -0.019447 0)
(7.3621 -0.0196357 0)
(7.36243 -0.0198232 0)
(7.36274 -0.0200082 0)
(7.36302 -0.0201859 0)
(7.36326 -0.0203572 0)
(7.33597 -0.00734845 0)
(7.3463 -0.0150967 0)
(7.35617 -0.0177367 0)
(7.36436 -0.0188971 0)
(7.37191 -0.0197792 0)
(7.37926 -0.0203568 0)
(7.38624 -0.0206456 0)
(7.39271 -0.0207945 0)
(7.39874 -0.0209012 0)
(7.40441 -0.0209911 0)
(7.40977 -0.0210684 0)
(7.41483 -0.0211386 0)
(7.41962 -0.0212065 0)
(7.42415 -0.0212742 0)
(7.42845 -0.0213419 0)
(7.43253 -0.0214093 0)
(7.43639 -0.0214765 0)
(7.44005 -0.0215436 0)
(7.44353 -0.0216106 0)
(7.44681 -0.0216779 0)
(7.44993 -0.0217455 0)
(7.45287 -0.0218138 0)
(7.45565 -0.0218831 0)
(7.45828 -0.0219537 0)
(7.46076 -0.022026 0)
(7.4631 -0.0221003 0)
(7.46531 -0.022177 0)
(7.46739 -0.0222564 0)
(7.46934 -0.0223389 0)
(7.47119 -0.0224251 0)
(7.47293 -0.0225148 0)
(7.47458 -0.0226093 0)
(7.47617 -0.0227065 0)
(7.32333 -0.00889149 0)
(7.30978 -0.0181851 0)
(7.29242 -0.022275 0)
(7.27081 -0.0243669 0)