/*--------------------------------*- C++ -*----------------------------------*\
| =========                 |                                                 |
| \\      /  F ield         | OpenFOAM: The Open Source CFD Toolbox           |
|  \\    /   O peration     | Version:  4.1                                   |
|   \\  /    A nd           | Web:      www.OpenFOAM.org                      |
|    \\/     M anipulation  |                                                 |
\*---------------------------------------------------------------------------*/
FoamFile
{
    version     2.0;
    format      ascii;
    class       volScalarField;
    location    "1200";
    object      p;
}
// * * * * * * * * * * * * * * * * * * * * * * * * * * * * * * * * * * * * * //

dimensions      [0 2 -2 0 0 0 0];

internalField   nonuniform List<scalar> 
26785
(
1457.64
1493.01
1522.29
1547.89
1568.7
1583.52
1592.43
1596.9
1598.69
1598.51
1595.36
1588.74
1579.01
1566.39
1551
1533.07
1512.28
1487.69
1458.46
1424.42
1387.69
1357.55
1328.97
1293.48
1260.51
1234.08
1209.21
1185.86
1164.28
1144.73
1127.88
1114.54
1104.8
1097.94
1093.26
1090.45
1089.61
1089.49
1089.83
1090.92
1093.63
1099.24
1106.6
1114.56
1123.9
1134.53
1146
1158.14
1170.98
1184.46
1198.41
1212.57
1226.63
1240.27
1253.17
1265.03
1275.52
1284.38
1291.34
1296.22
1298.87
1299.2
1297.21
1292.92
1286.42
1277.81
1267.24
1254.84
1240.74
1225.07
1207.89
1189.23
1169.11
1147.68
1125.19
1101.85
1077.8
1053.23
1028.33
1003.28
978.184
953.12
928.091
903.011
877.665
851.728
824.456
794.959
762.5
726.236
685.326
639.093
586.972
528.624
463.737
392.598
314.434
231.883
138.702
54.6365
1457.66
1492.93
1522.21
1547.83
1568.68
1583.55
1592.47
1596.94
1598.72
1598.55
1595.41
1588.78
1579.06
1566.43
1551.05
1533.12
1512.35
1487.78
1458.55
1424.49
1387.65
1357.63
1329.13
1293.47
1260.48
1234.09
1209.24
1185.9
1164.31
1144.74
1127.85
1114.52
1104.77
1097.89
1093.2
1090.4
1089.6
1089.48
1089.81
1091
1093.97
1099.48
1106.67
1114.53
1123.81
1134.44
1145.92
1158.08
1170.93
1184.42
1198.38
1212.55
1226.62
1240.28
1253.21
1265.09
1275.61
1284.49
1291.47
1296.37
1299.03
1299.37
1297.39
1293.1
1286.6
1278
1267.42
1255.02
1240.93
1225.26
1208.1
1189.45
1169.33
1147.88
1125.39
1102.03
1077.97
1053.38
1028.46
1003.4
978.295
953.231
928.211
903.155
877.854
852.013
824.855
795.457
763.105
726.938
686.089
639.876
587.731
529.318
464.338
393.105
314.822
232.19
138.665
55.0378
1457.5
1492.73
1522
1547.65
1568.59
1583.57
1592.55
1597.01
1598.78
1598.63
1595.51
1588.87
1579.14
1566.52
1551.14
1533.22
1512.49
1487.97
1458.75
1424.66
1387.62
1357.79
1329.47
1293.47
1260.46
1234.14
1209.31
1185.98
1164.38
1144.75
1127.82
1114.52
1104.75
1097.79
1093.03
1090.24
1089.51
1089.39
1089.75
1091.07
1094.08
1099.47
1106.54
1114.35
1123.61
1134.25
1145.75
1157.93
1170.8
1184.31
1198.29
1212.49
1226.6
1240.31
1253.29
1265.22
1275.79
1284.71
1291.74
1296.67
1299.36
1299.73
1297.75
1293.48
1286.98
1278.37
1267.8
1255.4
1241.32
1225.66
1208.52
1189.88
1169.75
1148.28
1125.77
1102.39
1078.3
1053.67
1028.73
1003.64
978.525
953.46
928.459
903.451
878.233
852.565
825.625
796.428
764.287
728.307
687.576
641.399
589.215
530.715
465.599
394.132
315.476
232.498
138.409
55.2469
1457.26
1492.45
1521.69
1547.34
1568.39
1583.54
1592.66
1597.12
1598.86
1598.76
1595.65
1589.01
1579.28
1566.65
1551.28
1533.38
1512.7
1488.24
1459.06
1424.92
1387.6
1358
1329.96
1293.48
1260.42
1234.2
1209.38
1186.06
1164.44
1144.77
1127.81
1114.56
1104.72
1097.59
1092.7
1089.86
1089.19
1089
1089.42
1090.94
1094.01
1099.27
1106.23
1114.06
1123.34
1133.97
1145.47
1157.67
1170.56
1184.11
1198.14
1212.39
1226.57
1240.35
1253.41
1265.42
1276.07
1285.06
1292.15
1297.14
1299.87
1300.27
1298.31
1294.05
1287.55
1278.95
1268.38
1255.98
1241.91
1226.27
1209.17
1190.53
1170.38
1148.89
1126.35
1102.94
1078.79
1054.12
1029.13
1004.01
978.876
953.814
928.842
903.906
878.804
853.369
826.743
797.851
766.025
730.319
689.762
643.658
591.471
532.836
467.303
395.215
315.921
232.472
138.025
54.8811
1456.93
1492.1
1521.32
1546.96
1568.12
1583.46
1592.76
1597.28
1598.97
1598.94
1595.85
1589.2
1579.46
1566.83
1551.47
1533.6
1512.98
1488.61
1459.47
1425.3
1387.65
1358.24
1330.6
1293.53
1260.42
1234.29
1209.49
1186.16
1164.5
1144.77
1127.78
1114.52
1104.58
1097.32
1092.34
1089.37
1088.61
1088.37
1088.93
1090.6
1093.7
1098.86
1105.74
1113.61
1122.91
1133.53
1145.03
1157.25
1170.2
1183.8
1197.9
1212.24
1226.52
1240.4
1253.57
1265.69
1276.45
1285.55
1292.72
1297.78
1300.56
1301
1299.08
1294.83
1288.34
1279.74
1269.17
1256.78
1242.71
1227.11
1210.04
1191.41
1171.22
1149.7
1127.13
1103.67
1079.45
1054.72
1029.68
1004.51
979.358
954.3
929.369
904.526
879.572
854.417
828.186
799.704
768.302
732.96
692.645
646.686
594.418
535.262
468.91
395.981
315.883
231.902
137.297
54.156
1456.56
1491.68
1520.88
1546.53
1567.81
1583.35
1592.85
1597.45
1599.14
1599.15
1596.11
1589.43
1579.68
1567.07
1551.71
1533.87
1513.32
1489.05
1459.98
1425.8
1387.79
1358.47
1331.38
1293.63
1260.49
1234.42
1209.62
1186.25
1164.52
1144.65
1127.64
1114.41
1104.42
1097.01
1091.91
1088.78
1087.86
1087.58
1088.28
1090.07
1093.19
1098.26
1105.05
1112.97
1122.29
1132.89
1144.39
1156.66
1169.68
1183.37
1197.58
1212.03
1226.44
1240.47
1253.78
1266.05
1276.94
1286.17
1293.45
1298.6
1301.46
1301.95
1300.06
1295.83
1289.35
1280.75
1270.18
1257.79
1243.74
1228.17
1211.15
1192.52
1172.28
1150.72
1128.11
1104.57
1080.28
1055.47
1030.37
1005.15
979.971
954.924
930.045
905.315
880.54
855.699
829.927
801.962
771.113
736.237
696.235
650.368
597.651
537.575
470.127
396.177
315.28
230.999
136.424
53.6251
1456.17
1491.18
1520.37
1546.05
1567.48
1583.23
1592.94
1597.65
1599.36
1599.42
1596.42
1589.71
1579.95
1567.35
1552.01
1534.2
1513.73
1489.57
1460.59
1426.46
1388.1
1358.71
1332.27
1293.83
1260.64
1234.61
1209.78
1186.3
1164.4
1144.4
1127.41
1114.25
1104.19
1096.58
1091.27
1087.98
1086.99
1086.65
1087.5
1089.37
1092.47
1097.45
1104.13
1112.1
1121.44
1132.03
1143.55
1155.87
1168.98
1182.8
1197.15
1211.76
1226.34
1240.54
1254.04
1266.49
1277.55
1286.93
1294.35
1299.61
1302.55
1303.11
1301.26
1297.06
1290.59
1281.99
1271.41
1259.03
1245
1229.46
1212.48
1193.85
1173.55
1151.95
1129.28
1105.67
1081.28
1056.38
1031.2
1005.93
980.724
955.69
930.876
906.277
881.709
857.21
831.937
804.599
774.47
740.148
700.463
654.432
600.801
539.454
470.777
395.984
314.584
230.246
135.676
53.3848
1455.68
1490.59
1519.78
1545.5
1567.11
1583.1
1593.04
1597.86
1599.58
1599.73
1596.8
1590.05
1580.27
1567.68
1552.36
1534.59
1514.21
1490.17
1461.28
1427.27
1388.65
1358.96
1333.24
1294.11
1260.89
1234.85
1209.91
1186.26
1164.2
1144.11
1127.15
1114.01
1103.82
1095.98
1090.49
1087.13
1086.06
1085.63
1086.59
1088.47
1091.55
1096.41
1102.99
1110.99
1120.34
1130.91
1142.46
1154.87
1168.11
1182.08
1196.61
1211.42
1226.2
1240.63
1254.35
1267.02
1278.29
1287.85
1295.43
1300.82
1303.87
1304.5
1302.7
1298.52
1292.06
1283.46
1272.89
1260.51
1246.49
1230.99
1214.04
1195.39
1175.04
1153.39
1130.66
1106.94
1082.45
1057.45
1032.18
1006.85
981.617
956.602
931.866
907.414
883.077
858.938
834.179
807.58
778.32
744.655
705.218
658.494
603.514
540.842
471.186
395.873
314.152
229.833
135.149
53.3695
1455.11
1489.91
1519.1
1544.87
1566.7
1582.97
1593.15
1598.11
1599.8
1600.11
1597.23
1590.44
1580.64
1568.05
1552.76
1535.04
1514.76
1490.84
1462.04
1428.24
1389.55
1359.28
1334.25
1294.46
1261.23
1235.1
1210
1186.19
1164
1143.84
1126.89
1113.71
1103.34
1095.32
1089.64
1086.29
1085.1
1084.51
1085.54
1087.39
1090.42
1095.14
1101.6
1109.6
1118.95
1129.52
1141.11
1153.62
1167.02
1181.19
1195.94
1210.99
1226.03
1240.73
1254.71
1267.64
1279.15
1288.93
1296.7
1302.24
1305.4
1306.12
1304.38
1300.23
1293.79
1285.18
1274.6
1262.22
1248.21
1232.77
1215.83
1197.16
1176.75
1155.04
1132.23
1108.4
1083.79
1058.68
1033.32
1007.92
982.657
957.666
933.02
908.731
884.65
860.877
836.638
810.857
782.569
749.743
710.17
662.201
605.811
542.065
471.729
396.092
314.106
229.805
134.868
53.5261
1454.45
1489.15
1518.33
1544.16
1566.24
1582.83
1593.28
1598.38
1600.04
1600.56
1597.71
1590.9
1581.05
1568.48
1553.22
1535.55
1515.37
1491.59
1462.84
1429.33
1390.9
1359.78
1335.29
1294.89
1261.64
1235.36
1210.08
1186.11
1163.77
1143.55
1126.62
1113.34
1102.76
1094.58
1088.69
1085.39
1084.03
1083.29
1084.34
1086.09
1089.05
1093.62
1099.94
1107.92
1117.25
1127.82
1139.47
1152.12
1165.71
1180.12
1195.13
1210.47
1225.82
1240.83
1255.13
1268.35
1280.14
1290.17
1298.15
1303.86
1307.16
1307.98
1306.3
1302.19
1295.76
1287.15
1276.56
1264.18
1250.18
1234.79
1217.86
1199.14
1178.69
1156.9
1133.99
1110.04
1085.3
1060.07
1034.61
1009.14
983.844
958.882
934.34
910.231
886.438
863.048
839.33
814.377
787.165
755.237
714.941
665.554
607.952
543.418
472.611
396.748
314.488
230.178
134.839
53.8371
1453.77
1488.29
1517.47
1543.37
1565.72
1582.67
1593.41
1598.66
1600.29
1601.02
1598.24
1591.42
1581.52
1568.96
1553.73
1536.13
1516.06
1492.41
1463.68
1430.49
1392.76
1360.58
1336.37
1295.38
1262.11
1235.62
1210.14
1185.99
1163.52
1143.27
1126.32
1112.87
1102.04
1093.73
1087.61
1084.42
1082.86
1081.98
1082.97
1084.56
1087.42
1091.81
1097.99
1105.91
1115.22
1125.79
1137.51
1150.32
1164.15
1178.84
1194.17
1209.86
1225.57
1240.94
1255.6
1269.17
1281.27
1291.57
1299.79
1305.7
1309.16
1310.08
1308.48
1304.41
1297.99
1289.38
1278.77
1266.38
1252.39
1237.05
1220.13
1201.34
1180.84
1158.97
1135.96
1111.87
1086.98
1061.62
1036.05
1010.51
985.182
960.254
935.827
911.918
888.452
865.483
842.269
818.157
792.127
760.813
719.4
668.723
610.166
545.084
473.934
397.889
315.318
230.961
135.061
54.3084
1453.04
1487.36
1516.53
1542.49
1565.15
1582.49
1593.55
1598.98
1600.56
1601.45
1598.83
1592.01
1582.05
1569.48
1554.3
1536.76
1516.83
1493.33
1464.53
1431.58
1395.08
1361.82
1337.48
1295.97
1262.62
1235.91
1210.2
1185.85
1163.25
1142.96
1125.94
1112.29
1101.23
1092.8
1086.44
1083.37
1081.57
1080.56
1081.4
1082.76
1085.51
1089.72
1095.72
1103.57
1112.82
1123.39
1135.21
1148.22
1162.32
1177.35
1193.06
1209.14
1225.27
1241.06
1256.12
1270.07
1282.53
1293.15
1301.63
1307.77
1311.39
1312.44
1310.92
1306.89
1300.48
1291.86
1281.23
1268.83
1254.84
1239.55
1222.64
1203.77
1183.2
1161.26
1138.11
1113.88
1088.84
1063.34
1037.66
1012.03
986.673
961.783
937.484
913.794
890.681
868.169
845.42
822.231
797.468
766.217
723.612
671.884
612.621
547.166
475.745
399.536
316.601
232.165
135.53
54.9679
1452.24
1486.36
1515.51
1541.53
1564.51
1582.29
1593.69
1599.32
1600.88
1601.86
1599.48
1592.67
1582.65
1570.06
1554.92
1537.46
1517.67
1494.34
1465.42
1432.44
1397.64
1363.61
1338.53
1296.67
1263.22
1236.24
1210.27
1185.7
1162.96
1142.6
1125.47
1111.6
1100.33
1091.77
1085.17
1082.22
1080.14
1079.03
1079.62
1080.69
1083.29
1087.31
1093.13
1100.85
1110.03
1120.61
1132.55
1145.79
1160.21
1175.63
1191.77
1208.32
1224.92
1241.18
1256.7
1271.08
1283.93
1294.89
1303.68
1310.05
1313.87
1315.06
1313.63
1309.65
1303.25
1294.61
1283.96
1271.53
1257.53
1242.29
1225.39
1206.42
1185.78
1163.75
1140.47
1116.07
1090.88
1065.23
1039.42
1013.7
988.317
963.469
939.309
915.856
893.112
871.064
848.739
826.61
803.093
771.373
727.714
675.183
615.42
549.716
478.061
401.696
318.341
233.804
136.243
55.8618
1451.35
1485.29
1514.42
1540.5
1563.82
1582.06
1593.84
1599.69
1601.25
1602.28
1600.21
1593.39
1583.31
1570.7
1555.59
1538.22
1518.58
1495.47
1466.39
1432.83
1400.01
1365.99
1339.46
1297.47
1263.91
1236.63
1210.37
1185.54
1162.65
1142.18
1124.92
1110.84
1099.36
1090.63
1083.78
1080.96
1078.54
1077.37
1077.58
1078.31
1080.75
1084.57
1090.17
1097.73
1106.82
1117.41
1129.49
1143
1157.8
1173.66
1190.3
1207.37
1224.51
1241.3
1257.33
1272.18
1285.46
1296.81
1305.92
1312.57
1316.6
1317.94
1316.6
1312.67
1306.29
1297.63
1286.95
1274.49
1260.48
1245.27
1228.36
1209.3
1188.57
1166.45
1143.02
1118.45
1093.09
1067.29
1041.34
1015.54
990.114
965.314
941.304
918.096
895.731
874.136
852.174
831.216
808.831
776.331
731.838
678.727
618.624
552.754
480.885
404.372
320.544
235.9
137.199
57.0478
1450.38
1484.15
1513.26
1539.4
1563.07
1581.81
1593.98
1600.08
1601.66
1602.68
1601.01
1594.16
1584.06
1571.4
1556.31
1539.04
1519.57
1496.73
1467.44
1432.31
1401.41
1369
1340.33
1298.31
1264.66
1237.07
1210.48
1185.38
1162.31
1141.73
1124.31
1110
1098.31
1089.36
1082.3
1079.59
1076.75
1075.54
1075.26
1075.59
1077.86
1081.47
1086.83
1094.19
1103.16
1113.75
1126
1139.82
1155.06
1171.44
1188.64
1206.31
1224.04
1241.42
1258.01
1273.38
1287.14
1298.91
1308.38
1315.32
1319.58
1321.09
1319.86
1315.99
1309.61
1300.93
1290.2
1277.7
1263.66
1248.48
1231.58
1212.4
1191.57
1169.36
1145.77
1121.01
1095.47
1069.51
1043.43
1017.52
992.066
967.319
943.465
920.502
898.512
877.348
855.746
835.95
814.521
781.172
736.088
682.586
622.266
556.287
484.216
407.566
323.216
238.475
138.404
58.5857
1449.43
1482.95
1512.03
1538.23
1562.27
1581.53
1594.12
1600.49
1602.12
1603.09
1601.83
1594.95
1584.88
1572.17
1557.09
1539.91
1520.63
1498.11
1468.69
1431.26
1401.9
1372.43
1341.27
1299.28
1265.47
1237.55
1210.6
1185.22
1161.97
1141.23
1123.64
1109.08
1097.17
1087.97
1080.71
1078.06
1074.81
1073.45
1072.62
1072.52
1074.6
1077.99
1083.07
1090.18
1099
1109.61
1122.05
1136.24
1151.97
1168.94
1186.79
1205.12
1223.51
1241.54
1258.74
1274.68
1288.95
1301.18
1311.04
1318.31
1322.82
1324.51
1323.4
1319.58
1313.22
1304.51
1293.73
1281.17
1267.1
1251.93
1235.02
1215.72
1194.77
1172.46
1148.7
1123.76
1098.03
1071.9
1045.67
1019.67
994.173
969.482
945.782
923.054
901.428
880.674
859.507
840.772
820.068
786.019
740.552
686.81
626.357
560.311
488.052
411.282
326.372
241.555
139.865
60.5327
1448.42
1481.69
1510.75
1537.01
1561.43
1581.23
1594.25
1600.91
1602.6
1603.53
1602.61
1595.77
1585.78
1573.01
1557.92
1540.84
1521.75
1499.61
1470.29
1431.06
1402.32
1375.64
1342.22
1300.41
1266.35
1238.05
1210.75
1185.08
1161.62
1140.7
1122.91
1108.09
1095.93
1086.44
1079.01
1076.34
1072.72
1071.06
1069.61
1069.06
1070.94
1074.09
1078.87
1085.68
1094.32
1104.94
1117.61
1132.23
1148.53
1166.16
1184.72
1203.79
1222.92
1241.65
1259.52
1276.08
1290.91
1303.63
1313.92
1321.54
1326.32
1328.21
1327.23
1323.48
1317.11
1308.37
1297.52
1284.9
1270.78
1255.61
1238.69
1219.27
1198.18
1175.75
1151.82
1126.68
1100.76
1074.45
1048.07
1021.96
996.436
971.801
948.244
925.728
904.445
884.102
863.485
845.682
825.428
790.964
745.287
691.423
630.902
564.821
492.391
415.529
330.03
245.161
141.595
62.938
1447.34
1480.37
1509.4
1535.73
1560.55
1580.91
1594.38
1601.35
1603.11
1604.02
1603.33
1596.61
1586.75
1573.93
1558.82
1541.83
1522.93
1501.23
1472.34
1433
1402.9
1378
1343.04
1301.61
1267.31
1238.59
1210.93
1184.96
1161.26
1140.13
1122.11
1107.02
1094.6
1084.77
1077.21
1074.42
1070.45
1068.35
1066.23
1065.19
1066.85
1069.76
1074.18
1080.64
1089.07
1099.71
1112.66
1127.76
1144.7
1163.08
1182.44
1202.32
1222.25
1241.76
1260.35
1277.58
1293.01
1306.27
1317.02
1325.02
1330.1
1332.2
1331.36
1327.67
1321.31
1312.52
1301.6
1288.9
1274.7
1259.51
1242.58
1223.05
1201.79
1179.23
1155.13
1129.78
1103.66
1077.16
1050.63
1024.42
998.853
974.268
950.832
928.501
907.534
887.616
867.664
850.677
830.659
796.051
750.319
696.433
635.896
569.816
497.241
420.319
334.21
249.299
143.6
65.8105
1446.17
1479
1508.01
1534.4
1559.63
1580.58
1594.5
1601.79
1603.65
1604.55
1604.03
1597.49
1587.8
1574.94
1559.79
1542.89
1524.18
1502.97
1474.79
1437.24
1403.45
1379.24
1343.71
1302.82
1268.33
1239.19
1211.14
1184.86
1160.9
1139.53
1121.26
1105.87
1093.15
1082.97
1075.3
1072.28
1068.03
1065.31
1062.45
1060.88
1062.32
1064.96
1068.98
1075.03
1083.22
1093.89
1107.15
1122.81
1140.48
1159.69
1179.93
1200.71
1221.52
1241.86
1261.23
1279.18
1295.26
1309.09
1320.34
1328.74
1334.14
1336.48
1335.78
1332.17
1325.81
1316.97
1305.96
1293.15
1278.87
1263.64
1246.71
1227.04
1205.6
1182.89
1158.61
1133.05
1106.73
1080.04
1053.34
1027.02
1001.42
976.872
953.527
931.346
910.673
891.196
872.003
855.715
835.832
801.304
755.665
701.844
641.337
575.297
502.614
425.661
338.923
253.944
145.888
69.0565
1444.91
1477.57
1506.55
1533.02
1558.68
1580.24
1594.62
1602.25
1604.22
1605.13
1604.73
1598.44
1588.92
1576.03
1560.82
1544.01
1525.49
1504.75
1477.46
1442.64
1404.94
1380.54
1344.39
1304.06
1269.44
1239.84
1211.41
1184.79
1160.53
1138.9
1120.36
1104.64
1091.61
1081.04
1073.28
1069.93
1065.45
1061.95
1058.25
1056.11
1057.29
1059.65
1063.23
1068.8
1076.71
1087.43
1101.06
1117.35
1135.84
1155.98
1177.2
1198.95
1220.71
1241.95
1262.16
1280.87
1297.64
1312.09
1323.87
1332.71
1338.46
1341.05
1340.52
1336.98
1330.62
1321.72
1310.6
1297.68
1283.28
1268
1251.06
1231.25
1209.61
1186.73
1162.26
1136.5
1109.96
1083.07
1056.21
1029.78
1004.13
979.598
956.307
934.245
913.84
894.824
876.447
860.747
841.004
806.756
761.343
707.66
647.23
581.275
508.525
431.554
344.16
259.026
148.47
72.4566
1443.7
1476.1
1505.05
1531.59
1557.7
1579.89
1594.73
1602.71
1604.82
1605.76
1605.45
1599.49
1590.12
1577.22
1561.95
1545.22
1526.85
1506.45
1479.74
1446.92
1408.54
1382.21
1345.19
1305.39
1270.64
1240.55
1211.71
1184.74
1160.17
1138.25
1119.41
1103.34
1089.95
1078.99
1071.15
1067.39
1062.7
1058.22
1053.59
1050.85
1051.75
1053.8
1056.88
1061.9
1069.51
1080.29
1094.35
1111.36
1130.77
1151.94
1174.23
1197.05
1219.82
1242.02
1263.12
1282.65
1300.16
1315.26
1327.61
1336.93
1343.05
1345.91
1345.56
1342.1
1335.75
1326.78
1315.54
1302.47
1287.94
1272.56
1255.63
1235.68
1213.82
1190.76
1166.09
1140.11
1113.35
1086.25
1059.23
1032.69
1006.98
982.428
959.155
937.18
917.017
898.467
880.919
865.74
846.231
812.445
767.369
713.887
653.583
587.766
514.984
437.967
349.873
264.424
151.35
75.7484
1442.43
1474.58
1503.5
1530.12
1556.69
1579.54
1594.85
1603.16
1605.44
1606.4
1606.19
1600.63
1591.38
1578.48
1563.16
1546.51
1528.27
1508.04
1481.53
1448.99
1413.31
1383.91
1346.21
1306.82
1271.91
1241.32
1212.07
1184.73
1159.81
1137.58
1118.4
1101.95
1088.19
1076.82
1068.9
1064.64
1059.76
1054.11
1048.45
1045.06
1045.64
1047.37
1049.89
1054.3
1061.57
1072.44
1087
1104.83
1125.26
1147.56
1171.02
1194.99
1218.86
1242.08
1264.13
1284.5
1302.79
1318.59
1331.55
1341.38
1347.91
1351.07
1350.91
1347.55
1341.2
1332.15
1320.77
1307.53
1292.84
1277.34
1260.43
1240.31
1218.22
1194.95
1170.09
1143.88
1116.9
1089.59
1062.4
1035.73
1009.95
985.346
962.053
940.139
920.188
902.09
885.358
870.688
851.566
818.398
773.753
720.531
660.413
594.779
521.974
444.83
355.967
269.999
154.495
78.7553
1441.08
1473.01
1501.91
1528.61
1555.66
1579.19
1594.96
1603.62
1606.09
1607.06
1606.93
1601.84
1592.69
1579.82
1564.46
1547.88
1529.7
1509.41
1483.93
1450.34
1417.3
1385.63
1347.46
1308.35
1273.23
1242.15
1212.47
1184.74
1159.45
1136.88
1117.34
1100.48
1086.32
1074.54
1066.52
1061.71
1056.53
1049.56
1042.8
1038.73
1038.93
1040.32
1042.23
1045.94
1052.85
1063.85
1078.99
1097.74
1119.31
1142.86
1167.59
1192.79
1217.82
1242.12
1265.15
1286.43
1305.53
1322.06
1335.67
1346.05
1353.02
1356.51
1356.57
1353.33
1346.99
1337.85
1326.32
1312.87
1297.99
1282.32
1265.46
1245.16
1222.81
1199.32
1174.25
1147.81
1120.6
1093.08
1065.71
1038.92
1013.03
988.335
964.987
943.109
923.343
905.674
889.732
875.6
857.036
824.629
780.505
727.607
667.736
602.309
529.443
452.033
362.315
275.616
157.833
81.4368
1439.64
1471.41
1500.28
1527.05
1554.6
1578.84
1595.07
1604.08
1606.75
1607.73
1607.66
1603.1
1594.02
1581.22
1565.88
1549.37
1531.24
1510.82
1486.45
1452.09
1420.49
1387.32
1348.91
1309.97
1274.62
1243.02
1212.91
1184.77
1159.1
1136.15
1116.23
1098.92
1084.36
1072.16
1063.98
1058.61
1052.91
1044.54
1036.63
1031.82
1031.56
1032.62
1033.84
1036.79
1043.32
1054.5
1070.31
1090.09
1112.92
1137.83
1163.92
1190.44
1216.71
1242.14
1266.19
1288.39
1308.33
1325.64
1339.94
1350.91
1358.36
1362.23
1362.54
1359.43
1353.1
1343.89
1332.18
1318.5
1303.4
1287.5
1270.71
1250.23
1227.57
1203.85
1178.57
1151.91
1124.45
1096.72
1069.16
1042.22
1016.21
991.382
967.947
946.084
926.478
909.21
894.022
880.491
862.658
831.142
787.632
735.13
675.556
610.317
537.295
459.442
368.78
281.172
161.281
83.8289
1438.13
1469.78
1498.61
1525.46
1553.52
1578.5
1595.19
1604.54
1607.44
1608.41
1608.4
1604.38
1595.35
1582.69
1567.4
1551.01
1533.05
1513.12
1488.17
1455.12
1423.44
1389.13
1350.56
1311.69
1276.05
1243.95
1213.39
1184.83
1158.74
1135.4
1115.05
1097.28
1082.29
1069.68
1061.25
1055.34
1048.88
1039.05
1029.91
1024.29
1023.5
1024.22
1024.7
1026.8
1032.96
1044.36
1060.95
1081.89
1106.1
1132.48
1160.05
1187.95
1215.51
1242.11
1267.21
1290.36
1311.18
1329.29
1344.32
1355.94
1363.93
1368.21
1368.81
1365.86
1359.56
1350.26
1338.37
1324.44
1309.06
1292.88
1276.15
1255.51
1232.5
1208.54
1183.06
1156.16
1128.46
1100.49
1072.75
1045.65
1019.47
994.474
970.926
949.062
929.59
912.694
898.212
885.366
868.428
837.928
795.14
743.104
683.851
618.722
545.396
466.916
375.235
286.587
164.773
85.9561
1436.67
1468.11
1496.9
1523.84
1552.42
1578.16
1595.31
1605
1608.15
1609.08
1609.16
1605.64
1596.68
1584.22
1569.05
1552.76
1534.97
1516.37
1489.46
1458.62
1426.27
1391.07
1352.35
1313.48
1277.54
1244.92
1213.91
1184.91
1158.38
1134.63
1113.82
1095.55
1080.12
1067.09
1058.32
1051.9
1044.45
1033.09
1022.62
1016.12
1014.68
1015.08
1014.78
1015.97
1021.75
1033.45
1050.92
1073.14
1098.88
1126.84
1155.97
1185.34
1214.23
1242.03
1268.2
1292.32
1314.03
1332.98
1348.8
1361.11
1369.69
1374.43
1375.37
1372.6
1366.36
1356.98
1344.9
1330.68
1315
1298.47
1281.78
1261.03
1237.59
1213.39
1187.71
1160.57
1132.61
1104.41
1076.47
1049.19
1022.8
997.606
973.92
952.043
932.683
916.127
902.28
890.209
874.329
844.966
803.029
751.519
692.562
627.401
553.597
474.328
381.58
291.799
168.269
87.7977
1435.14
1466.41
1495.17
1522.19
1551.29
1577.83
1595.42
1605.45
1608.87
1609.76
1609.95
1606.84
1598.03
1585.82
1570.82
1554.69
1537.14
1519.1
1491.41
1461.91
1428.92
1393.08
1354.26
1315.35
1279.09
1245.95
1214.47
1185.02
1158.03
1133.82
1112.54
1093.74
1077.84
1064.4
1055.19
1048.28
1039.62
1026.63
1014.74
1007.29
1005.08
1005.19
1004.05
1004.28
1009.69
1021.76
1040.24
1063.88
1091.26
1120.93
1151.7
1182.59
1212.85
1241.87
1269.14
1294.24
1316.87
1336.71
1353.36
1366.42
1375.64
1380.9
1382.2
1379.67
1373.5
1364.05
1351.78
1337.25
1321.23
1304.28
1287.52
1266.8
1242.83
1218.39
1192.54
1165.14
1136.91
1108.47
1080.32
1052.82
1026.21
1000.77
976.928
955.028
935.758
919.502
906.206
895
880.327
852.223
811.283
760.33
701.588
636.209
561.759
481.568
387.739
296.748
171.736
89.3104
1433.55
1464.68
1493.41
1520.51
1550.16
1577.51
1595.54
1605.89
1609.6
1610.47
1610.76
1608.01
1599.45
1587.5
1572.74
1556.88
1540.24
1520.66
1494.45
1464.92
1431.5
1395.2
1356.27
1317.29
1280.69
1247.03
1215.07
1185.14
1157.67
1132.99
1111.19
1091.84
1075.46
1061.59
1051.84
1044.49
1034.38
1019.68
1006.27
997.753
994.653
994.498
992.494
991.715
996.782
1009.31
1028.92
1054.13
1083.28
1114.75
1147.25
1179.7
1211.37
1241.64
1270
1296.11
1319.7
1340.48
1358.02
1371.89
1381.79
1387.6
1389.32
1387.04
1380.98
1371.48
1359.01
1344.17
1327.76
1310.34
1293.28
1272.8
1248.27
1223.56
1197.54
1169.87
1141.35
1112.67
1084.29
1056.55
1029.67
1003.97
979.954
958.022
938.817
922.815
909.975
899.707
886.36
859.648
819.871
769.466
710.798
645.008
569.761
488.547
393.649
301.376
175.135
90.4542
1431.87
1462.92
1491.63
1518.8
1549
1577.2
1595.66
1606.33
1610.33
1611.23
1611.61
1609.17
1600.93
1589.27
1574.77
1559.11
1544.47
1521.69
1497.53
1467.79
1434.11
1397.43
1358.38
1319.3
1282.36
1248.17
1215.72
1185.3
1157.32
1132.14
1109.78
1089.85
1072.97
1058.62
1048.24
1040.45
1028.72
1012.23
997.191
987.516
983.37
982.99
980.12
978.29
983.043
996.125
1017
1043.91
1074.96
1108.33
1142.61
1176.68
1209.77
1241.31
1270.81
1297.96
1322.56
1344.33
1362.82
1377.53
1388.14
1394.54
1396.7
1394.71
1388.79
1379.25
1366.61
1351.43
1334.6
1316.69
1299.03
1279.05
1253.94
1228.93
1202.74
1174.77
1145.95
1117
1088.37
1060.36
1033.19
1007.21
983.003
961.027
941.864
926.061
913.576
904.266
892.319
867.17
828.748
778.828
720.061
653.676
577.506
495.192
399.247
305.617
178.415
91.1998
1430.11
1461.14
1489.83
1517.08
1547.83
1576.89
1595.78
1606.75
1611.07
1612.05
1612.49
1610.35
1602.5
1591.11
1576.87
1561.16
1548.4
1523.57
1500.39
1470.6
1436.74
1399.76
1360.6
1321.39
1284.09
1249.37
1216.41
1185.48
1156.97
1131.26
1108.32
1087.79
1070.36
1055.49
1044.42
1036.1
1022.61
1004.28
987.511
976.58
971.218
970.639
966.926
964.009
968.482
982.21
1004.5
1033.24
1066.31
1101.66
1137.79
1173.51
1208.06
1240.89
1271.56
1299.81
1325.48
1348.3
1367.76
1383.33
1394.68
1401.68
1404.33
1402.68
1396.93
1387.38
1374.56
1359.06
1341.78
1323.35
1304.92
1285.53
1259.86
1234.51
1208.13
1179.84
1150.69
1121.46
1092.56
1064.26
1036.78
1010.5
986.083
964.049
944.905
929.241
917.027
908.602
898.031
874.698
837.861
788.311
729.26
662.111
584.909
501.428
404.457
309.402
181.519
91.5246
1428.43
1459.33
1488
1515.33
1546.65
1576.59
1595.89
1607.18
1611.81
1612.92
1613.39
1611.54
1604.17
1593.03
1579.09
1563.51
1550.77
1526.71
1503.12
1473.36
1439.42
1402.21
1362.92
1323.55
1285.89
1250.64
1217.16
1185.69
1156.63
1130.36
1106.81
1085.64
1067.65
1052.16
1040.4
1031.38
1016.06
995.838
977.244
964.968
958.192
957.423
952.92
948.876
953.102
967.576
991.416
1022.13
1057.33
1094.75
1132.78
1170.18
1206.22
1240.38
1272.27
1301.68
1328.47
1352.36
1372.81
1389.24
1401.35
1409.01
1412.2
1410.94
1405.4
1395.88
1382.89
1367.06
1349.29
1330.34
1311.1
1292.18
1266.06
1240.28
1213.69
1185.08
1155.58
1126.05
1096.86
1068.25
1040.43
1013.84
989.204
967.091
947.941
932.363
920.433
912.636
903.232
882.136
847.15
797.808
738.293
670.215
591.883
507.174
409.194
312.663
184.382
91.4107
1426.68
1457.49
1486.15
1513.57
1545.46
1576.3
1596
1607.59
1612.54
1613.8
1614.31
1612.77
1605.94
1595.02
1581.42
1567.09
1551.86
1529.95
1505.64
1476.09
1442.14
1404.75
1365.35
1325.79
1287.75
1251.97
1217.96
1185.94
1156.31
1129.45
1105.24
1083.41
1064.81
1048.64
1036.17
1026.31
1009.07
986.91
966.419
952.726
944.304
943.316
938.107
932.889
936.897
952.22
977.767
1010.59
1048.03
1087.6
1127.58
1166.69
1204.26
1239.8
1272.95
1303.56
1331.51
1356.48
1377.9
1395.2
1408.1
1416.49
1420.31
1419.52
1414.25
1404.77
1391.63
1375.45
1357.17
1337.66
1317.64
1298.86
1272.46
1246.18
1219.4
1190.47
1160.62
1130.78
1101.28
1072.32
1044.16
1017.25
992.374
970.155
950.972
935.427
923.829
916.345
907.875
889.402
856.547
807.214
747.052
677.881
598.331
512.334
413.365
315.329
186.939
90.8479
1424.89
1455.64
1484.29
1511.79
1544.26
1576.01
1596.1
1608
1613.25
1614.69
1615.25
1614.04
1607.82
1597.1
1583.71
1572.14
1552.81
1532.91
1508.12
1478.85
1444.91
1407.4
1367.88
1328.11
1289.7
1253.38
1218.81
1186.23
1156
1128.52
1103.63
1081.1
1061.85
1044.92
1031.74
1020.89
1001.64
977.51
955.08
939.912
929.587
928.295
922.485
916.029
919.843
936.127
963.551
998.633
1038.42
1080.21
1122.19
1163.05
1202.18
1239.13
1273.6
1305.44
1334.53
1360.54
1382.9
1401.09
1414.88
1424.14
1428.71
1428.48
1423.52
1414.11
1400.8
1384.27
1365.43
1345.32
1324.49
1305.42
1279.04
1252.14
1225.21
1196.02
1165.81
1135.64
1105.8
1076.49
1047.97
1020.73
995.6
973.241
953.992
938.433
927.11
919.755
912.172
896.433
865.964
816.414
755.417
684.99
604.136
516.804
416.871
317.335
189.116
89.8368
1423.03
1453.77
1482.41
1510
1543.05
1575.73
1596.19
1608.39
1613.92
1615.59
1616.2
1615.33
1609.77
1599.21
1585.4
1577.18
1554.58
1535.84
1510.76
1481.67
1447.75
1410.16
1370.52
1330.53
1291.73
1254.87
1219.74
1186.57
1155.71
1127.58
1101.97
1078.72
1058.77
1041.03
1027.15
1015.15
993.783
967.657
943.278
926.597
914.1
912.329
906.039
898.251
901.89
919.271
948.778
986.278
1028.55
1072.62
1116.65
1159.28
1199.99
1238.39
1274.19
1307.24
1337.41
1364.39
1387.69
1406.87
1421.72
1432.03
1437.5
1437.91
1433.31
1423.98
1410.49
1393.55
1374.12
1353.34
1331.65
1311.88
1285.72
1258.16
1231.08
1201.71
1171.16
1140.63
1110.44
1080.77
1051.87
1024.29
998.888
976.349
956.989
941.373
930.146
922.824
916.264
903.141
875.311
825.275
763.248
691.392
609.162
520.468
419.61
318.617
190.838
88.3921
1421.14
1451.89
1480.51
1508.19
1541.82
1575.44
1596.27
1608.76
1614.56
1616.48
1617.16
1616.68
1611.8
1601.36
1586.48
1581.13
1557.4
1538.75
1513.54
1484.57
1450.67
1413.03
1373.27
1333.04
1293.84
1256.44
1220.73
1186.96
1155.45
1126.65
1100.28
1076.28
1055.58
1036.98
1022.39
1009.08
985.504
957.373
931.071
912.857
897.932
895.39
888.737
879.48
882.967
901.631
933.487
973.605
1018.49
1064.93
1111.03
1155.43
1197.74
1237.57
1274.67
1308.86
1340
1367.9
1392.22
1412.59
1428.76
1440.32
1446.79
1447.9
1443.69
1434.45
1420.76
1403.37
1383.26
1361.73
1339.11
1318.49
1292.39
1264.26
1237.01
1207.52
1176.64
1145.75
1115.21
1085.15
1055.88
1027.95
1002.24
979.479
959.953
944.209
932.918
925.393
920.006
909.344
884.482
833.616
770.356
696.906
613.251
523.2
421.479
319.117
192.028
86.5443
1419.32
1449.99
1478.6
1506.37
1540.59
1575.15
1596.33
1609.1
1615.18
1617.37
1618.13
1618.06
1613.88
1603.7
1587.85
1584.15
1560.76
1541.71
1516.46
1487.55
1453.67
1416.01
1376.13
1335.66
1296.05
1258.1
1221.8
1187.4
1155.23
1125.71
1098.56
1073.77
1052.28
1032.78
1017.48
1002.69
976.81
946.684
918.514
898.76
881.206
877.458
870.535
859.612
863
883.227
917.8
960.792
1008.45
1057.3
1105.47
1151.61
1195.47
1236.69
1274.99
1310.2
1342.23
1371.09
1396.62
1418.47
1436.19
1449.13
1456.69
1458.55
1454.76
1445.6
1431.66
1413.77
1392.91
1370.54
1346.91
1325.45
1299.08
1270.44
1242.94
1213.39
1182.26
1151.01
1120.1
1089.67
1060.01
1031.71
1005.67
982.624
962.872
946.908
935.464
927.508
923.303
914.783
893.332
841.163
776.484
701.307
616.229
524.869
422.377
318.781
192.613
84.3384
1417.48
1448.09
1476.68
1504.54
1539.34
1574.86
1596.38
1609.42
1615.76
1618.24
1619.1
1619.49
1615.99
1606.24
1590.13
1586.57
1564.29
1544.74
1519.52
1490.65
1456.79
1419.11
1379.11
1338.38
1298.36
1259.86
1222.96
1187.91
1155.04
1124.79
1096.82
1071.2
1048.88
1028.46
1012.44
995.978
967.712
935.612
905.65
884.359
864.069
858.548
851.396
838.538
841.956
864.198
902.015
948.216
998.784
1050.01
1100.15
1147.93
1193.26
1235.76
1275.17
1311.3
1344.19
1374.15
1401.14
1424.72
1444.15
1458.57
1467.26
1469.92
1466.55
1457.46
1443.26
1424.8
1403.1
1379.78
1355.05
1332.74
1305.89
1276.67
1248.82
1219.25
1187.95
1156.4
1125.12
1094.32
1064.26
1035.58
1009.16
985.78
965.729
949.457
937.763
929.442
926.214
919.326
901.559
847.543
781.317
704.343
617.9
525.337
422.204
317.563