/*--------------------------------*- C++ -*----------------------------------*\
| =========                 |                                                 |
| \\      /  F ield         | OpenFOAM: The Open Source CFD Toolbox           |
|  \\    /   O peration     | Version:  4.1                                   |
|   \\  /    A nd           | Web:      www.OpenFOAM.org                      |
|    \\/     M anipulation  |                                                 |
\*---------------------------------------------------------------------------*/
FoamFile
{
    version     2.0;
    format      ascii;
    class       surfaceScalarField;
    location    "1200";
    object      phi;
}
// * * * * * * * * * * * * * * * * * * * * * * * * * * * * * * * * * * * * * //

dimensions      [0 3 -1 0 0 0 0];

internalField   nonuniform List<scalar> 
52920
(
-2032.66
-312.319
-1781.48
-251.18
-1524.53
-256.96
-1300.62
-223.92
-1135.58
-165.055
-1051.07
-84.5214
-1034.13
-16.9549
-1071.09
36.9375
-1136.9
65.7941
-1196.91
59.9945
-1261.76
64.8367
-1347.25
85.4723
-1450.47
103.207
-1563.77
113.288
-1678.6
114.813
-1789.12
110.514
-1897.18
108.042
-2009.31
112.12
-2125.55
116.23
-2225.24
99.6812
-2248.49
23.2438
-2000.46
-248.041
-1623.98
-376.485
-1452.05
-171.941
-1392.94
-59.1212
-1304.66
-88.2933
-1213.22
-91.4522
-1068.27
-144.955
-833.392
-234.894
-561.276
-272.129
-352.513
-208.778
-234.83
-117.7
-161.671
-73.1801
-116.924
-44.7726
-135.962
19.009
-225.723
89.7222
-229.278
3.51484
-218.364
-10.9606
-232.66
14.2443
-25.736
-206.958
369.487
-395.243
675.817
-306.348
815.4
-139.598
1003.94
-188.551
1332.84
-328.912
1752.42
-419.598
2203.66
-451.263
2650.62
-446.957
3078.03
-427.423
3481.65
-403.627
3862.78
-381.138
4225.53
-362.752
4575.02
-349.498
4916.22
-341.203
5253.18
-336.961
5588.65
-335.474
5923.95
-335.306
6259.01
-335.056
6592.49
-333.485
6922.1
-329.604
7244.81
-322.716
7557.24
-312.427
7855.86
-298.616
8137.25
-281.394
8398.3
-261.052
8636.33
-238.031
8849.21
-212.874
9035.49
-186.278
9194.45
-158.962
9326.27
-131.817
9432.36
-106.09
9513.63
-81.2729
9569.11
-55.4837
9598.51
-29.4001
9604.22
-5.70648
9589.92
14.2955
9559.33
30.5977
9515.96
43.3633
9463.63
52.3346
9406.51
57.1169
9349.45
57.0602
9298.09
51.3591
9259.28
38.8135
9240.93
18.3492
9249.87
-8.93822
9297.31
-47.4397
9392.25
-94.943
9537.83
-145.58
9740.28
-202.449
10006.1
-265.839
10338.3
-332.166
10738
-399.757
11205.9
-467.873
11740.1
-534.196
12334.1
-593.952
12981.2
-647.128
13670.5
-689.31
14415.2
-744.736
15164.8
-749.603
-881.477
-2447.78
-544.848
-2169.88
-529.078
-1868.94
-557.909
-1532.41
-560.464
-1207.72
-489.752
-1013.12
-279.131
-984.694
-45.4009
-1038.93
91.1577
-1100.09
126.94
-1155.65
115.538
-1219.69
128.853
-1301.6
167.369
-1400.04
201.634
-1509.56
222.791
-1621.22
226.464
-1729.44
218.721
-1836.73
215.323
-1949.02
224.399
-2065.2
232.404
-2163.94
198.405
-2164.51
23.8086
-1893.85
-518.708
-1524.96
-745.386
-1345.6
-351.316
-1269.02
-135.704
-1167.8
-189.528
-1064.13
-195.14
-910.447
-298.647
-675.184
-470.169
-397.939
-549.388
-165.975
-440.756
-17.1567
-266.537
81.1823
-171.54
138.442
-102.057
127.038
30.3849
38.6003
178.122
65.463
-23.3864
173.351
-118.883
351.195
-163.622
416.934
-272.719
338.349
-316.678
349.184
-317.2
551.136
-341.566
912.577
-550.006
1362.72
-779.066
1848.19
-905.089
2328.06
-931.154
2784.76
-903.662
3213.05
-855.729
3613.94
-804.52
3991.71
-758.911
4351.89
-722.94
4699.87
-697.487
5040.23
-681.559
5376.48
-673.216
5711.1
-670.101
6045.51
-669.716
6380.01
-669.551
6713.72
-667.201
7044.65
-660.531
7369.79
-647.861
7685.48
-628.115
7987.71
-600.858
8272.56
-566.233
8536.35
-524.853
8776
-477.679
8989.03
-425.901
9173.77
-371.017
9329.33
-314.526
9455.8
-258.289
9554.75
-205.04
9625.74
-152.261
9667.12
-96.856
9679.85
-42.1313
9667.26
6.87857
9633.74
47.8163
9583.32
81.0152
9520.03
106.653
9448.22
124.149
9372.56
132.78
9298.28
131.341
9231.31
118.323
9178.37
91.7568
9147.4
49.3179
9145.48
-7.02225
9182.93
-84.8899
9267.97
-179.983
9403.77
-281.38
9595.82
-394.496
9849.87
-519.886
10169.9
-652.151
10559.4
-789.288
11015.5
-924.024
11525.4
-1044.04
12078.3
-1146.87
12681.9
-1250.72
13358.5
-1365.96
14127.6
-1513.75
14984.4
-1606.4
-1854.19
-2619.77
-750.235
-2391.13
-757.724
-2142.3
-806.743
-1842.55
-860.217
-1471.04
-861.267
-1103.75
-646.431
-926.333
-222.83
-973.338
138.148
-1058.54
212.125
-1106.12
163.104
-1162.25
184.971
-1240.22
245.32
-1332.88
294.279
-1437.88
327.784
-1547.82
336.389
-1656.61
327.505
-1766.97
325.678
-1884.74
342.156
-2008.48
356.132
-2114.01
303.925
-2098.76
8.55515
-1812
-805.478
-1440.79
-1116.61
-1240.33
-551.78
-1148.39
-227.654
-1037.75
-300.181
-919.901
-313.004
-755.621
-462.941
-525.5
-700.302
-258.624
-816.276
-17.8378
-681.555
153.762
-438.154
262.838
-280.635
335.251
-174.492
371.976
-6.3633
333.074
216.993
346.311
-36.6529
359.043
-131.636
376.369
-180.965
357.482
-253.848
300.763
-259.977
343.223
-359.677
596.075
-594.432
1023.17
-977.115
1518.47
-1274.37
2017.4
-1404.02
2495.49
-1409.27
2945.09
-1353.26
3364.93
-1275.58
3757.26
-1196.85
4126.23
-1127.89
4476.98
-1073.69
4814.98
-1035.5
5145.76
-1012.34
5474.39
-1001.85
5805
-1000.7
6140.1
-1004.82
6480.18
-1009.63
6823.5
-1010.52
7166.42
-1003.45
7504.03
-985.471
7830.92
-955.004
8141.84
-911.777
8432.14
-856.536
8698
-790.713
8936.48
-716.16
9145.51
-634.932
9323.94
-549.446
9471.34
-461.928
9588.33
-375.274
9676.83
-293.543
9735.14
-210.573
9761.51
-123.221
9758.24
-38.8585
9729.48
35.6381
9679.7
97.5963
9612.9
147.809
9533.33
186.223
9445.59
211.888
9354.68
223.7
9266.12
219.891
9186.2
198.248
9121.62
156.337
9080.14
90.7996
9068.99
4.12397
9097.14
-113.036
9171.25
-254.1
9294.04
-404.167
9470.28
-570.733
9709.57
-759.18
10020.8
-963.407
10396.4
-1164.81
10810.4
-1338.07
11261.6
-1495.26
11805.9
-1691.19
12518.6
-1963.37
13424.3
-2271.68
14468.1
-2557.55
15617.1
-2755.38
-2962.65
-2647.19
-973.623
-2433.45
-971.47
-2215.76
-1024.43
-1978.76
-1097.23
-1680.71
-1159.33
-1301.87
-1025.28
-971.043
-553.668
-894.76
61.8496
-998.856
316.206
-1062.05
226.284
-1106.3
229.2
-1176.59
315.597
-1264.56
382.235
-1365.2
428.409
-1473.83
445.011
-1584.28
437.949
-1698.55
439.939
-1822.48
466.072
-1954.89
488.533
-2068.26
417.282
-2043.79
-15.925
-1746.05
-1103.23
-1357.88
-1504.79
-1114.24
-795.423
-990.273
-351.634
-858.359
-432.108
-717.111
-454.264
-540.552
-639.514
-323.167
-917.699
-98.1046
-1041.35
72.2257
-851.899
142.087
-508.033
190.544
-329.112
304.006
-287.974
419.008
-121.391
450.849
185.123
448.117
-33.9431
378.358
-61.8947
369.273
-171.898
372.96
-257.555
348.025
-235.06
443.397
-455.065
759.726
-910.773
1218.69
-1436.09
1719.92
-1775.61
2212.94
-1897.06
2680.68
-1877.02
3117.76
-1790.35
3523.78
-1681.61
3901.78
-1574.85
4256.97
-1483.09
4595.91
-1412.63
4925.73
-1365.33
5253.5
-1340.11
5585.25
-1333.6
5924.99
-1340.44
6273.88
-1353.71
6630
-1365.76
6988.88
-1369.41
7344.56
-1359.12
7690.66
-1331.57
8021.31
-1285.66
8331.56
-1222.03
8617.5
-1142.48
8876.22
-1049.43
9105.65
-945.587
9304.44
-833.73
9472.04
-717.039
9608.32
-598.215
9714.3
-481.249
9791.56
-370.802
9837.02
-256.038
9849.15
-135.349
9831.18
-20.8885
9788.06
78.758
9723.91
161.753
9642.73
228.987
9549.01
279.938
9447.57
313.332
9343.64
327.629
9243
320.531
9152.13
289.118
9077.77
230.694
9027.27
141.298
9008.22
23.178
9028.13
-132.943
9091.2
-317.172
9198.35
-511.316
9359.3
-731.682
9593.07
-992.951
9888.51
-1258.84
10201.6
-1477.86
10551.2
-1687.74
11081.9
-2025.95
11931
-2540.28
13073
-3105.34
14350.3
-3549.01
15613.1
-3820.38
16810.5
-3952.8
-3998.85
-2660.28
-1206.99
-2437.31
-1194.44
-2216.9
-1244.84
-1999.08
-1315.06
-1758.39
-1400.03
-1452.01
-1331.66
-1086.96
-918.723
-869.503
-155.62
-921.74
368.428
-1014.43
318.96
-1059.74
274.494
-1117.58
373.429
-1199.21
463.846
-1295.54
524.734
-1401.69
551.147
-1512.36
548.614
-1628.81
556.377
-1757.15
594.407
-1897.54
628.909
-2019.46
539.197
-1990.53
-44.8679
-1688
-1405.76
-1280.87
-1911.92
-984.3
-1092
-810.912
-525.032
-641.353
-601.679
-467.576
-628.054
-280.657
-826.446
-79.8317
-1118.54
97.4529
-1218.65
222.503
-976.963
340.663
-626.212
480.372
-468.845
597.629
-405.255
602.493
-126.278
504.181
283.409
465.908
4.31276
412.024
-8.02696
411.025
-170.914
426.829
-273.373
429.028
-237.274
580.65
-606.7
948.949
-1279.08
1426.4
-1913.55
1925.61
-2274.83
2408.95
-2380.41
2863.79
-2331.86
3286.57
-2213.13
3678.5
-2073.55
4044.13
-1940.48
4390.14
-1829.11
4724.41
-1746.9
5055.19
-1696.12
5389.98
-1674.9
5734.11
-1677.74
6089.59
-1695.93
6454.67
-1718.79
6824.54
-1735.62
7192.68
-1737.56
7552.31
-1718.76
7897.34
-1676.6
8222.81
-1611.13
8524.94
-1524.15
8800.91
-1418.45
9048.68
-1297.2
9266.82
-1163.73
9454.42
-1021.33
9611.15
-873.764
9736.96
-724.022
9833.11
-577.398
9900.24
-437.934
9933.7
-289.5
9932.89
-134.533
9901.83
10.1743
9845.68
134.908
9768.31
239.122
9673.85
323.447
9567.02
386.761
9452.88
427.481
9336.9
443.606
9225.08
432.351
9124.05
390.148
9040.58
314.166
8981.55
200.324
8954.82
49.905
8966.71
-144.824
9016.52
-366.988
9107.7
-602.493
9264.9
-888.882
9485.75
-1213.81
9704.13
-1477.22
9947.92
-1721.65
10463.6
-2203.46
11450.4
-3012.67
12787.4
-3877.28
14195.3
-4513.3
15485
-4838.74
16616.4
-4951.69
17606
-4942.48
-4868.33
-2675.33
-1451.83
-2443.22
-1426.56
-2210.73
-1477.33
-1986.9
-1538.9
-1764.64
-1622.3
-1517.66
-1578.64
-1197.87
-1238.53
-903.965
-449.532
-855.448
319.895
-955.879
419.376
-1019.54
338.137
-1068.12
421.999
-1138.89
534.598
-1229.58
615.411
-1331.44
653.003
-1439.37
656.532
-1554.79
671.786
-1684.58
724.19
-1830.8
775.118
-1959.38
667.765
-1922.61
-81.6433
-1614.77
-1713.62
-1193.59
-2333.1
-856.418
-1429.19
-636.257
-745.204
-421.726
-816.224
-213.953
-835.84
-20.7855
-1019.63
184.579
-1323.91
381.128
-1415.21
552.737
-1148.59
711.764
-785.263
778.922
-536.028
761.012
-387.367
712.403
-77.6914
584.625
411.163
497.95
90.9713
446.757
43.1499
463.741
-187.913
492.674
-302.322
528.65
-273.266
735.247
-813.31
1140.31
-1684.16
1628.28
-2401.52
2124.4
-2770.96
2599.14
-2855.16
3042.95
-2775.7
3454.23
-2624.41
3835.92
-2455.25
4194.14
-2298.71
4536.9
-2171.87
4873.12
-2083.13
5211.41
-2034.41
5558.46
-2021.95
5917.45
-2036.74
6287.41
-2065.89
6663.75
-2095.13
7039.88
-2111.76
7408.88
-2106.56
7764.63
-2074.51
8102.25
-2014.22
8418.07
-1926.95
8709.38
-1815.46
8974.16
-1683.22
9210.88
-1533.93
9418.41
-1371.26
9595.97
-1198.89
9743.26
-1021.05
9860.17
-840.935
9948.24
-665.463
10006.4
-496.13
10028.8
-311.816
10016.2
-121.981
9973.3
53.0698
9904.87
203.338
9814.82
329.176
9707.51
430.759
9587.91
506.361
9461.33
554.052
9333.55
571.396
9210.73
555.165
9099.63
501.253
9007.19
406.605
8939.85
267.661
8904.62
85.1337
8906.22
-146.428
8942.66
-403.429
9029.36
-689.19
9179.87
-1039.39
9322.63
-1356.56
9452.77
-1607.35
9883.52
-2152.4
10896
-3215.91
12302.1
-4418.78
13717.2
-5292.37
14949.2
-5745.35
15993.8
-5883.28
16919.2
-5877.12
17758.3
-5781.63
-5653.43
-2689.69
-1694.08
-2452.12
-1664.12
-2209.51
-1719.95
-1972.71
-1775.71
-1746.37
-1848.64
-1527.77
-1797.24
-1267.18
-1499.12
-965.439
-751.283
-822.788
177.228
-890.944
487.52
-978.099
425.28
-1028.81
472.699
-1086.33
592.103
-1167.9
696.973
-1263.48
748.574
-1365.32
758.359
-1475.54
782.004
-1602.58
851.224
-1750.87
923.399
-1882.13
799.013
-1829.01
-134.764
-1509.01
-2033.63
-1071.12
-2771
-703.07
-1797.25
-453.883
-994.401
-215.09
-1055.03
17.3373
-1068.28
250.685
-1252.99
491.298
-1564.54
671.965
-1595.89
786.911
-1263.55
810.85
-809.225
780.43
-505.628
753.216
-360.171
721.91
-46.4024
600.09
532.962
516.403
174.643
485.432
74.1066
524.33
-226.825
569.205
-347.208
643.161
-347.235
897.782
-1067.94
1328.32
-2114.7
1823.19
-2896.4
2317.21
-3264.98
2785.76
-3323.72
3221.64
-3211.58
3625.05
-3027.82
4000.65
-2830.86
4356.01
-2654.07
4700.23
-2516.1
5042.73
-2425.62
5391.51
-2383.19
5751.35
-2381.79
6122.65
-2408.04
6501.68
-2444.92
6882.21
-2475.67
7257.38
-2486.92
7621.08
-2470.25
7968.48
-2421.91
8296.01
-2341.76
8601.05
-2231.98
8881.57
-2095.99
9136
-1937.65
9363.01
-1760.95
9561.56
-1569.8
9730.83
-1368.17
9870.44
-1160.65
9980.17
-950.668
10061.8
-747.046
10112
-546.415
10124.4
-324.152
10101.2
-98.7664
10047.3
106.907
9967.18
283.485
9864.71
431.641
9744.61
550.86
9612.13
638.838
9472.93
693.259
9333.03
711.293
9198.88
689.311
9077.44
622.7
8975.95
508.091
8899.62
343.989
8853.23
131.526
8844.09
-137.291
8878.21
-437.548
8962.86
-773.841
9049.83
-1126.36
9080.85
-1387.59
9336.82
-1863.33
10217.2
-3032.75
11570.1
-4568.84
12933.1
-5781.77
14085.9
-6445.18
15057
-6716.46
15927.5
-6753.78
16760.7
-6710.3
17562.8
-6583.76
-6426.19
-2697.46
-1931.7
-2460.09
-1901.49
-2212.18
-1967.86
-1963.87
-2024.03
-1724.56
-2087.96
-1510.55
-2011.25
-1293.21
-1716.46
-1023.66
-1020.85
-825.856
-20.5902
-835.547
497.196
-931.685
521.403
-995.755
536.756
-1043.17
639.509
-1111.95
765.743
-1198.74
835.347
-1291.54
851.152
-1392.07
882.521
-1511.02
970.166
-1655.98
1068.35
-1784.57
927.595
-1704.96
-214.38
-1367.55
-2371.05
-911.821
-3226.73
-511.081
-2197.99
-238.768
-1266.73
7.6985
-1301.51
283.883
-1344.48
548.632
-1517.75
706.753
-1722.67
740.53
-1629.68
738.237
-1261.27
730.518
-801.528
720.529
-495.66
705.256
-344.917
702.559
-43.7241
609.202
626.294
535.654
248.174
526.585
83.1601
591.361
-291.615
656.609
-412.469
768.935
-459.575
1063.14
-1362.15
1512.27
-2563.84
2012.95
-3397.08
2506.53
-3758.57
2971.4
-3788.6
3402.21
-3642.41
3800.94
-3426.55
4173.82
-3203.75
4529.65
-3009.9
4878.22
-2864.68
5228.75
-2776.15
5587.78
-2742.23
5957.68
-2751.7
6336.29
-2786.64
6718.18
-2826.82
7096.77
-2854.26
7465.97
-2856.12
7820.97
-2825.25
8158.25
-2759.19
8475.26
-2658.77
8770.03
-2526.75
9040.94
-2366.89
9286.56
-2183.27
9505.62
-1980.01
9696.99
-1761.18
9859.81
-1530.98
9993.48
-1294.32
10097.7
-1054.85
10174
-823.345
10217.4
-589.85
10221.3
-328.054
10188.5
-65.9814
10124.6
170.868
10033.1
374.889
9918.41
546.383
9785.41
683.862
9639.75
784.498
9487.46
845.542
9334.95
863.803
9189.01
835.256
9056.84
754.868
8945.31
619.624
8857.46
431.83
8799.86
189.128
8788.89
-126.318
8826.22
-474.877
8868.99
-816.617
8841.21
-1098.58
8890.45
-1436.82
9492.72
-2465.6
10693.3
-4233.34
12000.5
-5876.05
13106.7
-6887.95
14022.5
-7361.01
14849.5
-7543.44
15650.2
-7554.51
16455.9
-7515.97
17254.6
-7382.45
-7204.27
-2696.16
-2164.61
-2462.75
-2134.9
-2214.87
-2215.75
-1959.87
-2279.03
-1707.09
-2340.74
-1484.59
-2233.76
-1288.89
-1912.17
-1058.69
-1251.05
-844.912
-234.379
-795.573
447.845
-883.162
608.982
-963.716
617.3
-1008.91
684.689
-1063.24
820.062
-1138.46
910.562
-1219.98
932.661
-1306.77
969.308
-1411.71
1075.09
-1546.06
1202.69
-1663.47
1045.01
-1543.51
-334.354
-1188.48
-2726.08
-731.402
-3683.82
-314.211
-2615.19
-8.23859
-1572.71
272.883
-1582.65
553.829
-1625.44
727.561
-1691.5
737.942
-1733.06
685.847
-1577.6
680.814
-1256.26
706.188
-826.921
723.74
-513.229
708.251
-329.444
707.72
-43.2086
632.083
701.909
566.539
313.704
577.882
71.8036
666.98
-380.724
753.263
-498.762
901.833
-608.154
1229
-1689.33
1693.42
-3028.26
2199.97
-3903.64
2694.63
-4253.23
3157.82
-4251.79
3585.83
-4070.42
3982.25
-3822.97
4354.71
-3576.21
4712.94
-3368.12
5066.91
-3218.67
5424.97
-3134.21
5791.79
-3109.05
6167.42
-3127.33
6547.93
-3167.16
6927.34
-3206.23
7299.64
-3226.56
7659.97
-3216.45
8004.83
-3170.11
8331.75
-3086.12
8638.86
-2965.87
8924.54
-2812.44
9187.33
-2629.68
9425.82
-2421.75
9638.66
-2192.85
9824.63
-1947.14
9982.7
-1689.06
10112.1
-1423.72
10212.3
-1155.04
10284.6
-895.633
10322.4
-627.694
10319.4
-325.004
10278.2
-24.8632
10204.8
244.34
10102.4
477.253
9975.47
673.327
9829.41
829.916
9670.26
943.658
9504.49
1011.31
9338.91
1029.38
9180.62
993.549
9036.7
898.786
8912.94
743.387
8812.74
532.031
8751.07
250.797
8745.86
-121.104
8763.87
-492.895
8715.01
-767.75
8613.81
-997.375
8859.04
-1682.06
9784.24
-3390.79
11027.5
-5476.57
12133.4
-6982.03
13028.3
-7782.78
13810.7
-8143.39
14568.8
-8301.55
15335.6
-8321.35
16125.2
-8305.53
16918.2
-8175.47
-7986.68
-2684.59
-2393.79
-2456.52
-2362.97
-2213.16
-2459.12
-1957.19
-2535
-1694.93
-2603.01
-1459.49
-2469.2
-1270.38
-2101.28
-1076.34
-1445.11
-868.261
-442.47
-768.766
348.331
-837.198
677.4
-930.316
710.407
-980.74
735.099
-1022.44
861.754
-1083.87
971.976
-1152.46
1001.24
-1222.56
1039.4
-1307.68
1160.2
-1422.54
1317.54
-1516.74
1139.2
-1339.15
-511.955
-970.757
-3094.49
-541.791
-4112.79
-137.568
-3019.42
202.563
-1912.85
499.157
-1879.25
703.754
-1830.05
765.68
-1753.44
728.264
-1695.66
702.772
-1552.12
719.416
-1272.92
735.243
-842.768
743.9
-521.904
722.352
-307.913
714.98
-35.8528
657.242
759.623
605.202
365.728
638.46
38.5314
749.949
-492.225
856.993
-605.817
1039.04
-790.217
1394.61
-2044.9
1873.05
-3506.72
2386.07
-4416.66
2883.08
-4750.25
3346.08
-4714.8
3772.85
-4497.2
4168.48
-4218.6
4541.74
-3949.48
4902.93
-3729.31
5261.74
-3577.49
5625.24
-3497.71
5996.19
-3480.01
6372.9
-3504.04
6750.56
-3544.82
7123.49
-3579.16
7486.75
-3589.82
7836.78
-3566.49
8171.19
-3504.52
8488.23
-3403.16
8786.42
-3264.07
9064.32
-3090.34
9320.46
-2885.82
9553.36
-2654.65
9761.57
-2401.07
9943.72
-2129.29
10098.6
-1843.97
10225.3
-1550.38
10323
-1252.73
10392.8
-965.431
10426.4
-661.319
10417.6
-316.202
10369.4
23.3902
10287
326.726
10174
590.174
10035.1
812.252
9876
989.037
9703.19
1116.47
9523.66
1190.83
9344.53
1208.51
9172.89
1165.19
9015.62
1056.05
8878.65
880.361
8769.8
640.88
8709.32
311.276
8696.52
-108.304
8652.93
-449.304
8507.89
-622.714
8445.7
-935.184
8956.56
-2192.91
10043.9
-4478.1
11174.4
-6607.06
12089.9
-7897.57
12849.2
-8542.05
13557.1
-8851.29
14276
-9020.5
15019.6
-9064.88
15795.3
-9081.29
16579
-8959.17
-8771.69
-2662.21
-2608.8
-2439.47
-2585.71
-2203.31
-2695.28
-1951.53
-2786.79
-1685.56
-2868.99
-1438.07
-2716.69
-1246.06
-2293.3
-1082.13
-1609.04
-897.624
-626.989
-759.337
210.029
-795.652
713.706
-895.337
810.082
-955.731
795.483
-989.03
895.045
-1035.73
1018.67
-1090.29
1055.79
-1141.99
1091.1
-1202.46
1220.66
-1288.97
1404.04
-1347.8
1198.02
-1096.33
-763.436
-716.007
-3474.81
-344.803
-4484
14.08
-3378.31
341.061
-2239.84
593.061
-2131.27
738.349
-1975.35
787.028
-1802.13
786.064
-1694.7
780.708
-1546.78
768.459
-1260.68
755.995
-830.318
755.944
-521.868
737.005
-288.988
723.679
-22.5395
681.725
801.559
647.84
399.601
706.844
-20.4843
839.239
-624.629
966.114
-732.7
1178.85
-1002.96
1559.94
-2426
2052.28
-3999.06
2572.56
-4936.94
3072.9
-5250.59
3536.7
-5178.6
3963.15
-4923.65
4358.66
-4614.11
4732.94
-4323.77
5096.51
-4092.88
5458.43
-3939.41
5824.37
-3863.65
6195.5
-3851.14
6569.02
-3877.56
6940.08
-3915.88
7303.79
-3942.88
7656.44
-3942.47
7995.63
-3905.68
8319.8
-3828.69
8627.69
-3711.05
8918
-3554.38
9189.3
-3361.64
9440.05
-3136.58
9668.67
-2883.27
9873.59
-2605.98
10053.3
-2308.98
10206.4
-1997.08
10331.7
-1675.7
10428.3
-1349.32
10497
-1034.1
10527.7
-692.08
10514.4
-302.856
10460.2
77.5883
10369.9
417.067
10247
712.975
10096.5
962.767
9924.51
1161.06
9738.04
1302.95
9544.48
1384.39
9350.98
1402.01
9164.73
1351.44
8993.37
1227.41
8844.91
1028.82
8731.34
754.449
8666.06
376.554
8616.69
-58.9303
8481.98
-314.591
8281.74
-422.481
8359.53
-1012.97
9098.8
-2932.19
10197.6
-5576.89
11172.1
-7581.53
11944
-8669.54
12620
-9218.05
13285.1
-9516.32
13980.1
-9715.59
14706.4
-9791.15
15471
-9845.82
16243.5
-9731.74
-9558.8
-2626.96
-2819.94
-2411.6
-2801.07
-2183.4
-2923.49
-1939.39
-3030.8
-1675.48
-3132.91
-1420.03
-2972.15
-1219.94
-2493.4
-1075.05
-1753.93
-922.73
-779.317
-764.216
51.4932
-762.736
712.212
-858.78
906.115
-931.465
868.156
-961.597
925.167
-994.211
1051.27
-1034.03
1095.59
-1066.64
1123.71
-1098.72
1252.73
-1149.16
1454.48
-1166.57
1215.42
-837.339
-1092.68
-432.746
-3879.42
-134.985
-4781.77
132.86
-3646.17
409.123
-2516.12
606.355
-2328.51
736.985
-2105.99
811.532
-1876.69
830.953
-1714.14
819.973
-1535.81
795.116
-1235.84
777.328
-812.548
773.642
-518.198
762.06
-277.422
740.345
-0.839738
708.173
833.709
694.968
412.791
783.381
-108.91
934.276
-775.535
1079.22
-877.658
1320.03
-1243.77
1725.14
-2831.11
2231.94
-4505.87
2760.37
-5465.38
3264.76
-5754.99
3729.89
-5643.73
4156.33
-5350.1
4551.71
-5009.49
4926.43
-4698.5
5290.96
-4457.41
5653.58
-4302.03
6018.65
-4228.73
6386.2
-4218.69
6753.01
-4244.37
7114.69
-4277.56
7467.41
-4295.6
7808.62
-4283.7
8136.9
-4233.95
8451.26
-4143.06
8750.73
-4010.51
9034.04
-3837.69
9299.7
-3627.3
9546.06
-3382.94
9771.42
-3108.63
9974.08
-2808.65
10152.4
-2487.29
10304.8
-2149.51
10429.9
-1800.84
10526.6
-1446
10595.4
-1102.85
10624.7
-721.35
10608.1
-286.293
10549.3
136.421
10452.1
514.222
10320.2
844.833
10158.7
1124.32
9974.11
1345.64
9774.06
1503
9566.01
1592.44
9357.17
1610.85
9155.65
1552.96
8971.12
1411.94
8813.74
1186.2
8694.51
873.677
8610.98
460.086
8502.24
49.8141
8281.73
-94.0868
8083.97
-224.723
8339.13
-1268.13
9213.65
-3806.71
10231.7
-6594.92
11060.7
-8410.52
11734
-9342.9
12360.3
-9844.33
13000.3
-10156.3
13679.7
-10395
14392.1
-10503.5
15147.3
-10601
15907.2
-10491.7
-10349
-2582.84
-3030.28
-2373.68
-3010.23
-2153.51
-3143.67
-1918.95
-3265.35
-1661.66
-3390.21
-1403.7
-3230.12
-1194.75
-2702.35
-1057.99
-1890.69
-935.17
-902.151
-774.825
-108.869
-741.43
678.807
-823.433
988.11
-906.178
950.891
-938.164
957.145
-958.785
1071.89
-983.557
1120.36
-996.915
1137.06
-997.587
1253.39
-1005.8
1462.69
-985.249
1194.86
-597.709
-1480.23
-159.943
-4317.19
82.2667
-5023.98
246.04
-3809.95
468.667
-2738.75
638.122
-2497.98
764.359
-2232.24
839.966
-1952.31
861.182
-1735.36
852.225
-1526.87
827.337
-1210.96
808.672
-793.895
800.873
-510.412
796.124
-272.684
764.385
30.8879
738.8
859.278
747.252
404.328
867.584
-229.252
1033.97
-941.924
1194.92
-1038.61
1461.74
-1510.6
1890.44
-3259.82
2412.73
-5028.16
2950.19
-6002.84
3459.07
-6263.87
3925.67
-6110.32
4351.95
-5776.39
4746.64
-5404.19
5120.65
-5072.51
5484.25
-4821
5844.86
-4662.65
6205.86
-4589.73
6566.58
-4579.41
6923.91
-4601.7
7274.23
-4627.89
7614.84
-4636.2
7944.24
-4613.1
8261.74
-4551.45
8566.76
-4448.09
8858.44
-4302.19
9135.47
-4114.71
9396.22
-3888.05
9638.91
-3625.63
9861.72
-3331.44
10062.8
-3009.77
10240.5
-2664.96
10393
-2302.04
10518.9
-1926.65
10616.6
-1543.71
10686.5
-1172.74
10715.6
-750.47
10697.1
-267.854
10635
198.57
10532.2
617.006
10392.2
984.822
10220.3
1296.2
10023.7
1542.27
9810.13
1716.58
9587.02
1815.54
9362.24
1835.63
9145.95
1769.26
8950.09
1607.8
8784.54
1351.75
8653.12
1005.1
8535.37
577.833
8358.11
227.079
8076.29
187.73
7929.33
-77.7575
8347
-1685.81
9259.53
-4719.23
10160.1
-7495.51
10872.7
-9123.1
11481.3
-9951.5
12077.7
-10440.7
12701.5
-10780.1
13368.9
-11062.4
14068.4
-11203.1
14814.6
-11347.2
15560.6
-11237.7
-11145.4
-2532.67
-3240.99
-2327.79
-3215.11
-2114.94
-3356.52
-1890.1
-3490.2
-1642.19
-3638.12
-1386.96
-3485.36
-1171.65
-2917.67
-1036.07
-2026.27
-934.756
-1003.48
-782.682
-260.969
-727.961
624.071
-791.599
1051.74
-879.332
1038.61
-916.86
994.663
-928.291
1083.31
-938.084
1130.14
-931.707
1130.67
-896.135
1217.81
-857.066
1423.61
-821.955
1159.74
-413.573
-1888.62
44.2286
-4775
260.625
-5240.38
368.473
-3917.8
553.931
-2924.22
702.819
-2646.88
807.094
-2336.53
869.034
-2014.26
891.128
-1757.47
885.889
-1521.64
863.881
-1188.97
846.324
-776.354
835.633
-499.736
836.735
-273.802
794.534
73.0748
774.642
879.151
804.118
374.838
957.505
-382.651
1136.78
-1121.21
1311.89
-1213.74
1603.4
-1802.11
2056.12
-3712.55
2595.18
-5567.23
3142.48
-6550.15
3656.09
-6777.49
4123.99
-6578.22
4549.61
-6202.02
4942.7
-5797.28
5314.52
-5444.34
5675.05
-5181.54
6031.01
-5018.61
6385.04
-4943.76
6736.24
-4930.62
7081.96
-4947.42
7419.52
-4965.46
7747.3
-4963.98
8064.71
-4930.5
8371.63
-4858.37
8667.75
-4744.21
8952.2
-4586.64
9223.52
-4386.04
9479.91
-4144.44
9719.44
-3865.16
9940.18
-3552.18
10140.2
-3209.8
10317.7
-2842.42
10470.8
-2455.14
10597.8
-2053.68
10697.1
-1643.06
10768.9
-1244.54
10799
-780.562
10780
-248.776
10715.7
262.783
10608.5
724.254
10461.4
1131.96
10280
1477.54
10071.9
1750.36
9844.82
1943.69
9606.27
2054.09
9365.75
2076.16
9136.09
1998.91
8930.15
1813.74
8753.7
1528.2
8599.91
1158.89
8434.23
743.506
8191.73
469.581
7887.06
492.398
7820.72
-11.4128
8348.49
-2213.58
9224.63
-5595.38
10005.6
-8276.52
10631.3
-9748.77
11197.4
-10517.6
11774.2
-11017.5
12385.2
-11391
13040.6
-11717.9
13726
-11888.5
14462.1
-12083.2
15193.5
-11969.1
-11954.1
-2478.76
-3451.48
-2276.12
-3417.75
-2069.58
-3563.06
-1853.82
-3705.96
-1616.46
-3875.49
-1368.02
-3733.8
-1150.48
-3135.22
-1013.52
-2163.24
-925.949
-1091.06
-785.268
-401.67
-717.169
555.962
-763.148
1097.71
-850.805
1126.26
-895.986
1039.84
-901.235
1088.55
-896.236
1125.13
-869.399
1103.83
-793.32
1141.73
-691.933
1322.21
-610.988
1078.79
-209.93
-2289.69
186.16
-5171.1
356.255
-5410.48
473.544
-4035.1
649.028
-3099.72
767.598
-2765.46
844.412
-2413.35
897.829
-2067.68
924.407
-1784.06
924.462
-1521.71
905.883
-1170.4
889.255
-759.738
876.681
-487.172
882.9
-280.03
830.696
125.269
818.258
891.576
867.766
325.321
1050.56
-565.452
1241.06
-1311.71
1429.1
-1401.79
1744.71
-2117.73
2222.48
-4190.32
2779.71
-6124.46
3337.55
-7107.99
3855.93
-7295.87
4324.74
-7047.04
4748.97
-6626.25
5139.3
-6187.61
5507.31
-5812.35
5862.66
-5536.89
6211.49
-5367.45
6556.02
-5288.28
6895.46
-5270.07
7227.85
-5279.81
7551.56
-5289.16
7865.96
-5278.39
8171.26
-5235.81
8467.81
-5154.92
8755.43
-5031.84
9033.16
-4864.37
9299.32
-4652.19
9551.87
-4396.99
9788.69
-4101.98
10007.7
-3771.19
10206.9
-3409.02
10384.4
-3019.93
10538.3
-2609.04
10666.8
-2182.13
10768.1
-1744.33
10842.2
-1318.66
10874
-812.428
10855.4
-230.116
10790.2
327.966
10679.5
834.943
10526.2
1285.27
10336.3
1667.44
10117.3
1969.37
9876.66
2184.32
9622.73
2308.02
9367.45
2331.44
9125.88
2240.49
8909.15
2030.46
8716.08
1721.27
8529.23
1345.75
8308.97
963.76
8015.09
763.466
7726.73
780.755
7744.37
-29.0543
8316.47
-2785.68
9114.55
-6393.46
9790.06
-8952.03
10352.1
-10310.8
10888.7
-11054.1
11450
-11578.8
12047.3
-11988.4
12687.9
-12358.5
13355.6
-12556.1
14079.9
-12807.5
14797.6
-12686.8
-12783.9
-2421.5
-3644.63
-2220.53
-3618.73
-2019.26
-3764.34
-1811.62
-3913.6
-1584.77
-4102.35
-1345.79
-3972.78
-1130.44
-3350.57
-993.039
-2300.64
-916.397
-1167.71
-789.664
-528.431
-708.193
474.474
-738.561
1128.07
-821.211
1208.9
-873.92
1092.54
-876.224
1090.84
-856.732
1105.63
-809.113
1056.2
-699.331
1031.93
-551.329
1174.2
-351.382
878.838
84.1241
-2725.21
347.563
-5434.54
416.219
-5479.15
543.885
-4162.77
719.73
-3275.57
813.233
-2858.97
875.746
-2475.87
929.502
-2121.45
960.474
-1815.04
964.797
-1526.04
949.856
-1155.47
935.124
-745.022
922.823
-474.885
932.983
-290.202
873.546
184.692
872.443
892.663
942.071
255.681
1146.36
-769.75
1345.89
-1511.25
1545.84
-1601.74
1885.57
-2457.47
2389.78
-4694.54
2966.55
-6701.23
3535.49
-7676.93
4058.48
-7818.86
4527.63
-7516.2
4949.58
-7048.2
5335.92
-6573.96
5698.46
-6174.89
6046.58
-5885.01
6385.98
-5706.85
6718.72
-5621.02
7044.39
-5595.75
7361.91
-5597.32
7670.69
-5597.94
7971.12
-5578.82
8264.13
-5528.82
8550.45
-5441.24
8829.99
-5311.37
9101.57
-5135.95
9363.22
-4913.84
9612.58
-4646.35
9847.26
-4336.66
10065
-3988.96
10263.8
-3607.78
10441.6
-3197.7
10596.4
-2763.85
10726.3
-2312.07
10829.6
-1847.57
10906.1
-1395.16
10940.2
-846.558
10922.8
-212.674
10857.3
393.392
10743.9
948.331
10585.3
1443.87
10387.7
1865.05
10158.3
2198.83
9904.31
2438.28
9635.64
2576.69
9366.95
2600.13
9114.08
2493.36
8883.89
2260.65
8666.9
1938.26
8438.49
1574.15
8164.8
1237.45
7839.65
1088.62
7586
1034.4
7672.21
-115.266
8241.13
-3354.6
8943.96
-7096.28
9531.19
-9539.26
10045.7
-10825.4
10559.3
-11567.6
11104.6
-12124.1
11684.2
-12568
12304.1
-12978.5
12949.4
-13201.5
13661.2
-13519.3
14368.4
-13393.9
-13646.8
-2358.41
-3839.5
-2162.01
-3815.13
-1965.46
-3960.89
-1765.02
-4114.05
-1548
-4319.37
-1319.81
-4200.98
-1110.48
-3559.91
-975.044
-2436.08
-909.274
-1233.49
-796.769
-640.953
-700.838
378.532
-718.197
1145.42
-792.251
1282.95
-849.719
1150
-851.797
1092.91
-818.963
1072.79
-751.634
988.863
-618.242
898.532
-455.821
1011.77
-24.117
447.127
494.675
-3244.03
576.808
-5516.68
536.968
-5439.31
618.079
-4243.89
765.231
-3422.73
847.946
-2941.7
909.899
-2537.83
963.272
-2174.83
996.035
-1847.81
1004.11
-1534.12
993.549
-1144.93
982.003
-733.486
972.231
-465.122
984.77
-302.75
922.9
246.554
935.027
880.526
1025.06
165.641
1244.87
-989.565
1450.81
-1717.19
1661.64
-1812.58
2025.97
-2821.81
2558.21
-5226.77
3155.73
-7298.75
3736.05
-8257.26
4263.29
-8346.1
4732.06
-7984.97
5150.72
-7466.87
5531.77
-6955.01
5887.17
-6530.3
6226.03
-6223.86
6553.75
-6034.58
6872.44
-5939.71
7182.29
-5905.61
7483.2
-5898.23
7775.76
-5890.5
8061.36
-5864.42
8341.66
-5809.12
8617.77
-5717.36
8889.62
-5583.22
9155.77
-5402.1
9413.83
-5171.9
9661
-4893.52
9894.54
-4570.2
10112
-4206.38
10311
-3806.82
10489.6
-3376.26
10645.6
-2919.91
10777.2
-2443.63
10882.4
-1952.75
10961.1
-1473.93
10997.7
-883.179
10981.9
-196.877
10916.6
458.77
10800.9
1063.98
10637.8
1607.04
10433.1
2069.69
10193.6
2438.35
9926.72
2705.16
9644.32
2859.09
9363.49
2880.96
9098.84
2758.01
8850.85
2508.64
8602.34
2186.77
8327.93
1848.56
8008.92
1556.46
7672.27
1425.26
7451.36
1255.31
7583.39
-247.298
8122.18
-3893.39
8727.4
-7701.5
9242.18
-10054.1
9719.58
-11302.8
10212.1
-12060.2
10737.2
-12649.2
11291.9
-13122.7
11882.9
-13569.5
12502.4
-13821
13203.4
-14220.3
13909.5
-14100
-14561.1
-2292.87
-4035.34
-2100.47
-4007.54
-1909.14
-4152.22
-1715.32
-4307.87
-1507.2
-4527.49
-1290.18
-4418.01
-1089.77
-3760.31
-959.025
-2566.84
-905.75
-1286.78
-807.272
-739.457
-696.801
268.043
-700.175
1148.78
-763.991
1346.75
-823.259
1209.26
-826.975
1096.62
-782.722
1028.53
-697.081
903.211
-547.07
748.509
-385.25
849.941
308.724
-246.855
861.557
-3796.89
801.478
-5456.61
704.675
-5342.51
711.091
-4250.31
806.588
-3518.24
881.281
-3016.4
943.021
-2599.59
994.6
-2226.42
1028.55
-1881.77
1040.51
-1546.1
1035.04
-1139.47
1027.99
-726.455
1022.71
-459.85
1036.59
-316.64
975.816
307.311
1000.78
855.544
1113.6
52.8152
1345.15
-1221.13
1555.17
-1927.21
1776.17
-2033.59
2165.96
-3211.61
2727.73
-5788.54
3346.85
-7917.87
3938.48
-8848.9
4469.33
-8876.95
4936.81
-8452.45
5351.08
-7881.14
5725.45
-7329.38
6071.96
-6876.81
6399.44
-6551.35