/*--------------------------------*- C++ -*----------------------------------*\
| =========                 |                                                 |
| \\      /  F ield         | OpenFOAM: The Open Source CFD Toolbox           |
|  \\    /   O peration     | Version:  4.1                                   |
|   \\  /    A nd           | Web:      www.OpenFOAM.org                      |
|    \\/     M anipulation  |                                                 |
\*---------------------------------------------------------------------------*/
FoamFile
{
    version     2.0;
    format      ascii;
    class       volVectorField;
    location    "1200";
    object      U;
}
// * * * * * * * * * * * * * * * * * * * * * * * * * * * * * * * * * * * * * //

dimensions      [0 1 -1 0 0 0 0];

internalField   nonuniform List<vector> 
26785
(
(-8.41976e-14 -0.129771 -17.3455)
(-9.08649e-14 -0.0938123 -14.9095)
(-1.07487e-13 -0.0841813 -12.1777)
(-1.45326e-13 -0.05905 -9.87864)
(-1.86402e-13 -0.0405874 -8.00904)
(-2.40709e-13 -0.0311222 -6.912)
(-1.9047e-13 -0.0163643 -6.52886)
(-1.93324e-13 0.011756 -6.52916)
(-1.44929e-13 0.02226 -6.81465)
(-3.09869e-13 0.0196291 -7.15896)
(-2.05242e-13 0.0211814 -7.46981)
(-2.16018e-13 0.0272923 -7.83405)
(-2.10148e-13 0.0316439 -8.2834)
(-2.03648e-13 0.033234 -8.78125)
(-1.93089e-13 0.0319878 -9.27296)
(-1.79985e-13 0.0293973 -9.71125)
(-1.66471e-13 0.0282988 -10.1118)
(-1.56219e-13 0.0293528 -10.5242)
(-1.46367e-13 0.0293416 -10.967)
(-1.2654e-13 0.0221191 -11.4168)
(-1.11154e-13 -0.00301278 -11.7098)
(-1.05625e-13 -0.0842526 -11.132)
(-9.82082e-14 -0.139464 -9.5374)
(-9.63346e-14 -0.0945479 -8.03471)
(-1.00953e-13 -0.0531585 -7.30847)
(-6.59491e-14 -0.0586519 -6.84286)
(-6.12372e-14 -0.0558385 -6.34986)
(-5.83754e-14 -0.0653516 -5.84515)
(-7.57662e-14 -0.0892744 -5.05109)
(-6.43639e-14 -0.103482 -3.91982)
(-2.6657e-14 -0.0892769 -2.75622)
(2.69556e-14 -0.0623353 -1.93389)
(-3.25177e-14 -0.0457103 -1.45892)
(5.74782e-14 -0.0368316 -1.09281)
(-9.38669e-14 -0.019055 -0.844176)
(2.29813e-14 0.0019634 -0.842989)
(-3.54091e-15 -0.0196689 -0.867858)
(-1.47989e-14 -0.0215883 -0.622292)
(1.48956e-15 -0.00837745 -0.381314)
(1.53186e-14 -0.0844525 0.0544461)
(3.1988e-14 -0.097927 1.02527)
(3.39214e-14 -0.0357475 2.44857)
(8.03161e-14 0.0452726 3.01778)
(8.37356e-14 0.0033912 3.55588)
(1.44541e-13 -0.0701692 4.49869)
(1.24746e-13 -0.110459 5.68676)
(1.11285e-13 -0.124957 6.94919)
(5.16069e-14 -0.126184 8.16974)
(7.20473e-15 -0.122075 9.29541)
(-1.97311e-14 -0.115722 10.3129)
(-2.03383e-14 -0.10829 11.2287)
(-3.9599e-14 -0.100707 12.0577)
(-2.6455e-14 -0.0938943 12.8173)
(-1.73251e-14 -0.0885048 13.5239)
(-1.27384e-14 -0.08476 14.1912)
(-1.13615e-14 -0.0824655 14.8289)
(-2.43377e-14 -0.0811285 15.4432)
(-1.5017e-14 -0.0801171 16.0364)
(-2.2082e-14 -0.0788121 16.608)
(-3.8053e-14 -0.0767138 17.1549)
(-3.91157e-14 -0.073495 17.6721)
(-5.1922e-14 -0.0690039 18.1539)
(-5.38853e-14 -0.0632365 18.5939)
(-7.00457e-14 -0.0562946 18.9861)
(-6.21936e-14 -0.0483481 19.3251)
(-5.98707e-14 -0.0396077 19.6064)
(-5.79851e-14 -0.030303 19.8265)
(-5.71376e-14 -0.020699 19.9834)
(-5.56078e-14 -0.0110516 20.0767)
(-5.29804e-14 -0.00166928 20.1075)
(-6.56973e-14 0.00704387 20.0791)
(-4.13427e-14 0.0151631 19.9969)
(-4.11805e-14 0.0230865 19.8633)
(-3.81025e-14 0.0307376 19.6807)
(-3.75773e-14 0.0373578 19.4531)
(-3.27302e-14 0.0425426 19.1898)
(-4.16901e-14 0.0463553 18.9013)
(-3.44191e-14 0.0489631 18.5969)
(-3.09809e-14 0.0503658 18.2844)
(-2.97352e-14 0.0504762 17.9714)
(-2.80793e-14 0.0491169 17.6662)
(-3.94688e-14 0.0460793 17.3776)
(-3.34261e-14 0.0410406 17.1157)
(-3.48785e-14 0.0340424 16.8912)
(-4.65542e-14 0.0259307 16.7117)
(-4.00806e-14 0.0149574 16.5857)
(-4.48324e-14 0.000976162 16.5281)
(-4.79583e-14 -0.0141365 16.5497)
(-6.11915e-14 -0.0313486 16.6545)
(-5.98513e-14 -0.0515042 16.8546)
(-7.23021e-14 -0.0740115 17.1631)
(-7.92951e-14 -0.0982253 17.5885)
(-8.4234e-14 -0.123406 18.1347)
(-8.99213e-14 -0.148798 18.8091)
(-9.57269e-14 -0.173476 19.5901)
(-1.08465e-13 -0.197878 20.4962)
(-1.14375e-13 -0.217904 21.4171)
(-1.20641e-13 -0.24011 22.5798)
(-1.24375e-13 -0.236548 23.3567)
(-1.21204e-13 -0.27214 25.2133)
(-6.28187e-16 -0.446766 -20.9526)
(-1.74056e-14 -0.395929 -18.0315)
(-2.8358e-15 -0.390963 -15.1549)
(-3.27968e-14 -0.347275 -12.2076)
(-6.16705e-14 -0.253473 -9.23915)
(-1.77756e-13 -0.110424 -6.86398)
(-9.60897e-14 -0.0193686 -6.09437)
(-2.12677e-13 0.0269302 -6.33192)
(-2.26538e-13 0.0585232 -6.61585)
(-1.86106e-13 0.0580407 -6.90143)
(-1.79729e-13 0.0612228 -7.21152)
(-1.66797e-13 0.0775186 -7.56353)
(-1.5325e-13 0.0919719 -7.98502)
(-1.33855e-13 0.0986213 -8.46355)
(-1.31907e-13 0.0961537 -8.94484)
(-1.05994e-13 0.0893661 -9.37701)
(-6.8374e-14 0.0875314 -9.77597)
(-9.36301e-14 0.0931713 -10.1913)
(-9.18876e-14 0.0969474 -10.6386)
(-6.87289e-14 0.0798732 -11.0959)
(-1.11688e-13 0.00246908 -11.404)
(-3.59282e-14 -0.244093 -10.6844)
(-9.47764e-14 -0.394388 -9.05163)
(-5.42569e-14 -0.248412 -7.57131)
(-4.77917e-14 -0.115736 -6.80744)
(-6.85526e-14 -0.125609 -6.30243)
(-2.36102e-14 -0.117055 -5.78584)
(-2.60649e-14 -0.158251 -5.24773)
(-2.09396e-14 -0.246793 -4.43189)
(-3.39624e-14 -0.30107 -3.29183)
(2.21921e-14 -0.256455 -2.06538)
(-5.38967e-14 -0.158561 -1.14992)
(-5.87705e-14 -0.100344 -0.620736)
(-3.86652e-14 -0.076991 -0.198407)
(-1.17585e-13 -0.0154668 0.0675727)
(-2.62811e-15 0.0849176 0.0385927)
(8.08512e-15 0.019438 0.0673127)
(3.86356e-14 -0.00800967 0.427822)
(7.22032e-14 -0.0190098 0.982881)
(-3.89777e-14 -0.12928 1.68941)
(-1.10663e-13 -0.214925 1.57274)
(-1.33032e-14 -0.20706 1.53287)
(-2.10326e-14 -0.163945 2.04667)
(1.95577e-14 -0.246928 3.11507)
(-3.44423e-14 -0.356946 4.42628)
(-4.59886e-14 -0.417982 5.82434)
(-8.46698e-14 -0.429093 7.18407)
(-6.59295e-14 -0.411804 8.4444)
(-1.09436e-13 -0.383176 9.58243)
(-4.71233e-14 -0.352374 10.5996)
(-9.25101e-14 -0.324244 11.5107)
(-5.63912e-14 -0.301084 12.3355)
(-5.71515e-14 -0.283401 13.0932)
(-9.37376e-14 -0.270561 13.7997)
(-6.38154e-14 -0.261364 14.4672)
(-7.88799e-14 -0.25445 15.1046)
(-8.71117e-14 -0.248527 15.7179)
(-7.76734e-14 -0.242459 16.3104)
(-5.34829e-14 -0.2353 16.8826)
(-7.06445e-14 -0.226288 17.4325)
(-6.28797e-14 -0.21485 17.9555)
(-6.58085e-14 -0.200611 18.4452)
(-5.11946e-14 -0.183391 18.8944)
(-2.58627e-14 -0.163197 19.2956)
(-3.86647e-14 -0.14021 19.6419)
(-3.71291e-14 -0.114765 19.9278)
(-4.00441e-14 -0.0873233 20.149)
(-4.0367e-14 -0.0585334 20.3028)
(-6.99503e-14 -0.02909 20.3886)
(-4.1676e-14 7.82281e-05 20.4071)
(-4.56323e-14 0.0276061 20.3619)
(-5.5034e-14 0.0539929 20.2589)
(-4.87827e-14 0.080299 20.0967)
(-5.54807e-14 0.105525 19.8801)
(-5.32934e-14 0.127146 19.614)
(-8.28798e-14 0.143801 19.3102)
(-6.15982e-14 0.155894 18.9799)
(-6.57783e-14 0.163862 18.6332)
(-7.55334e-14 0.167667 18.279)
(-6.42485e-14 0.167138 17.926)
(-6.16491e-14 0.161868 17.5834)
(-7.27786e-14 0.151363 17.2606)
(-6.80878e-14 0.134885 16.9682)
(-6.68681e-14 0.112227 16.7163)
(-8.18763e-14 0.0856346 16.5134)
(-8.32764e-14 0.0506638 16.3699)
(-8.1274e-14 0.00723461 16.2963)
(-8.22707e-14 -0.0394778 16.3052)
(-8.24752e-14 -0.0923654 16.3982)
(-1.00863e-13 -0.153491 16.5859)
(-1.05433e-13 -0.22087 16.8811)
(-1.07542e-13 -0.293347 17.2972)
(-1.06611e-13 -0.369951 17.8398)
(-1.19508e-13 -0.447072 18.4974)
(-1.15687e-13 -0.516589 19.2248)
(-1.13057e-13 -0.573727 20.0534)
(-1.04828e-13 -0.61607 20.9167)
(-9.16562e-14 -0.669095 22.1171)
(-7.74147e-14 -0.68299 22.9656)
(-5.45742e-14 -0.812022 25.1462)
(7.03404e-15 -0.666634 -22.1717)
(2.2384e-14 -0.652888 -19.6028)
(-1.12168e-14 -0.663892 -17.0472)
(6.53867e-15 -0.667048 -14.476)
(-2.33669e-15 -0.603837 -11.5742)
(-5.71872e-14 -0.378258 -8.38081)
(-2.24348e-14 -0.0696795 -5.92847)
(-1.6964e-13 0.0731915 -5.76026)
(-1.66735e-13 0.098635 -6.36698)
(-1.61279e-13 0.0907618 -6.63446)
(-1.57571e-13 0.101842 -6.86919)
(-1.47011e-13 0.127615 -7.21042)
(-1.3274e-13 0.15025 -7.60681)
(-1.14718e-13 0.163364 -8.05885)
(-8.65796e-14 0.16079 -8.53369)
(-7.83922e-14 0.15019 -8.97281)
(-2.28904e-14 0.147412 -9.38723)
(-9.72768e-14 0.156281 -9.82735)
(-2.62014e-14 0.161648 -10.3085)
(-5.23348e-14 0.131086 -10.81)
(-5.92437e-14 -0.0148523 -11.1623)
(-3.81629e-14 -0.437123 -10.3191)
(-6.39577e-14 -0.665797 -8.67211)
(-8.39236e-14 -0.422529 -7.12879)
(-4.35466e-14 -0.220273 -6.30645)
(-4.32678e-14 -0.243728 -5.7929)
(-2.8333e-14 -0.234038 -5.24637)
(-1.31553e-14 -0.300146 -4.65433)
(-2.04725e-14 -0.433424 -3.80762)
(-1.57945e-14 -0.515763 -2.70674)
(-5.07638e-15 -0.444536 -1.50637)
(-2.46571e-14 -0.282085 -0.531069)
(-1.10456e-13 -0.182576 0.0470516)
(7.49729e-15 -0.151309 0.470247)
(-2.82988e-14 -0.0903939 0.859042)
(-6.70678e-14 0.0229435 1.02358)
(-1.27129e-13 -0.143991 1.13927)
(-4.6638e-14 -0.257211 1.22881)
(1.09133e-13 -0.230785 1.29748)
(2.82583e-14 -0.187914 1.45838)
(-6.63696e-14 -0.183666 1.43406)
(-6.68732e-14 -0.261167 1.45997)
(-8.68808e-14 -0.348372 2.02083)
(-1.38791e-13 -0.514252 3.2532)
(-1.56302e-13 -0.66538 4.72613)
(-1.47844e-13 -0.735142 6.18883)
(-1.19497e-13 -0.732992 7.55882)
(-8.36402e-14 -0.694045 8.80844)
(-5.21806e-14 -0.64229 9.92953)
(-3.75292e-14 -0.589667 10.929)
(-3.42011e-14 -0.542092 11.822)
(-4.19945e-14 -0.502262 12.6269)
(-5.35407e-14 -0.470865 13.3619)
(-6.02169e-14 -0.44735 14.0448)
(-6.11316e-14 -0.430446 14.6911)
(-6.95492e-14 -0.418485 15.3145)
(-5.59419e-14 -0.40957 15.9245)
(-2.58663e-14 -0.401654 16.5261)
(-3.78357e-14 -0.392635 17.1189)
(-3.05103e-15 -0.380541 17.6971)
(-1.26537e-14 -0.363762 18.2515)
(-8.26226e-16 -0.341243 18.7709)
(8.36502e-15 -0.312546 19.2443)
(1.6673e-14 -0.277799 19.662)
(1.30592e-14 -0.237568 20.0162)
(2.00304e-14 -0.192731 20.3017)
(2.10939e-14 -0.144348 20.515)
(9.85922e-15 -0.0937364 20.6547)
(1.15146e-14 -0.0421782 20.7215)
(1.08252e-14 0.00865121 20.7171)
(1.06121e-14 0.0563885 20.6471)
(8.44192e-15 0.102744 20.5168)
(1.33604e-14 0.149229 20.323)
(1.6847e-14 0.192919 20.072)
(7.16799e-15 0.229763 19.771)
(1.88373e-15 0.257809 19.4324)
(-8.30213e-19 0.278154 19.0675)
(-2.62845e-15 0.291352 18.6864)
(-7.90166e-15 0.297217 18.2983)
(-1.42644e-14 0.295458 17.9125)
(-2.08481e-14 0.285441 17.5389)
(-2.38706e-14 0.266392 17.1876)
(-4.06177e-14 0.237416 16.8696)
(-3.99222e-14 0.197749 16.5954)
(-4.58335e-14 0.150756 16.372)
(-4.70913e-14 0.0907292 16.2137)
(-4.83908e-14 0.0179638 16.1227)
(-5.02123e-14 -0.0598859 16.115)
(-5.27052e-14 -0.147358 16.1868)
(-6.44902e-14 -0.248412 16.3493)
(-5.78669e-14 -0.362143 16.6306)
(-6.29893e-14 -0.487386 17.046)
(-7.13389e-14 -0.613039 17.5516)
(-7.42393e-14 -0.71968 18.105)
(-6.81025e-14 -0.805917 18.7488)
(-5.6255e-14 -0.904574 19.6741)
(-4.76057e-14 -1.03813 20.8832)
(-3.26496e-14 -1.19874 22.5846)
(-2.26192e-14 -1.32505 23.9205)
(-1.35249e-14 -1.50015 26.5866)
(7.38678e-15 -0.903907 -22.3495)
(1.71819e-14 -0.877351 -19.8804)
(-1.50532e-15 -0.88627 -17.444)
(1.38013e-14 -0.908912 -15.2115)
(7.26791e-15 -0.904964 -12.8594)
(2.71588e-14 -0.72994 -10.1114)
(-6.25771e-14 -0.310196 -7.00079)
(-1.41283e-13 0.089911 -5.27637)
(-9.9809e-14 0.167278 -5.86341)
(-1.05534e-13 0.123149 -6.39832)
(-9.79476e-14 0.133056 -6.56332)
(-9.50341e-14 0.175889 -6.84262)
(-9.43518e-14 0.206508 -7.224)
(-4.8965e-14 0.226869 -7.65275)
(-7.15454e-14 0.227299 -8.11918)
(-4.55828e-14 0.215226 -8.56981)
(-3.70592e-14 0.21354 -9.00417)
(-4.12839e-14 0.22792 -9.47192)
(-6.29246e-14 0.237779 -9.98983)
(-3.08282e-14 0.196069 -10.54)
(-3.43497e-14 -0.0266046 -10.9386)
(-1.14405e-14 -0.630874 -10.0071)
(-5.32076e-14 -0.937561 -8.34035)
(-6.0827e-14 -0.587589 -6.65084)
(-5.17801e-14 -0.295516 -5.67992)
(-3.71104e-14 -0.322818 -5.12178)
(-3.16827e-14 -0.3157 -4.49616)
(-4.52512e-14 -0.415613 -3.82642)
(-6.9306e-14 -0.595139 -2.95911)
(-6.26216e-14 -0.696755 -1.95856)
(5.27425e-15 -0.587792 -0.976042)
(-4.34485e-14 -0.351646 -0.312236)
(-1.61157e-14 -0.23619 -0.0833142)
(2.46513e-14 -0.244404 0.34407)
(-7.35888e-14 -0.203714 0.97561)
(8.25091e-14 -0.110663 1.38378)
(-8.61857e-14 -0.244303 1.64557)
(-9.76386e-14 -0.232651 1.36089)
(1.03471e-15 -0.240641 1.25756)
(-2.91152e-14 -0.251272 1.45971)
(-6.01769e-14 -0.226475 1.51062)
(-5.58231e-14 -0.350499 1.60304)
(-1.37638e-13 -0.561268 2.33946)
(-1.91221e-13 -0.826942 3.68555)
(-1.38462e-13 -1.01315 5.19626)
(-1.00179e-13 -1.07444 6.65523)
(-4.05671e-14 -1.04769 8.00471)
(-4.7506e-15 -0.979742 9.22608)
(1.24103e-15 -0.898934 10.3146)
(-2.10286e-14 -0.819752 11.2792)
(-1.44389e-14 -0.749681 12.1373)
(-4.11079e-14 -0.692187 12.91)
(-7.29511e-15 -0.64816 13.6199)
(5.16516e-15 -0.616837 14.2887)
(-8.35966e-15 -0.596362 14.9356)
(2.06287e-15 -0.584055 15.5752)
(-7.90811e-16 -0.576532 16.2152)
(2.77919e-14 -0.569928 16.8554)
(2.3042e-14 -0.560346 17.4885)
(4.07375e-14 -0.544449 18.102)
(3.37619e-14 -0.519945 18.6821)
(5.16646e-14 -0.485766 19.2154)
(3.43838e-14 -0.441932 19.691)
(3.9796e-14 -0.389249 20.1009)
(4.13549e-14 -0.329 20.4396)
(5.71317e-14 -0.262714 20.704)
(3.23538e-14 -0.192009 20.8927)
(3.17459e-14 -0.118768 21.0059)
(3.68692e-14 -0.0446504 21.0453)
(3.36861e-14 0.0279282 21.0131)
(4.34913e-14 0.0959771 20.9167)
(3.23985e-14 0.162949 20.7579)
(3.43279e-14 0.230361 20.5342)
(2.00776e-14 0.292537 20.2506)
(1.88651e-14 0.344073 19.9185)
(2.85919e-14 0.383409 19.5492)
(2.01032e-14 0.412056 19.1539)
(3.0854e-14 0.430394 18.7429)
(1.58227e-14 0.438091 18.3256)
(1.15265e-14 0.434693 17.9119)
(9.16122e-15 0.419333 17.5122)
(7.28588e-15 0.390931 17.1367)
(5.89495e-15 0.348571 16.7973)
(-9.2227e-15 0.291053 16.5044)
(-5.69471e-15 0.222476 16.2629)
(-1.41621e-14 0.137053 16.092)
(-9.66847e-15 0.0361182 15.9849)
(-2.46935e-14 -0.0707005 15.9581)
(-2.63088e-14 -0.190908 16.0009)
(-3.77752e-14 -0.335744 16.1481)
(-2.39273e-14 -0.503283 16.4355)
(-5.23574e-14 -0.669023 16.7904)
(-5.00822e-14 -0.801501 17.1349)
(-5.10521e-14 -0.932436 17.6558)
(-4.10028e-14 -1.1503 18.697)
(-2.62526e-14 -1.46713 20.3925)
(-1.49444e-14 -1.7848 22.3892)
(-5.99529e-15 -2.01741 24.5746)
(-5.8304e-15 -2.15384 26.1595)
(-6.15323e-15 -2.2102 28.6211)
(-9.67334e-15 -1.15517 -22.5002)
(9.66994e-16 -1.10462 -19.95)
(-8.22771e-15 -1.10206 -17.4481)
(-1.00021e-14 -1.11826 -15.2459)
(-1.12637e-14 -1.13693 -13.1463)
(-1.51149e-14 -1.02333 -10.9503)
(4.22746e-14 -0.628927 -8.25959)
(-1.16433e-14 -0.0236631 -5.56835)
(-2.34065e-14 0.233438 -5.25801)
(-3.48681e-14 0.180968 -6.0485)
(-4.44115e-14 0.15885 -6.32847)
(-4.02723e-14 0.217164 -6.51502)
(-7.45616e-14 0.261404 -6.85637)
(-4.10217e-14 0.289222 -7.26743)
(-6.47903e-14 0.294699 -7.71967)
(-5.4531e-14 0.283312 -8.17362)
(-2.57542e-14 0.283715 -8.62033)
(-2.30719e-14 0.304272 -9.10656)
(-2.05219e-14 0.319227 -9.65456)
(-1.71069e-14 0.265288 -10.2525)
(-1.35177e-14 -0.0427692 -10.7022)
(-1.23891e-14 -0.837318 -9.71369)
(-2.89234e-14 -1.23408 -8.03696)
(-7.08735e-14 -0.792019 -6.18908)
(-9.79048e-14 -0.410509 -5.0025)
(-8.90364e-14 -0.440109 -4.33704)
(-1.17358e-13 -0.437661 -3.57255)
(-5.82563e-14 -0.556242 -2.81243)
(-1.00896e-13 -0.750907 -1.95448)
(-1.07129e-13 -0.835328 -1.07367)
(-7.17676e-14 -0.671859 -0.373236)
(-7.52177e-14 -0.409738 0.0984823)
(-5.73655e-14 -0.339563 0.707726)
(-5.44419e-14 -0.363193 1.35802)
(-3.0672e-14 -0.231789 1.77693)
(-1.17178e-15 -0.0487461 1.74754)
(5.84818e-15 -0.243801 1.64442)
(-4.36249e-14 -0.239154 1.4608)
(-6.91327e-14 -0.28972 1.38045)
(-1.13931e-14 -0.302319 1.59778)
(-7.31227e-14 -0.264922 1.67004)
(-1.26869e-13 -0.466502 1.8652)
(-2.02708e-13 -0.814258 2.77437)
(-1.15101e-13 -1.15769 4.19399)
(-7.81974e-14 -1.35745 5.71045)
(-4.32748e-14 -1.40272 7.14914)
(-2.1853e-14 -1.35029 8.46658)
(-9.37926e-15 -1.25373 9.65001)
(1.99478e-15 -1.14481 10.6999)
(-6.8752e-15 -1.04052 11.6292)
(1.67313e-14 -0.949906 12.4589)
(1.39173e-14 -0.877212 13.2134)
(3.74886e-14 -0.82357 13.9182)
(4.92043e-14 -0.787951 14.597)
(5.52407e-14 -0.767534 15.2688)
(6.62245e-14 -0.757863 15.9445)
(5.15438e-14 -0.753227 16.6253)
(4.61046e-14 -0.747465 17.3031)
(1.47987e-14 -0.735049 17.9641)
(2.45655e-14 -0.711957 18.5926)
(2.85601e-15 -0.676053 19.1743)
(1.05321e-14 -0.626915 19.6978)
(-4.88658e-15 -0.565372 20.1553)
(-5.69383e-15 -0.49298 20.5415)
(-4.39086e-15 -0.411637 20.8535)
(-2.13315e-14 -0.323354 21.0899)
(6.34389e-15 -0.230141 21.2505)
(-9.97106e-15 -0.134314 21.3363)
(-3.3936e-15 -0.0377525 21.3491)
(-2.53227e-14 0.0562468 21.2913)
(-1.25588e-14 0.144678 21.1718)
(-2.13627e-14 0.232974 20.9868)
(-1.22023e-14 0.321914 20.7355)
(-2.62498e-14 0.402489 20.4229)
(-1.54551e-14 0.468231 20.0627)
(-1.97029e-14 0.51886 19.6654)
(-3.12052e-14 0.555791 19.2421)
(-1.22036e-14 0.579043 18.8035)
(-1.62578e-14 0.588183 18.3594)
(1.37959e-16 0.582582 17.9199)
(-3.2216e-15 0.561171 17.496)
(-1.74995e-14 0.522542 17.0985)
(2.72545e-15 0.46585 16.7391)
(-1.28983e-14 0.389737 16.4292)
(-2.24641e-14 0.298396 16.1706)
(-2.76564e-14 0.186683 15.9877)
(-4.16763e-14 0.059291 15.8641)
(-4.85459e-14 -0.07257 15.8085)
(-5.27559e-14 -0.229544 15.8321)
(-5.01392e-14 -0.427648 15.9946)
(-4.69381e-14 -0.624517 16.2147)
(-4.31325e-14 -0.774024 16.3536)
(-4.0039e-14 -0.960841 16.7158)
(-2.98227e-14 -1.35587 17.9281)
(-1.554e-14 -1.9108 20.0025)
(-6.20527e-15 -2.40599 22.4026)
(-8.4707e-15 -2.7035 24.5707)
(-8.83938e-15 -2.82034 26.5374)
(-1.09043e-14 -2.83393 27.8367)
(-1.1998e-14 -2.76298 29.7756)
(-7.15853e-15 -1.40258 -22.6579)
(8.36609e-16 -1.34305 -20.046)
(-1.46545e-14 -1.3264 -17.4551)
(-2.06345e-14 -1.3257 -15.1641)
(-2.54624e-14 -1.34027 -13.0713)
(-1.95525e-14 -1.25545 -11.1349)
(-6.23187e-16 -0.923875 -8.99609)
(4.46852e-14 -0.257357 -6.34471)
(7.03334e-15 0.246572 -4.9162)
(-3.96077e-14 0.256268 -5.56866)
(-6.22362e-15 0.194841 -6.09227)
(-1.01784e-14 0.248589 -6.26266)
(-8.03393e-14 0.311596 -6.52329)
(-7.35469e-14 0.35009 -6.90554)
(-6.2813e-14 0.361562 -7.33894)
(-4.5623e-14 0.352792 -7.78141)
(-3.15039e-14 0.356758 -8.22496)
(-2.30117e-15 0.385053 -8.71485)
(1.6485e-14 0.407442 -9.28126)
(4.69832e-14 0.342928 -9.91849)
(4.91824e-14 -0.0532988 -10.408)
(1.31126e-14 -1.04026 -9.35295)
(1.29744e-14 -1.53928 -7.66447)
(-4.91102e-14 -1.01424 -5.70771)
(-9.57163e-14 -0.53588 -4.35337)
(-8.042e-14 -0.557242 -3.55887)
(-8.08987e-14 -0.553622 -2.61798)
(-6.37091e-14 -0.68126 -1.78781)
(-6.42113e-14 -0.89422 -0.946099)
(-1.41102e-13 -0.97515 -0.0490805)
(-7.8723e-14 -0.775244 0.622101)
(-1.34357e-13 -0.521076 1.20164)
(-4.44178e-14 -0.452678 1.86037)
(-7.23553e-14 -0.452242 2.13752)
(-1.05082e-13 -0.284418 2.27996)
(2.13102e-14 -0.0493261 2.14572)
(-3.87399e-14 -0.218045 1.76266)
(-7.76378e-14 -0.22088 1.54394)
(-7.13737e-14 -0.319579 1.53325)
(-1.47573e-14 -0.34758 1.77258)
(-1.17557e-13 -0.310267 1.86797)
(-1.37428e-13 -0.606149 2.20379)
(-8.79856e-14 -1.08832 3.25474)
(-8.83646e-14 -1.4954 4.71691)
(-4.19585e-14 -1.69984 6.22827)
(-1.97941e-14 -1.72504 7.64453)
(-7.54418e-15 -1.64449 8.93065)
(6.7716e-15 -1.51805 10.0795)
(1.96485e-14 -1.38104 11.0971)
(3.86275e-14 -1.25284 12.0009)
(5.67243e-14 -1.14391 12.8148)
(7.26619e-14 -1.05914 13.5662)
(8.30816e-14 -0.999667 14.2821)
(8.30849e-14 -0.963558 14.9857)
(7.17591e-14 -0.946067 15.692)
(5.29548e-14 -0.940067 16.4049)
(3.02056e-14 -0.937179 17.1175)
(1.27915e-14 -0.929374 17.8157)
(-1.14161e-14 -0.910391 18.4834)
(-1.63307e-14 -0.87644 19.1055)
(-2.78368e-14 -0.826136 19.6708)
(-1.52454e-14 -0.759929 20.1713)
(-3.58467e-14 -0.679405 20.6019)
(-3.60683e-14 -0.586699 20.9598)
(-5.15495e-14 -0.484123 21.2436)
(-5.17099e-14 -0.373999 21.4528)
(-4.15914e-14 -0.258598 21.5876)
(-5.48742e-14 -0.140563 21.6491)
(-4.23234e-14 -0.02191 21.6388)
(-5.19989e-14 0.0929941 21.5593)
(-1.78856e-14 0.201976 21.4205)
(-3.21054e-14 0.312644 21.2113)
(-2.88665e-14 0.423379 20.9346)
(-2.80555e-14 0.522265 20.5962)
(9.49209e-16 0.602237 20.2096)
(-2.36573e-14 0.664285 19.7855)
(-1.77144e-14 0.709506 19.3355)
(-7.29714e-15 0.73755 18.87)
(-1.39934e-14 0.74786 18.3996)
(-1.04528e-14 0.73962 17.9351)
(-1.0662e-14 0.711577 17.4876)
(6.19005e-15 0.662061 17.0686)
(1.10228e-14 0.590343 16.6895)
(2.89179e-14 0.495252 16.3632)
(8.83164e-15 0.380208 16.0882)
(-9.28521e-15 0.242049 15.8904)
(-1.30046e-15 0.0931077 15.7447)
(-6.62845e-15 -0.0652572 15.6656)
(-8.60875e-15 -0.271434 15.7073)
(-1.25639e-14 -0.494946 15.822)
(-1.33474e-14 -0.656672 15.7887)
(-2.50675e-15 -0.876474 15.9116)
(3.13539e-15 -1.43346 17.0935)
(2.69664e-16 -2.24081 19.3636)
(3.47686e-15 -2.92407 21.8576)
(-1.37782e-15 -3.31003 24.0316)
(-6.3814e-15 -3.4371 25.7313)
(-8.38569e-15 -3.42696 27.2563)
(-7.57085e-15 -3.35203 28.2634)
(-9.59509e-15 -3.22814 29.9444)
(-1.04186e-14 -1.66974 -22.7989)
(-1.42027e-14 -1.58533 -20.1472)
(-6.76066e-15 -1.56076 -17.5022)
(-1.47661e-14 -1.54243 -15.1145)
(-3.01715e-14 -1.53937 -12.9316)
(-4.06784e-14 -1.45107 -11.0343)
(-2.6679e-14 -1.16582 -9.25135)
(-2.75341e-14 -0.522874 -7.03572)
(-4.34076e-14 0.181034 -4.9909)
(-9.07568e-15 0.325787 -5.08434)
(2.02619e-14 0.252305 -5.78523)
(-7.82871e-14 0.277689 -6.06597)
(-8.75677e-14 0.35237 -6.24974)
(-7.72241e-14 0.407253 -6.57188)
(-6.29083e-14 0.426444 -6.97864)
(-4.66944e-14 0.421205 -7.39589)
(6.99078e-15 0.430324 -7.81635)
(1.81705e-14 0.468467 -8.29027)
(2.06965e-14 0.500732 -8.85718)
(3.73705e-14 0.425319 -9.51714)
(-2.10186e-14 -0.0645894 -10.0236)
(-2.25677e-14 -1.24484 -8.86738)
(-2.35838e-14 -1.85513 -7.13777)
(-4.57865e-14 -1.25293 -5.08765)
(-5.58245e-14 -0.683553 -3.63595)
(-8.04162e-14 -0.70179 -2.79082)
(-9.6133e-14 -0.692853 -1.75574)
(-7.63073e-14 -0.830967 -0.832419)
(-3.67856e-14 -1.08621 0.219704)
(-8.31298e-14 -1.1534 1.07482)
(-9.09326e-14 -0.910886 1.47382)
(-6.2426e-14 -0.626244 1.87777)
(-3.36795e-14 -0.519079 2.10232)
(-6.53275e-14 -0.488813 2.22021)
(-1.22813e-13 -0.282256 2.30052)
(-1.18656e-13 0.0243237 2.20125)
(-9.3672e-14 -0.169662 1.79015)
(-1.16358e-13 -0.205115 1.6313)
(-8.08525e-14 -0.353437 1.70658)
(-1.60455e-14 -0.394926 1.97163)
(-8.61399e-14 -0.376667 2.11105)
(-6.24868e-14 -0.777718 2.59405)
(-8.88275e-14 -1.37988 3.75244)
(-4.29292e-14 -1.83483 5.2403)
(-2.25757e-14 -2.0365 6.74457)
(-1.32612e-14 -2.03897 8.14151)
(-8.16712e-15 -1.92956 9.40171)
(1.60494e-14 -1.77369 10.5233)
(2.90703e-14 -1.61004 11.5174)
(5.88291e-14 -1.4602 12.4055)
(8.09748e-14 -1.33584 13.2146)
(7.02067e-14 -1.24229 13.9737)
(4.13418e-14 -1.18016 14.7097)
(2.73376e-14 -1.1458 15.4424)
(9.09313e-15 -1.13175 16.18)
(-5.86571e-15 -1.12795 16.9188)
(-2.19888e-14 -1.12382 17.646)
(-2.18041e-14 -1.11038 18.3456)
(-4.48135e-14 -1.08151 19.0023)
(-4.25905e-14 -1.03417 19.6047)
(-4.91971e-14 -0.967871 20.1446)
(-5.26455e-14 -0.8838 20.6174)
(-5.56746e-14 -0.784089 21.0199)
(-4.17722e-14 -0.671229 21.3508)
(-5.69155e-14 -0.547784 21.609)
(-4.81936e-14 -0.416252 21.7946)
(-6.95527e-14 -0.279104 21.9074)
(-6.02976e-14 -0.139233 21.9488)
(-3.92502e-14 0.00121825 21.9194)
(-5.83914e-14 0.136641 21.8223)
(-3.51165e-14 0.266594 21.667)
(-5.95357e-14 0.400883 21.4362)
(-3.57904e-14 0.53352 21.1363)
(-4.6647e-14 0.650828 20.7742)
(-4.09248e-14 0.745475 20.3627)
(-2.70143e-14 0.819206 19.9127)
(-1.67881e-14 0.872774 19.4361)
(-5.87633e-15 0.9055 18.9438)
(4.84787e-15 0.916661 18.4468)
(1.74024e-14 0.905275 17.9567)
(3.56703e-14 0.869932 17.4852)
(3.01724e-14 0.808766 17.0441)
(3.88588e-14 0.720986 16.6452)
(5.90465e-14 0.606116 16.3027)
(4.89851e-14 0.467383 16.009)
(4.92916e-14 0.304354 15.7886)
(4.57949e-14 0.132089 15.6274)
(3.68601e-14 -0.0637417 15.5603)
(4.2393e-14 -0.294081 15.5841)
(3.53328e-14 -0.473895 15.4587)
(4.73144e-14 -0.6766 15.2843)
(2.72792e-14 -1.29202 16.1349)
(6.96486e-15 -2.31496 18.3092)
(2.33195e-15 -3.23455 20.7844)
(-3.39866e-15 -3.76931 22.8384)
(1.01739e-15 -3.9828 24.4615)
(-2.17803e-15 -4.00105 25.7621)
(9.1168e-16 -3.94249 27.0671)
(-9.42137e-16 -3.83339 27.9742)
(-2.42001e-15 -3.68386 29.6289)
(1.16858e-15 -1.92197 -22.8595)
(-1.81644e-14 -1.83103 -20.2212)
(-2.46724e-14 -1.80117 -17.5612)
(-1.70178e-14 -1.76978 -15.1098)
(-2.58614e-14 -1.74656 -12.8228)
(-2.50217e-14 -1.63358 -10.8503)
(-2.3927e-14 -1.35992 -9.21332)
(-2.90382e-14 -0.760409 -7.43503)
(-5.95848e-15 0.0565539 -5.31851)
(-2.33616e-14 0.354866 -4.77989)
(-5.38964e-14 0.326356 -5.41495)
(-7.17444e-14 0.314265 -5.87472)
(-5.73496e-14 0.383814 -6.04074)
(-4.20385e-14 0.457132 -6.27903)
(-2.24518e-14 0.487532 -6.64179)
(3.51773e-14 0.486104 -7.02384)
(2.5823e-14 0.501234 -7.40158)
(2.24063e-14 0.551514 -7.83616)
(5.45514e-15 0.596458 -8.37912)
(-9.08499e-15 0.509069 -9.0371)
(-3.70276e-14 -0.0816307 -9.53094)
(-7.98167e-14 -1.45211 -8.23635)
(-6.52373e-14 -2.18253 -6.4515)
(-6.4227e-14 -1.50186 -4.31902)
(-4.33104e-14 -0.825855 -2.76099)
(-7.42787e-14 -0.836007 -1.93803)
(-1.28919e-13 -0.851543 -0.876004)
(-7.97783e-14 -1.02532 0.347466)
(-8.38003e-14 -1.26962 1.31523)
(-5.20202e-14 -1.24644 1.56465)
(-8.72901e-14 -0.957133 1.48679)
(-6.13712e-14 -0.661534 1.64949)
(-3.23562e-14 -0.52965 1.84217)
(-9.08062e-14 -0.466176 2.03759)
(-1.38347e-13 -0.246927 2.14458)
(-6.81081e-14 0.0984072 2.20499)
(-1.60612e-13 -0.11655 1.81752)
(-1.47424e-13 -0.196598 1.72036)
(-7.07992e-14 -0.400542 1.89)
(-3.9825e-15 -0.451797 2.19631)
(-6.82097e-14 -0.46058 2.39912)
(-9.01587e-14 -0.971518 3.01664)
(-5.13426e-14 -1.68193 4.25544)
(-2.25088e-14 -2.17506 5.76169)
(-1.86553e-14 -2.36915 7.26116)
(-1.59531e-14 -2.34648 8.64369)
(-9.02012e-15 -2.20719 9.8841)
(-5.05128e-15 -2.02218 10.9854)
(1.36599e-14 -1.83326 11.9637)
(2.83511e-14 -1.66395 12.8439)
(-5.15864e-15 -1.52691 13.6555)
(-4.78297e-15 -1.42744 14.428)
(-2.40008e-14 -1.36486 15.1858)
(-3.11935e-14 -1.33301 15.9431)
(-3.68854e-14 -1.32133 16.7012)
(-3.82981e-14 -1.31717 17.4504)
(-5.29038e-14 -1.30858 18.1756)
(-4.07091e-14 -1.2865 18.8617)
(-5.37917e-14 -1.24553 19.4968)
(-4.04267e-14 -1.18349 20.0729)
(-6.35182e-14 -1.10064 20.585)
(-6.80646e-14 -0.998689 21.0302)
(-7.03988e-14 -0.880096 21.4069)
(-6.93847e-14 -0.747548 21.7139)
(-6.9076e-14 -0.603746 21.9506)
(-6.97337e-14 -0.451297 22.1167)
(-7.48968e-14 -0.292834 22.212)
(-7.75325e-14 -0.131443 22.2373)
(-7.85791e-14 0.0305934 22.1926)
(-8.3607e-14 0.186359 22.0819)
(-7.8523e-14 0.337973 21.9119)
(-8.81743e-14 0.496877 21.6633)
(-8.36019e-14 0.651982 21.342)
(-8.08131e-14 0.787818 20.9585)
(-7.12946e-14 0.897812 20.5233)
(-7.37998e-14 0.983792 20.0479)
(-5.78452e-14 1.04599 19.5447)
(-4.28155e-14 1.08344 19.025)
(-3.13012e-14 1.09525 18.5006)
(-1.68307e-14 1.0803 17.984)
(-7.25488e-15 1.03704 17.4875)
(-1.81664e-14 0.963371 17.0237)
(5.61051e-15 0.858482 16.6046)
(3.3717e-15 0.724208 16.2426)
(2.03365e-14 0.563434 15.9243)
(1.30787e-14 0.371401 15.6873)
(1.60952e-14 0.164467 15.5379)
(1.99781e-14 -0.0513303 15.4709)
(2.53313e-14 -0.239098 15.3241)
(3.30297e-14 -0.404478 14.9388)
(2.89309e-14 -0.923826 15.198)
(8.73131e-15 -2.05509 16.9838)
(-5.88139e-15 -3.25324 19.3712)
(-7.70807e-15 -4.03848 21.3977)
(1.61108e-15 -4.40395 22.9304)
(3.2009e-15 -4.52387 24.2134)
(3.4882e-15 -4.50581 25.3417)
(6.89618e-16 -4.44046 26.5824)
(2.13023e-15 -4.3204 27.4642)
(-7.29935e-16 -4.15042 29.1449)
(9.42712e-15 -2.17264 -22.8344)
(-1.19218e-14 -2.07225 -20.2339)
(-1.70741e-14 -2.04329 -17.5986)
(-2.22257e-14 -2.00463 -15.1257)
(-3.21914e-14 -1.96531 -12.7618)
(-2.53476e-14 -1.81897 -10.6775)
(-1.52374e-15 -1.52831 -9.04211)
(-1.70646e-14 -0.964424 -7.55933)
(-4.26181e-15 -0.104806 -5.65567)
(2.48508e-14 0.339888 -4.65148)
(-5.53493e-14 0.398326 -5.05818)
(-4.1494e-14 0.366841 -5.64698)
(-1.33721e-14 0.410081 -5.8791)
(3.88223e-16 0.496732 -6.03742)
(9.68572e-15 0.542403 -6.33405)
(9.97355e-15 0.54526 -6.67261)
(3.51358e-16 0.566109 -6.99273)
(-3.31441e-14 0.630434 -7.3641)
(-2.66856e-14 0.691097 -7.85406)
(2.20111e-15 0.589634 -8.47374)
(-7.23253e-14 -0.110863 -8.90446)
(-1.15855e-13 -1.65795 -7.42576)
(-1.16676e-13 -2.51597 -5.626)
(-1.33213e-13 -1.76284 -3.50999)
(-4.56668e-14 -0.977048 -1.89214)
(-6.01237e-14 -0.979585 -0.975311)
(-5.94507e-14 -1.04539 0.213472)
(-1.20845e-13 -1.20515 1.34478)
(-8.77785e-14 -1.34007 1.68592)
(-5.33093e-14 -1.22276 1.43673)
(-1.22908e-13 -0.945443 1.26836)
(-4.51283e-14 -0.684367 1.51925)
(-2.30048e-14 -0.552649 1.81355)
(-1.59852e-13 -0.464093 2.09193)
(-1.47415e-13 -0.255549 2.13641)
(-1.50926e-13 0.112079 2.25314)
(-1.82504e-13 -0.0899692 1.88638)
(-1.40776e-13 -0.209314 1.84515)
(-4.17387e-14 -0.465249 2.09759)
(1.25505e-14 -0.520687 2.44709)
(-2.94333e-14 -0.564694 2.72187)
(-2.18058e-15 -1.18625 3.45768)
(-2.25002e-14 -1.99233 4.76073)
(-8.33971e-15 -2.51531 6.28362)
(-1.37237e-14 -2.69799 7.78156)
(-1.07706e-14 -2.64838 9.15415)
(-4.27394e-15 -2.47866 10.38)
(-1.2986e-15 -2.26505 11.4666)
(-4.7704e-15 -2.05233 12.4346)
(-1.56853e-14 -1.86571 13.312)
(-2.5891e-14 -1.71841 14.1296)
(-3.38271e-14 -1.61507 14.9159)
(-3.73534e-14 -1.55297 15.6911)
(-3.97473e-14 -1.52296 16.4635)
(-4.20478e-14 -1.51153 17.2284)
(-4.32145e-14 -1.50412 17.9734)
(-6.7562e-14 -1.48833 18.6836)
(-5.47478e-14 -1.4556 19.3469)
(-7.48975e-14 -1.40138 19.955)
(-7.90287e-14 -1.32426 20.5029)
(-7.68539e-14 -1.22502 20.9878)
(-7.47253e-14 -1.10565 21.4079)
(-7.485e-14 -0.968772 21.762)
(-7.04975e-14 -0.817155 22.0491)
(-7.47016e-14 -0.653576 22.2683)
(-6.93239e-14 -0.480704 22.4191)
(-7.60111e-14 -0.301322 22.5009)
(-8.83377e-14 -0.118648 22.5142)
(-7.48419e-14 0.0648603 22.4579)
(-7.45652e-14 0.241032 22.3372)
(-6.78582e-14 0.415057 22.1549)
(-7.58404e-14 0.599568 21.8917)
(-7.47092e-14 0.777976 21.552)
(-8.23549e-14 0.932699 21.1488)
(-9.13015e-14 1.05891 20.6907)
(-7.63779e-14 1.15789 20.1902)
(-6.89418e-14 1.22915 19.6602)
(-9.39973e-14 1.27149 19.1125)
(-7.7607e-14 1.28379 18.5601)
(-7.50706e-14 1.26483 18.0162)
(-7.48303e-14 1.2129 17.4938)
(-6.36758e-14 1.12585 17.0061)
(-6.35035e-14 1.00363 16.5644)
(-4.446e-14 0.851078 16.1773)
(-5.93145e-14 0.664902 15.8369)
(-5.76314e-14 0.432685 15.6068)
(-4.12406e-14 0.197271 15.4687)
(-2.62122e-14 0.014124 15.3055)
(-6.76979e-15 -0.113392 14.8974)
(-1.23746e-16 -0.43895 14.5622)
(-6.85438e-15 -1.46461 15.6087)
(-1.72642e-14 -2.91692 17.8059)
(-8.07585e-15 -4.04964 19.8809)
(-4.80027e-15 -4.66373 21.4445)
(-6.13185e-15 -4.92228 22.663)
(-1.63814e-15 -5.00759 23.7854)