/*--------------------------------*- C++ -*----------------------------------*\
| =========                 |                                                 |
| \\      /  F ield         | OpenFOAM: The Open Source CFD Toolbox           |
|  \\    /   O peration     | Version:  4.1                                   |
|   \\  /    A nd           | Web:      www.OpenFOAM.org                      |
|    \\/     M anipulation  |                                                 |
\*---------------------------------------------------------------------------*/
FoamFile
{
    version     2.0;
    format      ascii;
    class       volScalarField;
    location    "1600";
    object      p;
}
// * * * * * * * * * * * * * * * * * * * * * * * * * * * * * * * * * * * * * //

dimensions      [0 2 -2 0 0 0 0];

internalField   nonuniform List<scalar> 
26785
(
1449.75
1452.5
1448.81
1438.42
1429.33
1426.17
1427.07
1429.89
1434.27
1439.34
1444.77
1450.65
1457.16
1463.45
1468.57
1472.21
1473.21
1469.53
1461.62
1452.14
1442.39
1432.19
1421.08
1409.45
1398.24
1388.31
1380.48
1375.53
1374.24
1377.46
1386.1
1401.29
1424.44
1457.31
1501.96
1560.67
1635.61
1728.82
1841.25
1974.86
2127.91
2300.97
2492.86
2692.94
2890.3
3078.29
3252.92
3411.05
3550.35
3669.56
3768.43
3847.48
3907.84
3951.04
3978.85
3992.92
3994.71
3985.4
3966.07
3937.86
3901.97
3859.54
3811.7
3759.22
3701.69
3637.56
3567.6
3492.45
3417.28
3345.88
3273.49
3196.57
3118.53
3045.12
2984.22
2927.81
2877.27
2813.65
2716.97
2609.6
2481.19
2318.13
2111.18
1853.25
1552.99
1250.03
1009.87
865.529
787.565
741.162
710.904
677.509
629.399
570.909
515.12
472.761
424.994
344.13
226.256
86.2982
1449.7
1452.47
1448.78
1438.37
1429.26
1426.11
1427.04
1429.88
1434.27
1439.33
1444.77
1450.65
1457.17
1463.48
1468.62
1472.27
1473.29
1469.59
1461.64
1452.13
1442.36
1432.14
1420.99
1409.32
1398.05
1388.08
1380.2
1375.2
1373.86
1377.03
1385.62
1400.75
1423.84
1456.63
1501.2
1559.81
1634.66
1727.78
1840.09
1973.62
2126.44
2299.46
2491.73
2692.2
2889.84
3078.09
3252.97
3411.33
3550.82
3670.19
3769.19
3848.33
3908.74
3951.95
3979.75
3993.8
3995.57
3986.25
3966.9
3938.67
3902.74
3860.27
3812.39
3759.99
3702.64
3638.54
3568.57
3493.09
3417.74
3346.65
3274.41
3197.33
3118.96
3044.88
2984.12
2928.06
2878.7
2814.19
2715.76
2609.66
2480.9
2317.56
2110.2
1850.07
1545.27
1237.33
997.291
857.371
782.81
737.785
709.504
678.285
631.413
572.752
514.991
472.651
425.402
344.091
225.898
82.8121
1449.62
1452.42
1448.74
1438.28
1429.14
1426.01
1426.98
1429.86
1434.26
1439.31
1444.75
1450.63
1457.18
1463.52
1468.7
1472.39
1473.45
1469.71
1461.67
1452.11
1442.31
1432.04
1420.81
1409.04
1397.68
1387.62
1379.65
1374.54
1373.11
1376.18
1384.66
1399.67
1422.62
1455.26
1499.66
1558.1
1632.75
1725.7
1837.78
1971.16
2123.58
2296.58
2489.58
2690.78
2888.97
3077.73
3253.1
3411.9
3551.76
3671.44
3770.69
3850.01
3910.5
3953.73
3981.51
3995.54
3997.27
3987.91
3968.54
3940.26
3904.27
3861.7
3813.76
3761.51
3704.48
3640.44
3570.43
3494.33
3418.71
3348.21
3276.14
3198.77
3119.9
3044.64
2983.85
2928.97
2880.94
2813.64
2713.19
2609.42
2480.03
2316.61
2108.54
1844.19
1530.86
1213.7
974.531
842.473
773.406
730.424
705.884
679.282
635.954
577.656
515.027
472.254
427.562
347.427
228.059
84.0446
1449.53
1452.35
1448.68
1438.16
1428.95
1425.85
1426.9
1429.83
1434.24
1439.28
1444.71
1450.62
1457.21
1463.6
1468.81
1472.57
1473.67
1469.88
1461.73
1452.08
1442.23
1431.89
1420.53
1408.63
1397.13
1386.93
1378.8
1373.55
1371.97
1374.87
1383.18
1398.01
1420.75
1453.17
1497.33
1555.51
1629.88
1722.55
1834.3
1967.43
2119.35
2292.41
2486.47
2688.72
2887.72
3077.24
3253.33
3412.76
3553.17
3673.31
3772.92
3852.48
3913.09
3956.35
3984.1
3998.09
3999.77
3990.37
3970.95
3942.62
3906.54
3863.84
3815.79
3763.73
3707.14
3643.24
3573.13
3496.17
3420.26
3350.55
3278.55
3200.83
3121.43
3044.77
2983.31
2930.71
2884.44
2812.03
2710.81
2609.3
2478.93
2315.7
2106.38
1836.09
1511.07
1181.64
944.892
823.643
762.037
721.45
701.36
680.692
643.564
587.774
519.277
469.58
421.402
341.543
228.044
85.4151
1449.43
1452.28
1448.62
1438.01
1428.7
1425.66
1426.8
1429.79
1434.21
1439.23
1444.67
1450.59
1457.24
1463.7
1468.97
1472.8
1473.96
1470.11
1461.81
1452.05
1442.11
1431.68
1420.16
1408.07
1396.39
1385.99
1377.66
1372.2
1370.4
1373.09
1381.18
1395.75
1418.23
1450.35
1494.19
1552.01
1626
1718.31
1829.65
1962.44
2113.81
2287.03
2482.47
2686.07
2886.13
3076.64
3253.68
3413.94
3555.04
3675.76
3775.84
3855.71
3916.49
3959.78
3987.49
4001.43
4003.07
3993.6
3974.12
3945.72
3909.53
3866.65
3818.44
3766.59
3710.5
3646.85
3576.55
3498.61
3422.49
3353.59
3281.37
3203.42
3123.8
3046.14
2982.44
2932.43
2888.6
2812.2
2711.25
2610.25
2477.93
2314.44
2103.4
1826.3
1487.65
1144.19
912.011
803.051
749.746
712.163
696.994
682.197
647.817
588.328
518.645
463.145
408.441
330.916
227.484
86.0324
1449.3
1452.2
1448.54
1437.83
1428.4
1425.42
1426.68
1429.73
1434.17
1439.16
1444.6
1450.56
1457.29
1463.83
1469.16
1473.08
1474.31
1470.39
1461.91
1452.01
1441.97
1431.4
1419.68
1407.37
1395.46
1384.79
1376.2
1370.47
1368.41
1370.82
1378.62
1392.89
1415.03
1446.77
1490.21
1547.59
1621.11
1712.97
1823.81
1956.18
2106.97
2280.53
2477.65
2682.87
2884.23
3075.96
3254.15
3415.42
3557.37
3678.8
3779.43
3859.69
3920.65
3963.97
3991.64
4005.53
4007.12
3997.58
3978.04
3949.57
3913.26
3870.15
3821.68
3770.02
3714.47
3651.21
3580.53
3501.77
3425.64
3357.28
3284.33
3206.14
3126.3
3048.97
2985.03
2933.06
2887.38
2810.12
2708.42
2605.65
2472.41
2308.69
2096.78
1813.87
1462.41
1105.58
881.09
784.876
739.183
703.99
693.473
681.871
647.583
584.969
515.19
453.48
392.609
318.875
225.358
86.0134
1449.16
1452.12
1448.45
1437.63
1428.03
1425.13
1426.54
1429.67
1434.11
1439.08
1444.52
1450.52
1457.35
1463.98
1469.38
1473.4
1474.71
1470.71
1462.04
1451.97
1441.8
1431.07
1419.11
1406.52
1394.31
1383.33
1374.4
1368.35
1365.96
1368.05
1375.5
1389.39
1411.12
1442.42
1485.36
1542.23
1615.18
1706.5
1816.77
1948.61
2098.87
2272.97
2472.06
2679.16
2882.06
3075.22
3254.78
3417.22
3560.15
3682.41
3783.69
3864.38
3925.55
3968.91
3996.54
4010.37
4011.92
4002.31
3982.7
3954.16
3917.72
3874.35
3825.52
3773.97
3718.96
3656.14
3584.87
3505.95
3430.24
3361.08
3286.13
3208.52
3130.43
3051.83
2983.03
2922.96
2877.85
2807.91
2703.12
2597.82
2465.05
2299.69
2084.26
1796.82
1438.18
1072.11
858.201
771.151
731.84
699.568
692.138
680.013
644.068
579.145
509.485
444.396
381.182
310.601
221.828
84.1194
1449.03
1452.03
1448.34
1437.4
1427.6
1424.8
1426.38
1429.6
1434.04
1438.97
1444.42
1450.48
1457.41
1464.16
1469.63
1473.76
1475.15
1471.06
1462.19
1451.94
1441.61
1430.67
1418.43
1405.52
1392.95
1381.58
1372.27
1365.83
1363.06
1364.75
1371.79
1385.25
1406.5
1437.27
1479.64
1535.89
1608.18
1698.87
1808.51
1939.73
2089.52
2264.4
2465.76
2674.98
2879.63
3074.46
3255.56
3419.33
3563.37
3686.57
3788.59
3869.77
3931.18
3974.57
4002.14
4015.94
4017.45
4007.77
3988.11
3959.52
3922.97
3879.33
3830.01
3778.37
3723.85
3661.33
3589.18
3511.32
3439.12
3370.08
3290.05
3208.98
3130.22
3052.3
2981.6
2916.93
2869.78
2798.95
2696.06
2587.71
2455.2
2289.15
2072.61
1782.87
1419.65
1051.62
850.767
767.528
729.272
698.008
691.495
678.193
639.657
574.633
506.245
440.75
375.449
304.204
217.266
82.6322
1448.92
1451.94
1448.21
1437.14
1427.11
1424.43
1426.19
1429.52
1433.96
1438.84
1444.3
1450.42
1457.49
1464.37
1469.91
1474.15
1475.61
1471.43
1462.35
1451.91
1441.4
1430.23
1417.65
1404.36
1391.36
1379.55
1369.79
1362.9
1359.68
1360.92
1367.48
1380.43
1401.14
1431.3
1473.01
1528.55
1600.09
1690.04
1799.02
1929.49
2078.91
2254.88
2458.8
2670.36
2876.98
3073.7
3256.52
3421.75
3567.03
3691.27
3794.11
3875.83
3937.5
3980.92
4008.44
4022.2
4023.7
4013.98
3994.27
3965.67
3929.06
3885.18
3835.27
3783.21
3729.15
3666.49
3593.94
3517.87
3447.1
3376.59
3294.96
3214.86
3135.55
3055.86
2982.21
2914.14
2861.37
2787.77
2688.79
2576.9
2443.9
2277.01
2060.16
1772.06
1412.19
1053.66
857.534
774.149
733.767
704.941
696.307
678.171
636.509
571.961
502.646
434.82
366.397
294.518
210.102
79.3683
1448.82
1451.84
1448.07
1436.87
1426.55
1424.03
1425.98
1429.42
1433.85
1438.68
1444.16
1450.36
1457.58
1464.6
1470.23
1474.56
1476.07
1471.8
1462.53
1451.88
1441.16
1429.72
1416.76
1403.03
1389.54
1377.22
1366.95
1359.55
1355.82
1356.53
1362.56
1374.93
1395.02
1424.5
1465.46
1520.2
1590.89
1679.99
1788.29
1917.86
2067.04
2244.44
2451.22
2665.32
2874.13
3072.94
3257.66
3424.49
3571.12
3696.49
3800.24
3882.56
3944.49
3987.93
4015.4
4029.15
4030.68
4020.92
4001.21
3972.63
3936.04
3892.05
3841.59
3788.32
3733.87
3668.88
3595.82
3522.13
3454.27
3383.08
3299.51
3219.23
3138.84
3057.85
2981.61
2910.32
2850.11
2774.96
2679.11
2564.45
2430.57
2263.49
2048.28
1765.52
1414.6
1070.2
879.307
794.265
749.413
719.103
704.809
680.174
634.782
569.102
497.537
427.46
356.268
284.157
202.006
75.2082
1448.7
1451.72
1447.9
1436.57
1425.95
1423.6
1425.76
1429.31
1433.73
1438.5
1444
1450.3
1457.68
1464.85
1470.58
1474.99
1476.54
1472.16
1462.72
1451.83
1440.88
1429.14
1415.76
1401.53
1387.49
1374.6
1363.75
1355.77
1351.45
1351.58
1357
1368.73
1388.12
1416.83
1456.96
1510.79
1580.53
1668.69
1776.3
1904.82
2053.9
2233.12
2443.05
2659.9
2871.09
3072.21
3258.99
3427.55
3575.62
3702.23
3806.96
3889.92
3952.14
3995.59
4022.99
4036.75
4038.35
4028.59
4008.92
3980.43
3943.99
3900.14
3849.85
3796.33
3741.09
3673.11
3600.27
3526.82
3460.06
3389.63
3304.73
3223.27
3141.2
3058.55
2979.59
2904.82
2836.6
2760.5
2666.31
2550.23
2415.44
2248.79
2036.72
1762.57
1426.18
1099.17
912.598
824.021
773.807
738.721
716.393
683.995
633.598
565.254
491.677
419.671
346.73
274.747
194.505
72.2587
1448.59
1451.59
1447.71
1436.27
1425.29
1423.14
1425.52
1429.2
1433.59
1438.29
1443.81
1450.22
1457.79
1465.12
1470.98
1475.45
1476.99
1472.51
1462.92
1451.76
1440.55
1428.47
1414.62
1399.84
1385.19
1371.67
1360.17
1351.55
1346.58
1346.05
1350.8
1361.81
1380.42
1408.28
1447.49
1500.31
1569
1656.09
1763.02
1890.33
2039.47
2220.94
2434.31
2654.09
2867.89
3071.53
3260.52
3430.91
3580.54
3708.47
3814.25
3897.9
3960.41
4003.85
4031.18
4044.98
4046.71
4037
4017.41
3989.09
3952.94
3909.44
3858.51
3802.24
3746.7
3681.58
3612.52
3541.78
3470.06
3397.54
3310.64
3227.43
3143.39
3058.55
2976.56
2897.91
2822.37
2744.51
2649.97
2534.28
2398.77
2233.2
2025.6
1762.61
1444.91
1136.91
953.85
860.492
804.088
762.198
730.397
689.172
632.588
561.011
485.793
412.092
338.166
266.149
187.128
68.5615
1448.48
1451.43
1447.52
1435.97
1424.61
1422.66
1425.27
1429.08
1433.43
1438.06
1443.6
1450.13
1457.92
1465.41
1471.42
1475.92
1477.41
1472.84
1463.11
1451.67
1440.16
1427.71
1413.35
1397.97
1382.65
1368.43
1356.22
1346.88
1341.19
1339.93
1343.93
1354.16
1371.92
1398.83
1437.02
1488.74
1556.28
1642.16
1748.44
1874.38
2023.73
2207.91
2425.01
2647.92
2864.54
3070.89
3262.24
3434.57
3585.85
3715.2
3822.11
3906.49
3969.3
4012.69
4039.94
4053.8
4055.72
4046.13
4026.67
3998.63
3962.9
3919.58
3868.12
3809.75
3752.57
3689.38
3619.73
3551.84
3481.49
3406.35
3317.18
3231.6
3145.17
3057.74
2972.6
2889.86
2808.16
2726.73
2630.98
2516.97
2380.98
2217.07
2014.95
1764.73
1468.58
1181.59
1001.54
902.146
838.093
788.26
746.114
695.43
632.039
557.214
480.439
405.309
330.67
258.473
180.553
66.3364
1448.39
1451.26
1447.31
1435.68
1423.89
1422.18
1425.02
1428.95
1433.26
1437.8
1443.36
1450.04
1458.06
1465.72
1471.92
1476.41
1477.79
1473.13
1463.29
1451.56
1439.71
1426.84
1411.93
1395.9
1379.86
1364.87
1351.88
1341.74
1335.26
1333.21
1336.4
1345.76
1362.58
1388.47
1425.54
1476.03
1542.32
1626.86
1732.52
1856.92
2006.69
2194.06
2415.18
2641.37
2861.02
3070.29
3264.15
3438.53
3591.54
3722.39
3830.5
3915.66
3978.77
4022.07
4049.22
4063.17
4065.36
4055.95
4036.68
4008.99
3973.77
3930.8
3879.18
3820.13
3761.99
3698.29
3626.98
3558.21
3487.59
3413.23
3323.74
3235.68
3146.39
3056.19
2967.87
2881.04
2793.97
2707.46
2610.72
2498.45
2362.49
2200.74
2004.83
1768.11
1494.64
1230.49
1054.68
948.976
875.65
816.409
763.1
702.611
632.307
554.24
475.778
399.264
323.826
251.206
174.086
63.8605
1448.29
1451.08
1447.1
1435.42
1423.17
1421.7
1424.78
1428.83
1433.07
1437.52
1443.11
1449.93
1458.22
1466.04
1472.47
1476.91
1478.14
1473.41
1463.47
1451.43
1439.22
1425.88
1410.37
1393.64
1376.81
1360.99
1347.15
1336.14
1328.8
1325.88
1328.18
1336.6
1352.4
1377.16
1413.02
1462.18
1527.11
1610.15
1715.25
1837.93
1988.31
2179.41
2404.8
2634.45
2857.36
3069.75
3266.25
3442.77
3597.6
3730.03
3839.42
3925.4
3988.8
4031.95
4058.98
4073.04
4075.58
4066.47
4047.42
4020.18
3985.46
3943.29
3892.21
3832.94
3773.86
3709.12
3637.12
3566.53
3493.14
3419.11
3330.06
3239.49
3147.06
3054.01
2962.56
2871.71
2779.77
2687.6
2589.97
2478.76
2343.69
2184.52
1995.28
1771.96
1520.57
1279.44
1109.88
998.782
915.594
845.697
780.698
710.449
633.496
552.194
471.983
394.171
318.021
245.012
168.598
62.2307
1448.17
1450.88
1446.9
1435.21
1422.45
1421.25
1424.56
1428.71
1432.86
1437.21
1442.83
1449.83
1458.38
1466.37
1473.09
1477.43
1478.45
1473.69
1463.65
1451.28
1438.68
1424.82
1408.66
1391.18
1373.51
1356.79
1342.02
1330.07
1321.79
1317.93
1319.26
1326.66
1341.36
1364.9
1399.45
1447.16
1510.62
1591.99
1696.59
1817.37
1968.61
2163.98
2393.9
2627.16
2853.54
3069.25
3268.51
3447.28
3604.01
3738.09
3848.83
3935.67
3999.36
4042.29
4069.16
4083.31
4086.28
4077.6
4058.86
4032.31
3998.31
3957.11
3906.8
3847.9
3787.94
3722.26
3650.93
3577.9
3501.54
3425.72
3336.31
3243.05
3147.35
3051.43
2956.85
2862.08
2765.64
2668.06
2569.13
2458.12
2325.04
2168.75
1986.34
1775.79
1544.66
1324.85
1162.57
1047.39
954.91
874.238
797.92
718.568
635.562
551.206
469.328
390.34
313.545
240.111
164.224
60.9829
1448.05
1450.68
1446.71
1435.05
1421.73
1420.82
1424.36
1428.59
1432.62
1436.87
1442.53
1449.73
1458.55
1466.75
1473.76
1477.94
1478.72
1473.97
1463.84
1451.11
1438.09
1423.67
1406.81
1388.52
1369.95
1352.27
1336.48
1323.52
1314.23
1309.35
1309.64
1315.93
1329.44
1351.66
1384.8
1430.93
1492.83
1572.32
1676.5
1795.21
1947.57
2147.81
2382.45
2619.47
2849.56
3068.78
3270.93
3452.04
3610.75
3746.56
3858.7
3946.46
4010.41
4053.03
4079.72
4093.97
4097.39
4089.28
4070.77
4044.9
4012.26
3972.5
3922.77
3864.57
3804.1
3737.63
3667.19
3592.37
3513.51
3434.36
3343.24
3246.84
3147.71
3048.79
2951.02
2852.4
2751.81
2649.59
2548.32
2437.11
2306.92
2153.75
1978.04
1779.38
1566.26
1364.97
1209.62
1091.39
990.764
900.294
813.936
726.667
638.463
551.415
468.031
387.989
310.546
236.623
161.115
60.2448
1447.94
1450.49
1446.55
1434.96
1421.05
1420.42
1424.19
1428.48
1432.37
1436.48
1442.2
1449.65
1458.71
1467.19
1474.5
1478.45
1479
1474.28
1464.03
1450.92
1437.45
1422.42
1404.81
1385.66
1366.13
1347.41
1330.54
1316.49
1306.11
1300.14
1299.31
1304.41
1316.63
1337.43
1369.05
1413.48
1473.69
1551.11
1654.93
1771.41
1925.17
2130.91
2370.45
2611.4
2845.43
3068.34
3273.49
3457.02
3617.78
3755.39
3869.02
3957.72
4021.91
4064.13
4090.6
4104.91
4108.79
4101.55
4083.54
4058.69
4027.59
3989.21
3940.28
3882.94
3822.28
3755.27
3684.69
3608.74
3527.9
3444.99
3351.21
3251.31
3148.62
3046.51
2945.38
2843.02
2738.61
2632.52
2527.93
2416.67
2289.54
2139.77
1970.43
1782.7
1585.24
1399.49
1249.95
1129.2
1021.83
923.075
828.374
734.599
642.163
552.858
468.141
387.114
308.943
234.439
159.162
59.8999
1447.83
1450.3
1446.41
1434.95
1420.38
1420.05
1424.05
1428.37
1432.08
1436.05
1441.83
1449.59
1458.84
1467.69
1475.26
1479
1479.38
1474.66
1464.24
1450.73
1436.76
1421.07
1402.67
1382.6
1362.03
1342.21
1324.19
1308.97
1297.42
1290.28
1288.25
1292.07
1302.91
1322.18
1352.17
1394.78
1453.18
1528.29
1631.84
1745.95
1901.39
2113.31
2357.9
2602.92
2841.14
3067.91
3276.17
3462.2
3625.09
3764.55
3879.73
3969.43
4033.83
4075.53
4101.74
4116.04
4120.24
4113.7
4095.92
4073.07
4044.26
4007.13
3959.28
3902.9
3842.29
3774.92
3703.34
3626.04
3543.43
3456.88
3360.07
3256.63
3150.39
3044.91
2940.29
2834.28
2726.37
2617
2508.78
2397.57
2273.05
2127
1963.69
1785.88
1601.74
1428.64
1283.72
1160.67
1047.95
942.495
841.169
742.299
646.577
555.439
469.528
387.523
308.523
233.363
158.197
59.8725
1447.73
1450.13
1446.31
1435.02
1419.75
1419.73
1423.95
1428.27
1431.77
1435.57
1441.43
1449.52
1458.96
1468.24
1476
1479.58
1479.79
1475.05
1464.44
1450.54
1436.03
1419.62
1400.38
1379.34
1357.67
1336.67
1317.43
1300.96
1288.17
1279.77
1276.45
1278.91
1288.27
1305.9
1334.15
1374.8
1431.26
1503.83
1607.17
1718.84
1876.2
2095.02
2344.76
2594.03
2836.68
3067.47
3278.94
3467.56
3632.63
3774.01
3890.79
3981.54
4046.1
4087.17
4113.12
4127.33
4131.68
4126.14
4108.8
4087.63
4060.94
4025.87
3979.68
3924.33
3863.93
3796.24
3723.06
3643.86
3559.37
3469.47
3369.63
3262.83
3153.16
3044.24
2936.04
2826.54
2715.45
2603.23
2491.72
2380.17
2257.61
2115.7
1958.03
1789.01
1615.75
1452.72
1311.49
1186.34
1069.42
958.744
852.39
749.725
651.564
558.959
471.952
388.955
309.05
233.18
158.025
60.0914
1447.62
1449.99
1446.24
1435.15
1419.15
1419.45
1423.88
1428.15
1431.43
1435.04
1441.03
1449.45
1459.13
1468.82
1476.64
1479.99
1480.08
1475.37
1464.61
1450.33
1435.24
1418.07
1397.93
1375.87
1353.05
1330.8
1310.25
1292.46
1278.34
1268.61
1263.92
1264.91
1272.69
1288.56
1314.96
1353.51
1407.92
1477.68
1580.87
1690.1
1849.58
2076.04
2331.02
2584.73
2832.07
3067.01
3281.78
3473.06
3640.36
3783.71
3902.16
3993.98
4058.63
4098.95
4124.61
4138.83
4143.3
4138.66
4122.86
4104.09
4079.12
4045.8
4001.21
3946.96
3886.96
3819
3743.88
3662.24
3575.59
3482.61
3379.85
3269.94
3157.02
3044.65
2932.91
2820.1
2706.12
2591.49
2477.39
2364.7
2243.5
2105.85
1953.5
1791.83
1627.13
1472.19
1333.95
1206.89
1086.73
972.159
862.197
756.866
656.961
563.173
475.134
391.133
310.281
233.657
158.405
60.4773
1447.53
1449.88
1446.22
1435.36
1418.58
1419.22
1423.84
1428.04
1431.05
1434.45
1440.66
1449.36
1459.37
1469.39
1477.09
1480.26
1480.32
1475.62
1464.7
1450.07
1434.41
1416.42
1395.33
1372.19
1348.16
1324.58
1302.66
1283.47
1267.94
1256.79
1250.63
1250.06
1256.14
1270.14
1294.57
1330.92
1383.12
1449.81
1552.87
1659.84
1821.56
2056.34
2316.64
2575.01
2827.29
3066.52
3284.67
3478.68
3648.26
3793.62
3913.77
4006.68
4071.37
4111.02
4136.56
4150.81
4155.04
4150.56
4137.01
4121.12
4098.25
4066.84
4023.81
3970.71
3911.34
3843.13
3765.94
3681.48
3592.29
3496.37
3390.8
3278.01
3162.01
3046.29
2931.1
2815.19
2698.61
2581.92
2465.9
2351.35
2230.92
2097.21
1949.78
1793.86
1636.24
1487.74
1351.51
1222.99
1100.48
983.199
870.822
763.726
662.594
567.82
478.794
393.788
311.972
234.546
159.034
60.9394
1447.46
1449.82
1446.24
1435.64
1418.04
1419.03
1423.82
1427.91
1430.63
1433.78
1440.33
1449.26
1459.67
1469.92
1477.42
1480.43
1480.5
1475.73
1464.68
1449.74
1433.5
1414.68
1392.58
1368.3
1343
1318.03
1294.64
1273.97
1256.95
1244.3
1236.59
1234.34
1238.62
1250.62
1272.97
1307
1356.85
1420.23
1523.06
1628.17
1792.17
2035.9
2301.56
2564.88
2822.34
3065.97
3287.57
3484.37
3656.27
3803.67
3925.55
4019.59
4084.26
4123.23
4148.75
4163.33
4167.45
4163.54
4152.71
4138.52
4117.05
4088.26
4047.51
3995.85
3937.33
3868.77
3789.48
3701.98
3609.82
3510.92
3402.6
3287.1
3168.19
3049.25
2930.78
2811.97
2693.05
2574.56
2456.96
2340.33
2220.06
2089.37
1946.2
1795.06
1643.76
1500.06
1364.73
1235.4
1111.36
992.354
878.493
770.289
668.277
572.642
482.663
396.667
313.899
235.616
159.62
61.3882
1447.41
1449.79
1446.31
1435.97
1417.51
1418.88
1423.82
1427.78
1430.13
1433.05
1440.03
1449.17
1460.02
1470.41
1477.65
1480.54
1480.58
1475.68
1464.54
1449.32
1432.5
1412.83
1389.69
1364.21
1337.56
1311.14
1286.21
1263.98
1245.39
1231.15
1221.78
1217.76
1220.11
1229.99
1250.15
1281.75
1329.11
1388.94
1491.32
1595.33
1761.53
2014.69
2285.74
2554.35
2817.23
3065.35
3290.47
3490.12
3664.37
3813.82
3937.42
4032.45
4096.84
4135.54
4161.66
4177.37
4182.43
4179.38
4170.2
4157
4137.05
4111.11
4073.04
4023.11
3965.43
3896.24
3814.81
3724.14
3628.58
3526.51
3415.4
3297.29
3175.62
3053.62
2932.06
2810.55
2689.46
2569.29
2450.23
2331.78
2210.9
2081.95
1942.39
1795.84
1649.83
1509.33
1374.58
1244.89
1120.01
1000.06
885.381
776.5
673.819
577.403
486.519
399.583
315.91
236.74
160.051
61.7807
1447.37
1449.81
1446.42
1436.35
1416.98
1418.75
1423.82
1427.65
1429.55
1432.29
1439.75
1449.16
1460.41
1470.85
1477.81
1480.62
1480.57
1475.51
1464.29
1448.8
1431.39
1410.86
1386.66
1359.92
1331.86
1303.91
1277.37
1253.49
1233.25
1217.33
1206.21
1200.29
1200.6
1208.24
1226.08
1255.2
1299.9
1356.01
1457.44
1561.25
1729.86
1992.68
2269.13
2543.42
2811.94
3064.64
3293.34
3495.87
3672.49
3823.99
3949.16
4045.19
4110.03
4149.65
4177.26
4194.46
4200.41
4197.52
4188.88
4176.95
4159.64
4136.69
4101.44
4053.31
3996.08
3925.87
3842.22
3748.29
3648.93
3543.4
3429.37
3308.68
3184.38
3059.49
2935.02
2810.96
2687.78
2565.91
2445.34
2325.3
2203.29
2075.09
1938.48
1796.25
1654.19
1515.81
1381.81
1252.16
1126.98
1006.63
891.569
782.271
679.055
581.943
490.244
402.46
317.958
237.928
160.458
62.1418
1447.34
1449.88
1446.58
1436.78
1416.44
1418.64
1423.79
1427.52
1428.83
1431.53
1439.46
1449.26
1460.86
1471.25
1477.94
1480.69
1480.5
1475.26
1463.94
1448.18
1430.17
1408.76
1383.47
1355.44
1325.89
1296.34
1268.13
1242.51
1220.53
1202.84
1189.86
1181.94
1180.08
1185.34
1200.76
1227.35
1269.25
1321.53
1421.36
1525.57
1697.34
1969.87
2251.71
2532.13
2806.48
3063.82
3296.15
3501.6
3680.63
3834.1
3961.09
4059.24
4125.65
4166.56
4195.61
4214.2
4221.04
4218.61
4211
4200.77
4186.33
4166.15
4133.54
4086.94
4029.56
3957.87
3871.87
3774.64
3671.19
3561.85
3444.72
3321.4
3194.55
3066.9
2939.66
2813.13
2687.85
2564.17
2441.93
2320.28
2197.05
2069.06
1934.64
1795.85
1656.75
1520.15
1387.03
1257.74
1132.66
1012.27
897.08
787.533
683.899
586.207
493.823
405.31
320.066
239.26
161.076
62.5287
1447.33
1449.99
1446.81
1437.29
1416
1418.54
1423.71
1427.35
1427.97
1430.82
1439.12
1449.42
1461.32
1471.59
1478.04
1480.74
1480.37
1474.94
1463.51
1447.46
1428.83
1406.52
1380.12
1350.76
1319.66
1288.44
1258.47
1231.05
1207.23
1187.68
1172.74
1162.69
1158.53
1161.31
1174.2
1198.24
1237.2
1285.66
1383.19
1488.25
1663.97
1946.28
2233.46
2520.5
2800.83
3062.86
3298.86
3507.31
3688.73
3844.34
3974.28
4075.62
4143.5
4185.46
4215.96
4236.21
4244.76
4244.12
4238.71
4230.46
4218.32
4200.28
4169.72
4124.05
4065.88
3992.34
3903.85
3803.31
3695.61
3582.12
3461.64
3335.61
3206.21
3075.87
2945.93
2816.93
2689.45
2563.78
2439.68
2316.3
2191.8
2063.72
1930.83
1794.55
1657.81
1522.85
1390.73
1262.02
1137.27
1017.06
901.916
792.259
688.345
590.218
497.293
408.172
322.265
240.792
162.054
62.9817
1447.33
1450.15
1447.1
1437.9
1415.83
1418.47
1423.6
1427.07
1427
1430.14
1438.83
1449.63
1461.78
1471.87
1478.12
1480.75
1480.2
1474.57
1463.01
1446.63
1427.35
1404.14
1376.61
1345.87
1313.19
1280.2
1248.4
1219.11
1193.37
1171.85
1154.85
1142.55
1135.96
1136.12
1146.39
1167.92
1203.79
1248.59
1343.08
1449.58
1629.81
1921.87
2214.41
2508.6
2794.98
3061.75
3301.46
3512.9
3696.81
3855.54
3989.57
4094
4162.93
4206.16
4238.48
4261.12
4272.39
4274.65
4272.12
4266
4255.68
4239.14
4209.81
4164.41
4104.94
4029.29
3938.21
3834.36
3722.34
3604.44
3480.36
3351.44
3219.44
3086.41
2953.74
2822.18
2692.33
2564.46
2438.3
2313.07
2187.22
2058.83
1926.95
1792.57
1657.75
1524.28
1393.19
1265.19
1140.93
1021.04
906.093
796.474
692.432
594.017
500.683
411.057
324.552
242.521
163.397
63.5034
1447.35
1450.36
1447.47
1438.61
1416.07
1418.47
1423.48
1426.62
1426.01
1429.45
1438.64
1449.88
1462.23
1472.1
1478.18
1480.74
1479.98
1474.15
1462.43
1445.71
1425.75
1401.61
1372.92
1340.78
1306.46
1271.65
1237.93
1206.69
1178.95
1155.36
1136.18
1121.51
1112.35
1109.8
1117.37
1136.44
1169.08
1210.59
1301.16
1409.76
1595.04
1896.67
2194.62
2496.48
2788.92
3060.45
3303.91
3518.41
3705.53
3868.59
4006.87
4113.93
4184.06
4229.18
4263.98
4289.73
4304.37
4310.06
4310.56
4306.6
4297.85
4282.24
4253.44
4207.76
4146.7
4068.77
3975.01
3867.83
3751.5
3629.02
3501.07
3369.04
3234.28
3098.46
2962.97
2828.68
2696.26
2565.97
2437.59
2310.42
2183.16
2054.29
1923.06
1790.07
1656.81
1524.65
1394.58
1267.35
1143.69
1024.27
909.656
800.225
696.197
597.622
503.985
413.933
326.886
244.387
164.997
64.0632
1447.37
1450.61
1447.91
1439.38
1416.41
1418.55
1423.39
1426.08
1425.16
1428.81
1438.61
1450.16
1462.66
1472.28
1478.21
1480.69
1479.73
1473.69
1461.78
1444.69
1424.01
1398.91
1369.06
1335.49
1299.49
1262.8
1227.07
1193.79
1163.99
1138.22
1116.74
1099.56
1087.71
1082.34
1087.15
1103.88
1133.15
1171.99
1257.66
1368.98
1559.83
1870.7
2174.16
2484.2
2782.63
3058.96
3306.19
3524.14
3715.62
3883.56
4025.74
4135.48
4207.3
4255.17
4293.13
4322.49
4340.88
4350.19
4353.65
4351.76
4344.28
4329.14
4300.34
4254.01
4191.18
4110.89
4014.35
3903.79
3783.16
3655.99
3523.94
3388.53
3250.78
3112
2973.49
2836.26
2701.06
2568.19
2437.48
2308.32
2179.62
2050.14
1919.22
1787.23
1655.18
1524.15
1395.04
1268.61
1145.64
1026.81
912.663
803.547
699.646
601.006
507.143
416.728
329.196
246.293
166.674
64.6091
1447.4
1450.91
1448.43
1440.16
1416.56
1418.63
1423.33
1425.61
1424.62
1428.38
1438.7
1450.47
1463.06
1472.42
1478.24
1480.61
1479.45
1473.2
1461.08
1443.57
1422.14
1396.04
1364.99
1329.99
1292.27
1253.65
1215.84
1180.43
1148.47
1120.44
1096.53
1076.72
1062.04
1053.75
1055.77
1070.32
1096.1
1133.16
1212.91
1327.7
1524.48
1844.08
2153.16
2471.81
2776.09
3057.23
3308.36
3530.69
3727.46
3900.18
4046.17
4158.86
4233.07
4284.6
4326.35
4359.7
4382.09
4395.05
4401.29
4401.22
4394.71
4379.66
4350.44
4303.2
4238.51
4155.79
4056.35
3942.31
3817.37
3685.47
3549.09
3409.98
3268.95
3126.94
2985.2
2844.83
2706.68
2571.11
2438.01
2306.85
2176.67
2046.44
1915.56
1784.2
1653.05
1522.95
1394.71
1269.1
1146.88
1028.73
915.152
806.439
702.74
604.099
510.071
419.353
331.395
248.125
168.233
65.0826
1447.45
1451.25
1449.02
1440.9
1416.67
1418.65
1423.21
1425.17
1424.29
1428.27
1438.87
1450.81
1463.44
1472.54
1478.24
1480.5
1479.14
1472.68
1460.32
1442.38
1420.16
1393.02
1360.72
1324.26
1284.81
1244.2
1204.26
1166.61
1132.4
1102.03
1075.57
1052.98
1035.35
1024.05
1023.29
1035.91
1058.07
1094.55
1167.5
1286.58
1489.35
1816.94
2131.77
2459.36
2769.27
3055.26
3310.9
3538.67
3740.96
3918.3
4068.29
4184.23
4261.71
4317.77
4363.89
4401.51
4428.06
4444.54
4453.32
4454.82
4448.98
4433.73
4403.81
4355.46
4288.83
4203.59
4101.1
3983.44
3854.16
3717.46
3576.56
3433.45
3288.79
3143.26
2998.04
2854.36
2713.15
2574.83
2439.31
2306.12
2174.41
2043.28
1912.16
1781.1
1650.55
1521.19
1393.73
1268.93
1147.49
1030.07
917.115
808.85
705.397
606.808
512.673
421.712
333.4
249.779
169.519
65.4362
1447.54
1451.64
1449.69
1441.6
1416.68
1418.47
1422.89
1424.77
1424.05
1428.39
1439.1
1451.16
1463.78
1472.64
1478.24
1480.37
1478.82
1472.13
1459.52
1441.11
1418.08
1389.84
1356.25
1318.28
1277.09
1234.47
1192.33
1152.39
1115.79
1082.97
1053.87
1028.35
1007.63
993.276
989.8
1000.82
1019.25
1056.59
1122.19
1246.43
1454.9
1789.48
2110.21
2446.91
2762.19
3053.28
3314.32
3548.13
3755.85
3937.97
4092.16
4211.76
4293.49
4354.82
4405.79
4447.88
4478.57
4498.43
4509.54
4512.41
4507.02
4491.35
4460.5
4410.85
4342.18
4254.31
4148.61
4027.17
3893.47
3751.95
3606.37
3458.95
3310.32
3160.95
3012.03
2864.91
2720.58
2579.47
2441.51
2306.23
2172.88
2040.66
1909.04
1777.97
1647.77
1518.96
1392.19
1268.14
1147.49
1030.81
918.491
810.697
707.524
609.039
514.861
423.731
335.142
251.183
170.458
65.6479
1447.65
1452.08
1450.41
1442.25
1416.43
1417.99
1422.38
1424.51
1423.89
1428.63
1439.38
1451.53
1464.1
1472.73
1478.23
1480.21
1478.48
1471.57
1458.67
1439.77
1415.89
1386.53
1351.58
1312.03
1269.08
1224.45
1180.08
1137.76
1098.67
1063.27
1031.41
1002.85
978.914
961.456
955.421
965.321
979.949
1019.59
1077.03
1207.9
1421.58
1761.94
2088.73
2434.43
2754.89
3051.77
3318.98
3558.88
3772.11
3959.28
4117.83
4241.57
4328.51
4395.69
4451.9
4498.54
4533.29
4556.39
4569.68
4573.79
4568.71
4552.45
4520.49
4469.35
4398.51
4307.86
4198.79
4073.41
3935.22
3788.87
3638.47
3486.49
3333.54
3180.04
3027.26
2876.61
2729.12
2585.18
2444.68
2307.2
2172.05
2038.53
1906.15
1774.81
1644.71
1516.28
1390.08
1266.73
1146.83
1030.88
919.194
811.887
709.037
610.718
516.576
425.36
336.582
252.306
171.059
65.7204
1447.78
1452.55
1451.18
1442.83
1416.03
1417.28
1421.83
1424.41
1423.87
1428.92
1439.68
1451.9
1464.39
1472.81
1478.2
1480.03
1478.12
1471
1457.8
1438.37
1413.62
1383.1
1346.72
1305.53
1260.75
1214.11
1167.48
1122.73
1081.08
1042.94
1008.2
976.493
949.231
928.655
920.314
929.718
940.635
983.987
1031.22
1171.13
1389.99
1734.6
2067.61
2421.96
2747.74
3051.17
3324.77
3570.76
3789.79
3982.2
4145.31
4273.81
4366.78
4440.24
4501.95
4553.16
4591.88
4618.11
4633.53
4638.79
4633.9
4616.92
4583.68
4530.85
4457.68
4364.11
4251.5
4122.04
3979.33
3828.14
3672.84
3516.07
3358.5
3200.63
3043.85
2889.62
2738.89
2591.99
2448.81
2308.95
2171.81
2036.76
1903.37
1771.51
1641.3
1513.1
1387.37
1264.65
1145.45
1030.2
919.146
812.357
709.884
611.809
517.789
426.583
337.705
253.148
171.374
65.6683
1447.92
1453.06
1451.98
1443.29
1415.51
1416.34
1421.38
1424.36
1424.03
1429.26
1440.01
1452.26
1464.66
1472.89
1478.17
1479.83
1477.76
1470.42
1456.89
1436.92
1411.28
1379.55
1341.7
1298.79
1252.1
1203.41
1154.54
1107.32
1063.02
1022.03
984.232
949.27
918.62
894.967
884.689
894.379
901.973
950.514
987.277
1134.83
1360.26
1707.87
2047.17
2409.7
2741.19
3051.53
3331.47
3583.77
3808.89
4006.69
4174.65
4308.53
4408.22
4488.3
4555.68
4611.46
4654.06
4683.36
4700.88
4707.25
4702.45
4684.63
4649.92
4595.21
4519.54
4422.88
4306.58
4172.95
4025.71
3869.71
3709.46
3547.7
3385.25
3222.83
3061.94
2904.03
2749.93
2599.89
2453.82
2311.35
2171.99
2035.18
1900.56
1767.96
1637.47
1509.34
1383.97
1261.8
1143.27
1028.71
918.303
812.074
710.047
612.301
518.497
427.397
338.508
253.721
171.453
65.5058
1448.08
1453.6
1452.77
1443.59
1414.87
1415.23
1421.1
1424.28
1424.28
1429.63
1440.35
1452.62
1464.91
1472.97
1478.11
1479.62
1477.4
1469.84
1455.97
1435.44
1408.87
1375.89
1336.51
1291.81
1243.12
1192.31
1141.2
1091.5
1044.48
1000.55
959.539
921.179
887.11
860.5
848.786
859.685
864.745
918.459
949.992
1100.93
1332.61
1682.02
2027.8
2398.01
2735.54
3052.71
3339.01
3597.95
3829.35
4032.72
4205.87
4345.75
4452.75
4539.75
4612.9
4673.22
4719.61
4751.96
4771.58
4779.03
4774.25
4755.47
4719.15
4662.34
4583.99
4484.06
4363.96
4226.11
4074.36
3913.6
3748.35
3581.43
3413.89
3246.77
3081.66
2919.91
2762.21
2608.78
2459.55
2314.23
2172.41
2033.63
1897.56
1764.04
1633.11
1504.94
1379.84
1258.16
1140.26
1026.39
916.656