/*--------------------------------*- C++ -*----------------------------------*\
| =========                 |                                                 |
| \\      /  F ield         | OpenFOAM: The Open Source CFD Toolbox           |
|  \\    /   O peration     | Version:  4.1                                   |
|   \\  /    A nd           | Web:      www.OpenFOAM.org                      |
|    \\/     M anipulation  |                                                 |
\*---------------------------------------------------------------------------*/
FoamFile
{
    version     2.0;
    format      ascii;
    class       surfaceScalarField;
    location    "1600";
    object      phi;
}
// * * * * * * * * * * * * * * * * * * * * * * * * * * * * * * * * * * * * * //

dimensions      [0 3 -1 0 0 0 0];

internalField   nonuniform List<scalar> 
52920
(
760.893
-253.094
1145.86
-384.973
1558.52
-412.684
1866.78
-308.289
2024.27
-157.544
2077.02
-52.7859
2076.89
0.0847707
2056.82
20.0398
2059.6
-2.8262
2109.01
-49.4487
2187.93
-78.9595
2266.91
-79.0252
2337.53
-70.6555
2392.9
-55.4113
2425.97
-33.1101
2472.5
-46.5733
2591.85
-119.382
2780.85
-189.037
2991.96
-211.147
3213.73
-221.799
3472.56
-258.855
3796.38
-323.847
4188.35
-391.992
4636.32
-447.99
5128.35
-492.04
5656.91
-528.58
6217.55
-560.65
6806.97
-589.435
7421.84
-614.877
8057.61
-635.782
8707.28
-649.682
9360.22
-652.951
10001.6
-641.443
10612.7
-611.09
11171.5
-558.747
11654.2
-482.776
12037.1
-382.83
12300
-262.917
12422.5
-122.554
12408.6
13.9003
12260.8
147.753
11993.9
266.922
11650
343.924
11261.6
388.321
10849.5
412.172
10429.8
419.615
10018.2
411.667
9628.23
389.93
9272.32
355.892
8961.73
310.589
8706.1
255.624
8511.91
194.184
8380.9
130.997
8309.52
71.3876
8289.56
19.9468
8309.06
-19.4954
8352.45
-43.4049
8400.36
-47.9005
8430.93
-30.5784
8423.81
7.12376
8365.43
58.374
8254.25
111.186
8106.14
148.109
7966.83
139.323
7904.32
62.5029
7949.07
-44.7355
8095.89
-146.823
8170.96
-75.0657
8069.86
101.105
7939.19
130.673
7906.74
32.4519
7943.78
-37.0366
7925.08
18.7035
7602.48
322.6
7335.44
267.036
6997.1
338.344
6929.58
67.5263
7586.71
-657.134
8204
-617.287
9270.86
-1066.86
10569.1
-1298.24
12151.4
-1582.3
14029.4
-1878.01
16034.6
-2005.15
17837.7
-1803.16
19024.3
-1186.58
19483.3
-459.033
19335.7
147.672
18491.7
843.944
16748.9
1742.85
14301.8
2447.07
11736.1
2565.68
9690.67
2045.45
8429.53
1261.15
7251.55
1177.99
6735.47
516.075
7772.66
-1037.18
9333.48
-1560.83
11478.7
-2145.24
-1978.28
810.964
-520.66
1172.82
-746.829
1551.96
-791.845
1847.1
-603.457
2015.79
-326.285
2091.56
-128.594
2111.32
-19.7207
2097.42
33.9047
2091.01
3.54393
2124.71
-83.1898
2190.85
-145.141
2262.67
-150.885
2330.03
-138.064
2384.3
-109.718
2414.66
-63.5123
2453.11
-85.0717
2561.4
-227.706
2741.37
-369.043
2946.66
-416.465
3162.46
-437.631
3411.6
-508.023
3721.34
-633.612
4096.31
-766.98
4524.93
-876.634
4993.95
-961.075
5494.99
-1029.64
6025.38
-1091.05
6585.76
-1149.83
7176.6
-1205.73
7795.24
-1254.44
8434.44
-1288.89
9082.11
-1300.63
9721.87
-1281.22
10333.7
-1222.97
10895.1
-1120.15
11382.2
-969.873
11771
-771.612
12041.4
-533.336
12173.6
-254.811
12169.4
18.1719
12032.5
284.602
11780.5
518.949
11450.8
673.597
11074.7
764.373
10672.6
814.263
10260.8
831.497
9854.21
818.196
9466.66
777.478
9110.29
712.246
8796.31
624.566
8534.33
517.592
8331.05
397.468
8188.74
273.291
8104.75
155.378
8071.94
52.7548
8079.41
-26.9703
8112.22
-76.2222
8150.34
-86.0155
8171.62
-51.8582
8156.2
22.547
8091.57
122.997
7978.3
224.465
7834
292.411
7704.28
269.05
7649.9
116.882
7703.71
-98.5394
7851.63
-294.732
7897.43
-120.859
7782.57
215.963
7666.15
247.102
7640.91
57.6916
7686.04
-82.157
7705.58
-0.837583
7464.01
564.172
7034.95
696.096
6808.56
564.74
6744.07
132.012
6922.25
-835.318
7447.89
-1142.92
8411.83
-2030.81
9603.96
-2490.38
11084
-3062.35
12880
-3674
14881.1
-4006.26
16768.1
-3690.13
18044.4
-2462.9
18532.6
-947.284
18337.2
343.14
17407.4
1773.75
15543.3
3606.95
12914.8
5075.51
10185
5295.48
8206.33
4024.16
7526.94
1940.55
7182.43
1522.49
6424.08
1274.44
6362.86
-975.96
7544.7
-2742.66
8869.41
-3469.96
-3268.59
847.298
-786.777
1182.75
-1082.29
1536.4
-1145.52
1820.82
-887.895
1993.79
-499.311
2082.62
-217.461
2115.5
-52.6397
2105.98
43.3915
2091.01
18.4699
2110.52
-102.743
2166.65
-201.309
2235.31
-219.582
2303.59
-206.383
2359.45
-165.61
2387.57
-91.6703
2416.39
-113.933
2510.86
-322.21
2678.56
-536.782
2874.26
-612.196
3080.06
-643.456
3316.03
-744.014
3609.16
-926.766
3963.8
-1121.64
4367.32
-1280.18
4807.69
-1401.45
5281.55
-1503.51
5791.96
-1601.47
6341.88
-1699.76
6929.83
-1793.69
7549.29
-1873.91
8189.84
-1929.45
8837.97
-1948.78
9477.32
-1920.58
10088.5
-1834.13
10649.5
-1681.14
11136.8
-1457.23
11526.6
-1161.4
11798.6
-805.38
11933.6
-389.794
11931
20.7371
11795.6
419.968
11548.2
766.421
11223
998.741
10850.5
1136.92
10450.7
1214.02
10039.8
1242.34
9632.71
1225.32
9242.61
1167.58
8881.48
1073.35
8560.38
945.672
8288.78
789.178
8073.4
612.847
7916.8
429.882
7816.9
255.28
7767.46
102.188
7758.71
-18.2235
7776.48
-94.0041
7800.72
-110.253
7809.5
-60.643
7783.64
48.4172
7711.91
194.719
7596.78
339.598
7456.24
432.956
7336.13
389.161
7292.87
160.145
7365.82
-171.485
7531.31
-460.223
7560
-149.537
7441.89
334.067
7348.65
340.347
7338.95
67.3958
7403.12
-146.319
7462.53
-60.2527
7374.07
652.633
6835.98
1234.19
6847.5
553.225
6901.97
77.5378
6449.22
-382.562
6845.82
-1539.53
7589.92
-2774.9
8498.49
-3398.95
9749.58
-4313.44
11421.3
-5345.75
13405.8
-5990.78
15334.8
-5619.08
16597.2
-3725.34
16992.8
-1342.85
16662.6
673.309
15638.9
2797.48
13761.6
5484.31
11160.9
7676.18
8476.41
7979.96
6771.1
5729.46
7004.69
1706.96
8252.94
274.245
7645.58
1881.8
5151.49
1518.13
3593.93
-1185.1
3402.02
-3278.05
-3286.41
867.638
-1040.12
1182.22
-1396.87
1521.82
-1485.14
1800.78
-1166.87
1975.71
-674.294
2071.05
-312.832
2109.8
-91.4346
2100.25
52.9075
2076.67
42.0032
2085.36
-111.473
2135.76
-251.75
2204.3
-288.165
2275.17
-277.295
2333.48
-223.96
2359.94
-118.174
2379
-133.039
2458.42
-401.665
2612.26
-690.661
2796.53
-796.498
2990.24
-837.19
3210.89
-964.686
3484.4
-1200.3
3814.57
-1451.83
4191.54
-1657.17
4609.85
-1819.77
5071.47
-1965.15
5578.92
-2108.93
6130.09
-2250.94
6718.6
-2382.21
7336
-2491.33
7972.48
-2565.94
8615.95
-2592.26
9251.09
-2555.73
9858.95
-2442
10417.6
-2239.78
10903.3
-1942.99
11292
-1550.06
11563.1
-1076.5
11697.7
-524.433
11693.5
24.9478
11556.1
557.354
11309.7
1012.78
10986.1
1322.35
10614.3
1508.76
10214.1
1614.19
9801.58
1654.86
9391.19
1635.68
8995.99
1562.79
8627.73
1441.6
8297.38
1276.02
8014.4
1072.14
7785.49
841.763
7613.26
602.093
7495.92
372.627
7427.84
170.25
7400.17
9.45108
7399.41
-93.2501
7406.05
-116.887
7398.66
-53.2638
7358.55
88.5322
7276.4
276.875
7157.1
458.905
7018.41
571.64
6907.12
500.46
6875.34
191.923
6975.32
-271.452
7166.09
-650.988
7180.8
-164.24
7076.84
438.032
7025.72
391.476
7038.97
54.1528
7129.9
-237.247
7229.72
-160.078
7430.69
451.669
6882.52
1782.36
6293.41
1142.34
6335.57
35.3698
6085.18
-132.176
6325.42
-1779.77
6648.05
-3097.53
7170.89
-3921.79
8166.32
-5308.88
9691.25
-6870.67
11622.6
-7922.16
13559.2
-7555.62
14768.5
-4934.7
15045.9
-1620.27
14574.8
1144.45
13440
3932.29
11546.8
7377.54
9043.04
10179.9
6494.9
10528.1
4330.93
7893.44
2304.28
3733.62
176.472
2402.05
-1101.3
3159.58
-1727.06
2143.89
-2151.61
-760.545
-2630.01
-2799.65
-2911.36
875.038
-1275.96
1175.57
-1697.4
1510.47
-1820.05
1788.35
-1444.78
1964.93
-850.918
2063.18
-411.113
2101.88
-130.18
2088.06
66.691
2056.73
73.2912
2058.09
-112.874
2103.89
-297.578
2169.88
-354.19
2239.94
-347.402
2298.27
-282.326
2322.18
-142.127
2331.94
-142.831
2397.19
-466.95
2538.31
-831.815
2711.96
-970.173
2893.52
-1018.78
3097.59
-1168.78
3349.42
-1452.16
3655.76
-1758.18
4013.61
-2015.05
4422.43
-2228.6
4882.25
-2424.98
5389.48
-2616.18
5937.71
-2799.18
6520.26
-2964.77
7130.5
-3101.57
7760.25
-3195.7
8398.11
-3230.13
9028.76
-3186.39
9632.98
-3046.23
10188.6
-2795.38
10671.6
-2426.06
11057.6
-1936.05
11325.7
-1344.58
11457.3
-656.093
11448.1
34.1327
11305.1
700.379
11056.6
1261.26
10732.2
1646.78
10359.5
1881.44
9957.97
2015.7
9543.32
2069.5
9129.57
2049.41
8729.29
1963.06
8354.01
1816.87
8014.61
1615.41
7720.61
1366.14
7478.7
1083.68
7291.48
789.298
7157.15
506.959
7070.49
256.898
7023.32
56.6226
7002.74
-72.6839
6989.94
-104.084
6963.96
-27.2854
6906.34
146.155
6810.34
372.873
6684.5
584.751
6546.52
709.611
6444.65
602.345
6425.7
210.87
6561.08
-406.821
6771.73
-861.639
6769.54
-162.043
6719.91
487.663
6752.2
359.185
6791.12
15.2356
6894.32
-340.443
6966.86
-232.617
7469.17
-50.6446
9143.84
107.699
8576.62
1709.56
6620.49
1991.49
6197.73
290.591
6179.14
-1761.18
5649.4
-2567.8
5768.66
-4041.05
6448.38
-5988.6
7755.29
-8177.58
9573.02
-9739.89
11451.9
-9434.46
12550.6
-6033.46
12705.3
-1774.93
12134.4
1715.38
10912.3
5154.33
9008.79
9281.06
6640.98
12547.7
4081.55
13087.5
1683.12
10291.9
-402.909
5819.65
-2309.82
4308.96
-3406.56
4256.32
-4020.74
2758.07
-4814.97
33.6885
-5701.15
-1913.47
-2245.64
872.233
-1492.53
1167.58
-1992.74
1505.25
-2157.74
1784.33
-1723.88
1961.9
-1028.53
2060.49
-509.736
2094.71
-164.447
2073.71
87.657
2035.4
111.561
2030.26
-107.779
2068.82
-336.181
2127.03
-412.438
2191.38
-411.796
2246.52
-337.505
2266.61
-162.262
2267.81
-144.079
2320.97
-520.15
2452.08
-962.963
2617.25
-1135.37
2787.82
-1189.38
2976.08
-1357.06
3208.57
-1684.68
3497.64
-2047.26
3845.76
-2363.19
4251.25
-2634.1
4708.43
-2882.17
5210.05
-3117.81
5750.21
-3339.35
6324.4
-3538.97
6927.36
-3704.55
7551.19
-3819.54
8184.21
-3863.16
8810.82
-3813.01
9411.62
-3647.04
9964.19
-3347.97
10444.4
-2906.23
10827.1
-2318.83
11091.1
-1608.55
11218.3
-783.273
11201.5
50.8476
11049.5
852.44
10795.3
1515.45
10466.7
1975.33
10090.3
2257.8
9685.22
2420.82
9266.85
2487.87
8848.78
2467.46
8443.05
2368.79
8060.83
2199.09
7712.9
1963.34
7408.83
1670.2
7155.31
1337.19
6954.84
989.761
6805.34
656.458
6701.7
360.53
6636.29
122.028
6596.77
-33.168
6564.42
-71.7268
6518.52
18.6108
6440.97
223.705
6328.16
485.682
6194.27
718.646
6058.61
845.271
5969.46
691.513
5971.58
208.748
6149.92
-585.154
6348.83
-1060.55
6322.09
-135.286
6430.67
379.082
6654.5
135.361
6694.46
-24.7205
6708.95
-354.929
6629.32
-152.987
5445.71
1132.97
2805.17
2748.24
580.877
3933.85
-254.849
2827.22
626.15
-590.409
1760.04
-2895.07
2312.9
-3120.66
3293.67
-5021.82
4420.14
-7115.07
5639.14
-9396.58
7218.7
-11319.5
8914.68
-11130.4
9886.86
-7005.64
9957.57
-1845.64
9342.43
2330.52
8079.56
6417.2
6229.51
11131.1
3968.73
14808.5
1554.94
15501.3
-632.688
12479.5
-2760.41
7947.37
-4217.86
5766.42
-4432.08
4470.54
-4318.05
2644.04
-4808.67
524.312
-5788.78
-933.367
-1444.88
862.713
-1699
1162.05
-2292.09
1506.27
-2501.97
1786.08
-2003.71
1963.15
-1205.64
2060.06
-606.673
2087.09
-191.524
2057.51
117.211
2012.61
156.414
2000.44
-95.6448
2029.2
-364.977
2076.54
-459.818
2132.45
-467.739
2181.7
-386.793
2195.94
-176.549
2188.25
-136.424
2230.18
-562.12
2353.02
-1085.83
2511.84
-1294.21
2674.29
-1351.85
2850.72
-1533.52
3069.3
-1903.27
3347.41
-2325.39
3689.53
-2705.32
4090.1
-3034.69
4540.04
-3332.12
5032.58
-3610.35
5563.89
-3870.68
6130.6
-4105.68
6727.42
-4301.38
7346.07
-4438.2
7974.67
-4491.76
8597.55
-4435.9
9195.18
-4244.67
9744.98
-3897.77
10222.4
-3383.62
10601.8
-2698.24
10860.9
-1867.7
10982.6
-904.993
10956.2
77.3027
10792
1016.57
10529
1778.44
10193.5
2310.81
9810.85
2640.48
9399.82
2831.85
8975.88
2911.8
8552.14
2891.17
8140.09
2780.85
7750.53
2588.64
7394.2
2319.67
7080.76
1983.63
6816.99
1600.96
6605.19
1201.55
6442.76
818.887
6324.37
478.916
6242.77
203.624
6186.03
23.5655
6134.85
-20.542
6068.5
84.9553
5969.04
323.164
5836.34
618.382
5693.54
861.45
5566.75
972.058
5500
758.273
5546.13
162.612
5763.99
-803.005
5870.53
-1167.08
5806.78
-71.5293
6455.24
-269.387
7628.23
-1037.62
7555.12
48.3852
5640.04
1560.16
3066.94
2420.11
907.08
3292.83
-526.947
4182.27
-1037.1
4444.01
-1381.27
3171.38
-1376.74
-594.93
-1046.41
-3225.41
-685.234
-3481.83
-50.225
-5656.82
1043.61
-8208.9
2624.13
-10977.1
4430.2
-13125.5
6035.11
-12735.3
7198.07
-8168.6
7470.83
-2118.4
6846.83
2954.51
5278.86
7985.18
3139.3
13270.7
939.981
17007.8
-972.038
17413.3
-2707.98
14215.4
-4215.17
9454.57
-4416.66
5967.9
-3728.58
3782.46
-3425.58
2341.05
-3971.89
1070.63
-4897.83
-7.42801
-698.839
851.152
-1900.59
1160.28
-2601.21
1511.02
-2852.73
1789.3
-2282.02
1964.01
-1380.39
2057.32
-700.023
2075.82
-210.066
2038
154.995
1987.45
206.921
1967.95
-76.1963
1985.8
-382.867
2022.27
-496.324
2070.04
-515.548
2111.8
-428.602
2117.01
-181.811
2098.21
-117.681
2127.62
-591.563
2242.4
-1200.65
2398.06
-1449.91
2557.87
-1511.69
2727.31
-1702.98
2935.2
-2111.19
3204.19
-2594.39
3539.33
-3040.48
3931.94
-3427.32
4372.46
-3772.65
4855.86
-4093.77
5379.43
-4394.25
5939.65
-4665.91
6530.84
-4892.59
7144.58
-5051.95
7769
-5116.19
8388.48
-5055.39
8983.38
-4839.58
9530.88
-4445.28
10005.9
-3858.63
10382.1
-3074.48
10636.1
-2121.7
10751.9
-1020.81
10713.8
115.427
10534.7
1195.66
10259.9
2053.16
9914.81
2655.93
9523.22
3032.06
9104.03
3251.04
8672.77
3343.04
8242.12
3321.8
7822.92
3200.05
7425.57
2985.98
7060.75
2684.49
6738.4
2305.97
6465.47
1873.89
6244.08
1422.93
6070.83
992.137
5939.88
609.854
5844.16
299.349
5771.94
95.7776
5702.86
48.5398
5615.89
171.92
5492.34
446.724
5335.47
775.253
5182.29
1014.64
5079.64
1074.71
5060.97
776.958
5202.42
21.1606
5424.3
-1024.87
5282.89
-1025.67
4515.22
696.138
2865.41
1380.43
520.417
1307.37
-814.267
1383.07
-842.248
1588.14
-729.491
2307.35
-981.12
3544.46
-1347.99
4549.13
-1415.95
4511.97
-1537.27
3292.7
-1964.28
-167.925
-2250.61
-2939.08
-2100.77
-3631.67
-1858.44
-5899.15
-1353.23
-8714.11
-506.069
-11824.3
692.486
-14324.1
2112.64
-14155.5
3777.44
-9833.4
3967.59
-2308.55
2845.15
4076.96
1078.63
9751.69
-634.714
14984
-2039.6
18412.7
-3200.57
18574.3
-4368.81
15383.7
-5168.56
10254.3
-5177.53
5976.87
-5381.52
3986.46
-6080.43
3039.96
-6880.09
1870.29
-7652.15
764.642
-13.0947
839.434
-2103.01
1161.72
-2923.5
1516.18
-3207.2
1789.89
-2555.74
1960.67
-1551.2
2049.24
-788.622
2058.68
-219.551
2013.58
200.063
1958.58
261.882
1931.71
-49.3679
1938.14
-389.329
1965.44
-523.665
2007.68
-557.823
2041.63
-462.589
2034.68
-174.911
2001.94
-84.9838
2015.77
-605.425
2121.93
-1306.84
2279.34
-1607.34
2442.02
-1674.39
2605.82
-1866.8
2802.76
-2308.15
3062.78
-2854.43
3390.3
-3368.01
3774.13
-3811.15
4205.52
-4204.05
4680.85
-4569.11
5197.51
-4910.92
5751.62
-5220.03
6337.34
-5478.32
6946.32
-5660.94
7566.84
-5736.72
8183.35
-5671.91
8776.06
-5432.31
9321.9
-4991.12
9795.1
-4331.83
10168.6
-3448.02
10417.4
-2370.53
10527.3
-1130.64
10475.8
166.889
10279.1
1392.35
9989.68
2342.57
9632.16
3013.44
9229.01
3435.21
8799.3
3680.74
8358.91
3783.42
7920.12
3760.58
7493.06
3627.11
7087.57
3391.45
6714.25
3057.81
6383.34
2636.87
6102.15
2155.08
5872.67
1652.4
5690.45
1174.36
5548.87
751.417
5440.84
407.388
5354.73
181.877
5268.63
134.637
5160.84
279.705
5010.3
597.262
4822.43
963.124
4653.79
1183.28
4606.8
1121.7
4700.8
682.972
5032.4
-310.439
5137.86
-1130.33
4538.44
-426.25
3190.86
2043.72
1179.88
3391.41
-561.599
3048.86
-1237.64
2059.11
-1322.29
1672.78
-1448.83
2433.9
-1686.9
3782.53
-1904.52
4766.76
-2026.36
4633.8
-2280.33
3546.68
-3014.93
566.681
-3611.93
-2342.07
-3687.34
-3556.26
-3690.3
-5896.19
-3509.51
-8894.9
-3121.75
-12212
-2547.4
-14898.4
-1882.48
-14820.4
-1469.06
-10246.8
-1448.09
-2329.52
-2003.91
4632.78
-3014.71
10762.5
-4017.41
15986.7
-4700.09
19095.4
-5200.2
19074.4
-5783.9
15967.4
-6299.68
10770.1
-6822.91
6500.1
-7592.31
4755.86
-8270.29
3717.93
-8820.09
2420.09
-9412.59
1357.15
618.524
829.014
-2311.91
1164.88
-3259.37
1518.44
-3560.77
1784.69
-2822.01
1950.65
-1717.19
2034.32
-872.328
2034.81
-220.082
1983.53
251.3
1925.42
319.951
1890.78
-14.7803
1884.85
-383.435
1904.85
-543.704
1944.08
-597.099
1969.86
-488.415
1949.34
-154.447
1901.09
-36.7903
1896.82
-601.206
1993.14
-1403.19
2153.73
-1767.97
2318.86
-1839.55
2476.08
-2024.04
2664.92
-2497.01
2919.78
-3109.31
3241.26
-3689.51
3616.93
-4186.84
4040.07
-4627.2
4508.06
-5037.11
5018.13
-5421.01
5566.18
-5768.09
6146.46
-6058.6
6750.83
-6265.31
7367.74
-6353.64
7981.71
-6285.89
8572.83
-6023.43
9117.69
-5535.99
9589.8
-4803.96
9961.28
-3819.51
10205.2
-2614.42
10308.7
-1234.2
10242.3
233.246
10026.5
1608.15
9719.89
2649.21
9347.16
3386.16
8929.69
3852.67
8486.97
4123.46
8035.41
4234.97
7587.07
4208.9
7151.39
4062.79
6737.49
3805.34
6355.69
3439.62
6016.59
2975.95
5728
2443.66
5491.84
1888.55
5302.3
1363.91
5151.76
901.952
5032.93
526.219
4934.33
280.468
4832.02
236.953
4703.19
408.532
4522.01
778.449
4292.06
1193.07
4092.41
1382.94
4177.53
1036.58
4721.71
138.8
5405.95
-994.674
5153.08
-877.452
4226
500.832
2892.24
3377.48
1011.84
5271.81
-660.822
4721.52
-1666.33
3064.62
-2144.21
2150.66
-2460.89
2750.58
-2725.93
4047.57
-2930.66
4971.48
-3153.62
4856.76
-3440.93
3834
-4173.12
1298.87
-4882.02
-1633.18
-5124.59
-3313.69
-5332.73
-5688.05
-5466.29
-8761.34
-5535.16
-12143.2
-5523.41
-14910.2
-5391.31
-14952.5
-5333.38
-10304.7
-5522.88
-2140.02
-6041.85
5151.75
-6649.13
11369.8
-7050.61
16388.2
-7126.5
19171.3
-7082.33
19030.2
-7212.88
16097.9
-7696.24
11253.5
-8524.59
7328.45
-9269.38
5500.65
-9732.47
4181.03
-10174.6
2862.18
-10675.1
1857.7
1168.06
820.66
-2537.24
1167.4
-3606.11
1514.84
-3908.23
1771.67
-3078.86
1932.29
-1877.85
2010.97
-951.033
2002.81
-211.962
1946.94
307.135
1887.71
379.144
1845.54
27.3471
1826.5
-364.434
1840.24
-557.474
1877.34
-634.241
1893.56
-504.671
1858.75
-119.685
1795.5
26.4135
1773
-578.751
1853.85
-1484.07
2007.63
-1921.78
2169.58
-2001.52
2326.74
-2181.22
2519.56
-2689.86
2776.13
-3365.88
3093.08
-4006.48
3461.02
-4554.79
3876.45
-5042.64
4337.42
-5498.09
4840.93
-5924.53
5382.87
-6310.04
5957.71
-6633.44
6557.57
-6865.18
7171.1
-6967.19
7782.95
-6897.74
8373.01
-6613.5
8917.6
-6080.59
9389.37
-5275.73
9759.57
-4189.71
9998.88
-2853.74
10096
-1331.33
10013.4
315.786
9777.71
1843.88
9451.95
2974.97
9061.42
3776.68
8626.85
4287.24
8168.38
4581.93
7703.32
4700.03
7243.79
4668.41
6798.59
4508
6375.92
4227.99
5985.66
3829.88
5638.75
3322.85
5343.64
2738.77
5102.25
2129.93
4906.97
1559.19
4748.93
1059.98
4620.6
654.545
4510.81
390.253
4393.21
354.554
4243.44
558.288
4027.53
994.367
3738.64
1481.96
3430.71
1690.87
2811.77
1655.52
1466.67
1483.9
300.185
171.809
341.768
-919.031
1527.89
-685.29
1891.43
3013.94
670.267
6492.97
-1003.38
6395.17
-2434.49
4495.73
-3344.83
3061
-3870.25
3276
-4145.76
4323.08
-4302.22
5127.95
-4487.76
5042.29
-4673.32
4019.57
-5289.75
1915.3
-6041.75
-881.178
-6391.86
-2963.59
-6752.53
-5327.38
-7147.42
-8366.45
-7614.41
-11676.2
-8119.15
-14405.4
-8492.19
-14579.5
-8710.6
-10086.3
-8957.9
-1892.72
-9329.84
5523.69
-9583.06
11623
-9581.39
16386.5
-9294.54
18884.4
-8918.58
18654.3
-8757.96
15937.3
-9120.09
11615.6
-9785.11
7993.47
-10218.3
5933.82
-10478.4
4441.11
-10814.5
3198.31
-11228.3
2271.48
1651.62
815.028
-2776.48
1166.29
-3957.38
1502.9
-4244.85
1749.26
-3325.23
1904.43
-2033.05
1978.26
-1024.89
1962.08
-195.832
1903.11
366.066
1845.15
437.061
1797.97
74.4737
1767.33
-333.832
1774.81
-565.003
1807.98
-667.446
1811.59
-508.336
1761.4
-69.5539
1686.36
101.39
1646.65
-539.089
1700.24
-1537.7
1832.54
-2054.11
1992.01
-2161.02
2164.15
-2353.38
2373.17
-2898.89
2634.26
-3627
2946.18
-4318.41
3306.43
-4915.05
3714.51
-5450.72
4168.59
-5952.17
4665.48
-6421.43
5201.21
-6845.78
5770.54
-7202.78
6365.91
-7460.56
6976.23
-7577.52
7586.26
-7507.78
8175.75
-7203
8720.74
-6625.58
9192.9
-5747.91
9562.61
-4559.43
9797.68
-3088.82
9888.82
-1422.48
9789.19
415.404
9532.59
2100.47
9186.09
3321.46
8775.62
4187.15
8321.46
4741.39
7844.65
5058.74
7363.68
5180.98
6891.14
5140.94
6435.29
4963.85
6003.35
4659.92
5604.54
4228.7
5250.15
3677.22
4949.46
3039.47
4704.39
2374.98
4504.99
1758.6
4340.83
1224.13
4204.14
791.244
4084.45
509.93
3952.98
486.034
3783.41
727.852
3529.91
1247.87
3166.35
1845.51
2601.69
2255.55
1626.61
2630.59
284.669
2825.85
-879.858
1336.34
-873.111
-925.772
-340.553
-1217.85
-12.0744
2685.46
-233.375
6714.27
-1539.69
7701.49
-3114.6
6070.65
-4373.98
4320.37
-5109.32
4011.34
-5417.06
4630.82
-5543.07
5253.96
-5674.03
5173.25
-5835.59
4181.13
-6347.36
2427.07
-7058.28
-170.267
-7482.26
-2539.6
-7946.47
-4863.17
-8541.27
-7771.65
-9325.65
-10891.8
-10272.1
-13458.9
-11107.8
-13743.8
-11512.7
-9681.47
-11608.1
-1797.33
-11766
5681.58
-11822.7
11679.7
-11635.3
16199.1
-11200.1
18449.2
-10653.4
18107.6
-10268.6
15552.5
-10341.6
11688.6
-10659.1
8310.93
-10896.2
6170.95
-11157.6
4702.55
-11530.1
3570.82
-11958.7
2700.1
2125.63
809.737
-3028.32
1159.12
-4306.77
1480.47
-4566.21
1715.91
-3560.69
1865.83
-2182.99
1935.16
-1094.25
1912.18
-172.898
1851.77
426.446
1797.82
490.976
1750.37
121.884
1713.66
-297.16
1716.1
-567.48
1739.24
-690.629
1723.17
-492.308
1657.02
-3.45127
1577.28
181.082
1525.16
-487.012
1547.73
-1560.31
1657.55
-2163.96
1819.18
-2322.68
2009.09
-2543.3
2231.63
-3121.46
2493.86
-3889.24
2799.86
-4624.43
3152.87
-5268.07
3553.96
-5851.82
4001.18
-6399.4
4491.33
-6911.59
5020.69
-7375.14
5584.37
-7766.46
6175.2
-8051.4
6782.39
-8184.71
7390.87
-8116.27
7980.25
-7792.38
8526.27
-7171.61
8999.53
-6221.17
9369.54
-4929.45
9600.6
-3319.88
9686.32
-1508.2
9568.7
533.014
9290.28
2378.88
8921.58
3690.14
8489.5
4619.22
8013.89
5216.99
7516.57
5556.05
7017.47
5680.07
6529.98
5628.41
6062.19
5431.63
5620.28
5101.83
5212.64
4636.34
4851.02
4038.84
4545.71
3344.77
4298.73
2621.95
4096.9
1960.43
3927.96
1393.05
3783.88
935.327
3655.69
638.106
3512.51
629.215
3325.61
914.749
3035.05
1538.43
2581.98
2298.57
1852.08
2985.45
813.391
3669.27
-225.502
3864.75
-826.087
1936.92
-580.1
-1171.76
-569.189
-1228.76
-729.812
2846.09
-896.848
6881.3
-1925.89
8730.53
-3498.99
7643.75
-5024.9
5846.29
-5976.74
4963.18
-6369.96
5024.04
-6527.88
5411.88
-6663.83
5309.2
-6868.48
4385.79
-7292.88
2851.47
-7922.64
459.498
-8407.99
-2054.25
-8936.86
-4334.3
-9666.41
-7042.1
-10670.5
-9887.66
-11950.7
-12178.8
-13217.2
-12477.3
-13937.9
-8960.81
-13974.3
-1760.83
-13877.1
5584.36
-13734.3
11536.9
-13395
15859.7
-12830.4
17884.6
-12126.9
17404.2
-11521.1
14946.7
-11295.2
11462.7
-11373.5
8389.26
-11565.6
6362.97
-11848.8
4985.84
-12200.6
3922.62
-12590.2
3089.61
2550.07
803.626
-3289.69
1143.57
-4646.71
1445.43
-4868.09
1669.95
-3785.22
1815.59
-2328.66
1881.4
-1160.1
1853.34
-144.889
1793.66
486.087
1746.45
538.142
1703.3
164.982
1669.21
-263.119
1672.61
-570.92
1679.79
-697.853
1632.51
-445.091
1548.16
80.8452
1472.22
256.953
1422.08
-436.933
1429.01
-1567.27
1522.17
-2257.15
1676.14
-2476.67
1867.66
-2734.85
2092.85
-3346.67
2353.05
-4149.45
2653.6
-4924.99
3000.15
-5614.64
3394.52
-6246.2
3834.84
-6839.73
4318.09
-7394.85
4840.86
-7897.92
5398.69
-8324.31
5984.88
-8637.59
6589
-8788.84
7196.21
-8723.49
7785.95
-8382.13
8333.67
-7719.33
8808.73
-6696.24
9179.81
-5300.54
9407.01
-3547.09
9487.81
-1589.01
9350.97
669.841
9049.71
2680.13
8657.71
4082.13
8202.87
5074.05
7704.31
5715.55
7184.68
6075.68
6665.44
6199.3
6161.16
6132.68
5680.05
5912.75
5227.25
5554.61
4810.34
5053.26
4441.58
4407.59
4132.68
3653.67
3885.75
2868.87
3683.3
2162.88
3510.9
1565.44
3360.36
1085.87
3225.39
773.077
3074.33
780.27
2875.33
1113.75
2554.69
1859.09
2014.11
2839.14
1194.4
3805.17
219.011
4644.66
-659.026
4742.79
-1175.71
2453.6
-1205.14
-1142.31
-1346.24
-1087.66
-1449.22
2949.07
-1569.69
7001.77
-2331.27
9492.1
-3812.24
9124.72
-5479.49
7513.54
-6602.92
6086.61
-7107.11
5528.23
-7331.22
5636
-7498.62
5476.6
-7718.75
4605.91
-8075.13
3207.85
-8654.32
1038.69
-9186.78
-1521.79
-9750.18
-3770.91
-10553.8
-6238.53
-11680
-8761.46
-13157.3
-10701.4
-14745
-10889.6
-15857.6
-7848.16
-16088.1
-1530.35
-15867.6
5363.83
-15491.7
11161
-14912.7
15280.8
-14119.2
17091.1
-13212.7
16497.6
-12424.3
14158.3
-12020
11058.4
-11981.7
8350.94
-12119.1
6500.33
-12332.1
5198.86
-12599.8
4190.34
-12921.2
3410.96
2925.52
795.029
-3555.59
1117.69
-4969.38
1396.57
-5146.98
1610.38
-3999.03
1753.37
-2471.68
1817.8
-1224.56
1786.91
-114.038
1730.37
542.596
1691.44
577.025
1655.26
201.121
1632.14
-240.034
1643.51
-582.325
1632.14
-686.531
1542.61
-355.61
1435.14
188.276
1367.36
324.687
1333.82
-403.447
1340.2
-1573.69
1414
-2330.98
1547.58
-2610.27
1730.87
-2918.16
1954.29
-3570.11
2211.74
-4406.92
2507.52
-5220.78
2848.17
-5955.3
3235.95
-6633.98
3669.26
-7273.06
4145.4
-7871
4661.34
-8413.87
5213.13
-8876.1
5794.59
-9219.06
6395.75
-9390.01
7002.04
-9329.79
7592.7
-8972.79
8142.87
-8269.5
8620.51
-7173.89
8993.42
-5673.46
9216.79
-3770.46
9293.02
-1665.25
9135.42
827.428
8810.23
3005.32
8393.95
4498.4
7915.38
5552.61
7392.57
6238.35
6849.09
6619.15
6308.05
6740.34
5785.35
6655.36
5289.57
6408.53
4824.89
6019.27
4398.04
5480.11
4022.1
4783.52
3710.67
3965.11
3466.02
3113.5
3264.83
2364.08
3090
1740.25
2933.4
1242.47
2793.16
913.31
2639.46
933.966
2435.38
1317.82
2091.25
2203.22
1487.48
3442.9
640.254
4652.4
-282.938
5567.85
-1160.88
5620.73
-1927.19
3219.92
-2595.26
-474.244
-2973.21
-709.716
-2861.82
2837.68
-2809.78
6949.73
-3278.27
9960.6
-4504.2
10350.6
-6029.45
9038.78
-7144.89
7202.05
-7717.42
6100.77
-8004.22
5922.8
-8198.57
5670.95
-8413.72
4821.06
-8710.33
3504.47
-9244.12
1572.48
-9817.96
-947.943
-10394
-3194.86
-11222.3
-5410.26
-12390.9
-7592.81
-13934.1
-9158.26
-15668.3
-9155.34
-17060.2
-6456.27
-17583
-1007.6
-17418.1
5198.95
-16875.9
10618.9
-16037.3
14442.1
-14987.4
16041.2
-13901.8
15412.1
-13015.1
13271.6
-12524.1
10567.4
-12374.7
8201.54
-12382.3
6507.92
-12468.5
5285.01
-12633.6
4355.5
-12879.5
3656.89
3246.29
782.278
-3820.46
1080.57
-5267.68
1334.43
-5400.85
1537.88
-4202.5
1679.51
-2613.34
1744.78
-1289.87
1713.94
-83.2416
1663.62
592.877
1633.51
607.079
1605.31
229.27
1597.27
-232.044
1613.26
-598.354
1577.35
-650.666
1440.78
-219.104
1310.37
318.628
1253.88
381.107
1239.4
-389.039
1246.32
-1580.65
1301.76
-2386.45
1418.94
-2727.48
1596.27
-3095.52
1816.78
-3790.64
2070.54
-4660.69
2361.71
-5511.98
2696.78
-6290.37
3078.04
-7015.25
3504.24
-7699.26
3973.07
-8339.84
4481.98
-8922.78
5027.55
-9421.68
5604.27
-9795.78
6202.68
-9988.43
6808.51
-9935.63
7400.77
-9565.05
7954.22
-8822.97
8435.27
-7654.94
8810.8
-6049
9030.25
-3989.93
9102.18
-1737.18
8922.13
1007.47
8571.53
3355.91
8129.49
4940.43
7626.11
6055.98
7078
6786.46
6509.58
7187.57
5945.5
7304.41
5403.08
7197.76
4891.43
6920.18
4413.82
6496.86
3976.22
5917.72
3592.89
5166.84
3280.04
4277.96
3040.24
3353.29
2842.43
2561.88
2666.68
1915.99
2504.64
1404.52
2360.76
1057.18
2212.04
1082.69
2013.97
1515.89
1654.22
2562.98
1016.54
4080.58
191.655
5477.29
-701.983
6461.48
-1646.67
6565.42
-2718.35
4291.6
-4025.54
832.948
-4885.51
150.259
-4928.36
2880.53
-4785.27
6806.64
-4930.29
10105.6
-5694.11
11114.5
-6770.73
10115.4
-7669.15
8100.47
-8234.07
6665.69
-8559.58
6248.3
-8768.66
5880.04
-8969.2
5021.6
-9214.76
3750.03
-9682.61
2040.32
-10277
-353.574
-10858.9
-2612.91
-11678.9
-4590.31
-12837.4
-6434.32
-14352.9
-7642.73
-16074.9
-7433.37
-17545.3
-4985.85
-18260.3
-292.649
-18218.6
5157.28
-17627.6
10027.9
-16633.5
13448.1
-15428.6
14836.3
-14256.4
14239.9
-13328.3
12343.5
-12752.6
9991.67
-12457.3
7906.21
-12319.1
6369.75
-12298.8
5264.67
-12389.5
4446.26
-12580.9
3848.31
3525.68
764.279
-4072.08
1032.87
-5536.27
1261.6
-5629.59
1455.32
-4396.23
1596.08
-2754.14
1663.67
-1357.48
1635.78
-55.3936
1594.83
633.793
1574.48
627.386
1555.2
248.504
1562.48
-239.361
1572.83
-608.745
1499.45
-577.33
1320.27
-39.9644
1185.93
452.93
1149.64
417.336
1144.76
-384.211
1143.54
-1579.48
1184.67
-2427.61
1292.2
-2835.04
1464.59
-3267.93
1680.32
-4006.4
1929.58
-4909.96
2216.23
-5798.63
2545.89
-6620.05
2920.68
-7390.05
3339.68
-8118.27
3801.06
-8801.23
4302.76
-9424.48
4842.03
-9960.96
5414.07
-10367.8
6010.04
-10584.4
6615.99
-10541.6
7210.62
-10159.7
7768.28
-9380.63
8253.58
-8140.25
8632.44
-6427.86
8847.96
-4205.45
8915.73
-1804.95
8711.23
1211.96
8333.4
3733.74
7863.5
5410.33
7334.03
6585.44
6759.75
7360.73
6165.64
7781.66
5577.74
7892.3
5014.72
7760.77
4486.23
7448.68
3994.65
6988.43
3545.32
6367.04
3154.24
5557.91
2841.19
4591.01
2609.15
3585.32
2416.43
2754.6
2239.61
2092.81
2071.6
1572.53
1926.16
1202.61
1792.66
1216.2
1606.1
1702.44
1235.53
2933.55
602.838
4713.26
-182.059
6262.19
-1057.02
7336.44
-2024.5
7532.9
-3262.29
5529.38
-4959.72
2530.38
-6341.41
1531.95
-6823.16
3362.28
-6794.22
6777.7
-6732.57
10044
-7014.18
11396.1
-7560.86
10662.1
-8162.2
8701.81
-8664.16
7167.66
-8995.33
6579.47
-9201.15
6085.86
-9377.99
5198.44
-9588.37
3960.42
-9969.09
2421.05
-10537.8
215.096
-11129.3
-2021.39
-11925.6
-3794.02
-13045.7
-5314.14
-14484.7
-6203.8
-16099.8
-5818.3
-17492
-3593.62
-18256.8
472.198
-18313.3
5213.72
-17752.8
9467.41
-16736
12431.2
-15504.6
13604.9
-14317.9
13053.2
-13352
11377.6
-12676.7
9316.42
-12257.5
7486.92
-12030.2
6142.51
-11958.6
5193.11
-12013.6
4501.2
-12175.2
4009.97
3776.01
740.356
-4303.31
977.035
-5772.95
1182.07
-5834.64
1366.85
-4581.02
1506.47
-2893.79
1576.68
-1427.73
1554.05
-32.8095
1524.69
663.111
1516.07
635.951
1510.57
253.944
1534.69
-263.529
1533.28
-607.376
1412.78
-456.892
1186.8
185.968
1056.85
582.823
1058.05
416.054
1061.45
-387.692
1040.44
-1558.52
1066.99
-2454.19
1166.97
-2935.05
1334.1
-3435.08
1544.52
-4216.85
1789.18
-5154.63
2071.2
-6080.67
2395.48
-6944.34
2763.85
-7758.43
3175.62
-8530.06
3629.44
-9255.05
4123.83
-9918.88
4656.78
-10493.9
5224.29
-10935.3
5818.22
-11178.3
6424.92
-11148.3
7022.73
-10757.5
7585.45
-9943.36
8075.78
-8630.6
8458.55
-6810.64
8670.37
-4417.28
8732.87
-1867.46
8499.95
1444.87
8093.78
4139.91
7595.14
5908.96
7038.33
7142.23
6436.87
7962.19
5816.52
8402
5204.45
8504.36
4620.41
8344.8
4074.42
7994.66
3567.91
7494.93
3105.82
6829.13
2706.47
5957.26
2394.51
4902.96
2173.62
3806.2
1988.55
2939.67
1812.57
2268.78
1639.46
1745.64
1491.64
1350.42
1380.78
1327.06
1202.96
1880.25
813.057
3323.46
197.541
5328.78
-546.088
7005.82
-1362.84
8153.2
-2253.89
8423.95
-3518.82
6794.31
-5411.28
4422.85
-7178.13
3298.8
-8067.22
4251.37
-8236.37
6946.85
-8111.04
9918.63
-8071.41
11356.4
-8229.33
10820
-8586.82
9059.3
-9002.99
7583.82
-9306.16
6882.63
-9487.69
6267.4
-9626.05
5336.8
-9788.54