/*--------------------------------*- C++ -*----------------------------------*\
| =========                 |                                                 |
| \\      /  F ield         | OpenFOAM: The Open Source CFD Toolbox           |
|  \\    /   O peration     | Version:  4.1                                   |
|   \\  /    A nd           | Web:      www.OpenFOAM.org                      |
|    \\/     M anipulation  |                                                 |
\*---------------------------------------------------------------------------*/
FoamFile
{
    version     2.0;
    format      ascii;
    class       volVectorField;
    location    "1600";
    object      U;
}
// * * * * * * * * * * * * * * * * * * * * * * * * * * * * * * * * * * * * * //

dimensions      [0 1 -1 0 0 0 0];

internalField   nonuniform List<vector> 
26785
(
(2.75296e-15 -0.0862644 5.12656)
(-6.06831e-15 -0.128826 7.66185)
(4.29856e-15 -0.13673 10.5915)
(-3.49635e-14 -0.0918634 12.9446)
(-1.93828e-14 -0.0306869 14.1022)
(-6.28495e-14 0.00973627 14.2546)
(-7.19669e-14 0.0273946 13.9168)
(-8.37415e-14 0.030882 13.3687)
(4.1901e-15 0.0191458 12.858)
(-4.8922e-15 0.00154636 12.6599)
(-1.8406e-14 -0.00764783 12.7419)
(-2.74681e-14 -0.00580639 12.8701)
(-1.12125e-14 -0.0017307 12.9374)
(6.16734e-15 0.00434759 12.9391)
(1.92421e-14 0.0115728 12.8046)
(2.80406e-14 0.00483301 12.5999)
(3.513e-14 -0.0220468 12.6667)
(3.70989e-14 -0.0463841 13.1739)
(3.25798e-14 -0.054219 13.9026)
(-1.10403e-14 -0.0586816 14.6512)
(-4.9196e-15 -0.0727239 15.4732)
(-1.36625e-15 -0.0962854 16.5221)
(-2.46821e-14 -0.120085 17.856)
(-1.21156e-14 -0.138724 19.4196)
(-1.98138e-14 -0.152858 21.135)
(-2.48434e-14 -0.164519 22.9516)
(-2.18073e-14 -0.174587 24.8406)
(-2.42179e-14 -0.182786 26.7812)
(-3.17974e-14 -0.188446 28.7553)
(-5.07128e-14 -0.190972 30.7433)
(-5.07228e-14 -0.189846 32.7203)
(-2.7004e-14 -0.184413 34.6518)
(-2.82997e-14 -0.173803 36.4916)
(-2.18786e-14 -0.157 38.1819)
(-3.17391e-14 -0.133174 39.6571)
(-1.67255e-14 -0.101992 40.8488)
(-1.2148e-14 -0.0636864 41.6916)
(-7.12456e-15 -0.0201039 42.1356)
(-5.53558e-15 0.0280022 42.1362)
(-2.48252e-15 0.0700449 41.7155)
(8.38306e-15 0.110479 40.9295)
(-1.50591e-15 0.151075 39.8011)
(-1.79628e-15 0.180316 38.3612)
(8.63027e-15 0.19802 36.7271)
(2.72169e-14 0.208104 35.0054)
(3.58941e-15 0.212281 33.2574)
(2.87114e-14 0.210854 31.524)
(1.55232e-14 0.204325 29.8438)
(1.57756e-14 0.193305 28.2542)
(1.45749e-14 0.178215 26.7878)
(4.64161e-14 0.159521 25.4718)
(1.85918e-14 0.13818 24.3268)
(2.27607e-14 0.115821 23.3627)
(1.6325e-14 0.0945296 22.575)
(1.26957e-14 0.076371 21.9433)
(6.48426e-15 0.0631773 21.4333)
(-1.59331e-14 0.0564764 21.0003)
(2.74236e-14 0.0571301 20.5922)
(1.65656e-15 0.0652367 20.1529)
(-2.21134e-14 0.0792035 19.6331)
(2.42642e-14 0.0951504 19.004)
(-4.58998e-15 0.108267 18.2722)
(-3.91308e-15 0.113369 17.484)
(-4.94467e-14 0.103669 16.7218)
(9.11937e-15 0.0773597 16.0871)
(-1.33683e-15 0.0526961 15.6158)
(2.92032e-15 0.0360129 15.3133)
(3.94271e-15 0.0669713 14.9535)
(4.48619e-15 0.1159 14.2784)
(9.90014e-15 0.109754 13.3999)
(-6.1978e-14 0.0735303 12.6579)
(2.77267e-14 0.0599149 12.1467)
(-4.37916e-15 0.0802484 11.6535)
(-7.41469e-15 0.146935 10.7653)
(-2.32512e-14 0.109546 9.82594)
(1.29104e-13 0.138527 8.78942)
(1.88188e-15 0.000777017 8.45462)
(1.24183e-14 -0.259604 8.7898)
(1.06261e-14 -0.23681 10.8274)
(5.2794e-15 -0.367518 12.8848)
(9.71959e-15 -0.47866 15.2598)
(-2.94087e-14 -0.591782 18.1478)
(1.03151e-14 -0.699145 21.5485)
(-5.70456e-15 -0.748682 25.3552)
(-6.06191e-15 -0.680416 29.2061)
(-1.25706e-14 -0.453081 32.4089)
(-2.4234e-14 -0.147426 34.2101)
(-2.88981e-14 0.148855 34.3051)
(-3.73204e-14 0.455255 32.7693)
(-2.94172e-14 0.782928 29.6063)
(-2.47003e-14 1.00353 24.7716)
(-2.37025e-14 0.994867 19.0436)
(-2.68546e-14 0.756493 13.8958)
(-3.14697e-14 0.472397 10.3237)
(-2.95723e-14 0.351185 8.14837)
(-5.79234e-14 0.0602803 7.09755)
(-6.31673e-14 -0.653996 7.56702)
(-8.48897e-14 -0.927906 11.1968)
(-1.03571e-13 -1.1468 13.6879)
(-1.27076e-13 -1.05356 19.4135)
(-2.10045e-15 -0.250978 5.5186)
(-2.34578e-14 -0.362079 7.96417)
(4.05974e-15 -0.377407 10.6165)
(4.4345e-15 -0.258745 12.7858)
(4.98218e-14 -0.0966196 13.9636)
(-1.65984e-14 0.0149891 14.2708)
(2.3599e-14 0.0710587 14.0965)
(7.42692e-14 0.091559 13.6376)
(5.66991e-14 0.0656376 13.1)
(3.74407e-14 0.0153292 12.7989)
(2.97523e-14 -0.0146134 12.7838)
(2.49548e-14 -0.0121268 12.8572)
(1.3314e-14 -0.00190724 12.9)
(1.88035e-14 0.0148256 12.8941)
(-2.84406e-14 0.0367196 12.7591)
(-1.95341e-14 0.0183084 12.5279)
(2.79161e-14 -0.0623846 12.5385)
(4.95627e-14 -0.136956 12.9942)
(3.88321e-14 -0.161704 13.6928)
(7.90354e-14 -0.17466 14.4209)
(5.8514e-14 -0.214576 15.2091)
(9.94033e-14 -0.282293 16.201)
(9.94055e-14 -0.351449 17.4633)
(9.84281e-14 -0.406446 18.9502)
(9.81062e-14 -0.447696 20.5818)
(8.11223e-14 -0.479473 22.3003)
(3.875e-14 -0.504757 24.0782)
(-3.35967e-15 -0.525258 25.9088)
(-3.13171e-14 -0.541628 27.7911)
(-5.63852e-14 -0.552943 29.7162)
(-4.68306e-14 -0.556428 31.6605)
(-5.78908e-14 -0.547953 33.5841)
(-5.95182e-14 -0.523099 35.4337)
(-6.45935e-14 -0.477985 37.1458)
(-7.36182e-14 -0.410125 38.6512)
(-7.21022e-14 -0.318925 39.88)
(-7.87455e-14 -0.205508 40.7655)
(-8.06027e-14 -0.0757032 41.2574)
(-7.98511e-14 0.0678514 41.308)
(-7.70064e-14 0.195316 40.9455)
(-6.60742e-14 0.318723 40.2011)
(-6.20383e-14 0.44079 39.1216)
(-6.65757e-14 0.529163 37.7235)
(-3.88973e-14 0.583427 36.1262)
(-5.93227e-14 0.615085 34.4371)
(-4.4129e-14 0.629062 32.7168)
(-3.04716e-14 0.626172 31.0053)
(-1.15391e-14 0.607859 29.3416)
(-2.57376e-14 0.575928 27.763)
(2.86073e-14 0.531677 26.3021)
(-4.78311e-14 0.476583 24.9856)
(-2.72481e-15 0.413561 23.8333)
(-7.47871e-15 0.347418 22.855)
(-1.91619e-14 0.284229 22.0472)
(4.83437e-14 0.229964 21.3912)
(-2.1911e-15 0.189947 20.8555)
(-1.1384e-14 0.168851 20.399)
(1.98449e-14 0.169878 19.9711)
(3.08387e-14 0.193076 19.5141)
(-4.49616e-15 0.233381 18.9818)
(1.62839e-14 0.27947 18.3456)
(-3.31069e-14 0.316822 17.6134)
(-9.40692e-15 0.330071 16.8334)
(1.97041e-14 0.299612 16.0909)
(-1.9036e-14 0.222015 15.4878)
(1.0455e-14 0.148133 15.033)
(1.36142e-14 0.101077 14.7804)
(2.04419e-14 0.203119 14.3968)
(-1.27214e-13 0.343416 13.6708)
(1.09388e-14 0.314207 12.7884)
(1.23522e-15 0.209203 12.0559)
(-9.79967e-14 0.174048 11.55)
(-8.85668e-15 0.233874 11.0788)
(-2.25453e-14 0.431158 10.1624)
(1.33412e-13 0.355353 9.27707)
(-1.52151e-13 0.367271 7.6977)
(-7.34006e-15 -0.0403482 8.23021)
(3.36724e-15 -0.654512 7.82274)
(1.24214e-14 -0.625149 9.93079)
(6.29193e-15 -1.07336 11.7309)
(3.2934e-15 -1.4107 13.9278)
(-2.33883e-14 -1.71264 16.5926)
(-3.25895e-14 -2.0047 19.7504)
(-5.24587e-14 -2.17214 23.4212)
(-7.61525e-14 -2.02787 27.2982)
(-7.17193e-14 -1.39701 30.6042)
(-7.33606e-14 -0.504151 32.4629)
(-6.91327e-14 0.363951 32.536)
(-6.14747e-14 1.2755 30.9284)
(-5.61249e-14 2.30358 27.8112)
(-4.19354e-14 3.04994 22.9787)
(-3.2616e-14 3.07866 17.1386)
(-2.82499e-14 2.32009 11.8735)
(-5.92671e-14 1.30927 8.50216)
(-4.86843e-14 1.00282 7.075)
(-5.46859e-14 0.238017 7.01518)
(-1.40906e-13 -1.32375 5.70319)
(-1.68906e-13 -1.75107 8.47801)
(-1.91572e-13 -2.14268 9.94698)
(-2.07428e-13 -1.95462 13.1599)
(-9.92021e-15 -0.426324 5.86635)
(3.02444e-14 -0.584371 8.11952)
(2.36031e-14 -0.603496 10.5464)
(4.15315e-14 -0.422481 12.5917)
(8.83339e-14 -0.172259 13.7633)
(-1.46926e-15 0.00370513 14.1563)
(-1.64676e-15 0.100238 14.0873)
(1.4827e-14 0.147331 13.6995)
(2.83951e-14 0.118553 13.1435)
(9.05247e-15 0.0401511 12.7519)
(-8.16434e-15 -0.0134274 12.6567)
(-1.8062e-14 -0.015319 12.6994)
(-2.20384e-14 -0.00252297 12.7463)
(-2.10147e-14 0.0237926 12.7564)
(-6.99855e-16 0.0630849 12.6316)
(-4.49329e-14 0.0381374 12.3728)
(2.17046e-14 -0.0941726 12.3169)
(-1.65042e-14 -0.220763 12.7083)
(2.93941e-14 -0.264737 13.3626)
(1.42977e-14 -0.285961 14.0545)
(1.76351e-14 -0.349174 14.7945)
(6.21583e-14 -0.45867 15.7214)
(9.17504e-14 -0.572011 16.9077)
(1.02701e-13 -0.661722 18.3038)
(8.61314e-14 -0.726969 19.8271)
(3.94009e-14 -0.77664 21.4347)
(2.51577e-15 -0.819169 23.1257)
(-4.10026e-14 -0.858741 24.9101)
(-6.2973e-14 -0.894436 26.7841)
(-7.00405e-14 -0.921403 28.7236)
(-6.88679e-14 -0.932896 30.6894)
(-5.598e-14 -0.921836 32.6335)
(-7.26348e-14 -0.88182 34.5008)
(-6.59412e-14 -0.80747 36.2301)
(-5.64838e-14 -0.695305 37.7544)
(-6.41866e-14 -0.544534 39.0054)
(-6.72394e-14 -0.356916 39.9164)
(-6.65063e-14 -0.141962 40.4368)
(-6.31893e-14 0.0956823 40.5148)
(-5.84071e-14 0.310359 40.1862)
(-5.38098e-14 0.518972 39.4581)
(-4.97921e-14 0.721353 38.4002)
(-4.53276e-14 0.868444 37.0144)
(-4.22698e-14 0.959628 35.4276)
(-3.80644e-14 1.0134 33.7495)
(-3.49845e-14 1.03768 32.0388)
(-3.03761e-14 1.0339 30.3344)
(-2.88364e-14 1.00458 28.6748)
(-2.5302e-14 0.952768 27.0969)
(-2.70411e-14 0.880689 25.6325)
(-2.64983e-14 0.790886 24.3074)
(-2.57921e-14 0.688189 23.1407)
(-2.35057e-14 0.580357 22.1417)
(-1.93201e-14 0.47708 21.307)
(-1.91173e-14 0.387825 20.6193)
(-4.10227e-14 0.321062 20.0495)
(4.40289e-15 0.284616 19.5593)
(-1.28938e-16 0.285083 19.1001)
(-5.55012e-14 0.322158 18.6146)
(1.01307e-14 0.386774 18.059)
(-1.40808e-14 0.460481 17.4055)
(9.53299e-15 0.518795 16.6644)
(2.0618e-15 0.536564 15.8863)
(2.58769e-15 0.482149 15.1606)
(1.29847e-14 0.354442 14.5944)
(-1.17927e-14 0.229598 14.1688)
(6.70234e-14 0.158284 14.0011)
(3.66469e-14 0.350471 13.6007)
(4.46888e-14 0.573382 12.8299)
(2.67386e-14 0.502525 11.9328)
(2.04606e-14 0.334519 11.2146)
(1.7578e-14 0.284722 10.7373)
(1.01452e-13 0.384624 10.3117)
(1.05683e-13 0.697688 9.32066)
(1.24544e-14 0.672176 8.62865)
(2.31146e-14 0.484293 6.50448)
(9.01788e-15 -0.378536 8.22084)
(7.10724e-15 -0.971444 7.1787)
(1.11183e-14 -1.10333 9.3426)
(-6.06761e-15 -1.83424 10.593)
(-4.06103e-14 -2.29686 12.2141)
(-7.50948e-14 -2.7505 14.3257)
(-1.25183e-13 -3.267 17.138)
(-1.21585e-13 -3.62104 20.7006)
(-1.15112e-13 -3.43064 24.6107)
(-1.01062e-13 -2.34882 27.9328)
(-9.16886e-14 -0.799839 29.6867)
(-8.69401e-14 0.67532 29.5322)
(-8.91549e-14 2.14498 27.6803)
(-8.24677e-14 3.81719 24.6266)
(-5.9451e-14 5.08608 20.024)
(-4.32028e-14 5.16948 14.389)
(-3.41479e-14 3.78486 9.29137)
(-4.44409e-14 1.6215 6.40116)
(-3.47091e-14 0.694113 6.73412)
(-8.88651e-14 0.711826 8.72052)
(-2.13801e-13 -0.130338 4.33516)
(-2.00264e-13 -1.52219 1.75335)
(-1.98405e-13 -2.50896 2.20985)
(-1.95862e-13 -2.31032 2.31301)
(-6.0996e-15 -0.591285 6.10305)
(3.1727e-14 -0.78833 8.15657)
(6.64618e-14 -0.816094 10.4526)
(8.31453e-14 -0.580494 12.4428)
(5.28485e-14 -0.248972 13.6093)
(6.38892e-14 -0.0132434 14.0499)
(6.20478e-14 0.123024 14.034)
(-2.49522e-14 0.200801 13.6768)
(-4.78478e-14 0.176762 13.0931)
(-5.80499e-14 0.0728353 12.626)
(-4.90688e-14 -0.00848689 12.4804)
(-3.43732e-14 -0.0198002 12.5148)
(-3.34099e-14 -0.00696472 12.5788)
(2.71094e-14 0.0291889 12.611)
(2.69595e-14 0.0894691 12.4999)
(4.06912e-14 0.0641216 12.2167)
(3.34884e-14 -0.116864 12.0902)
(7.44192e-14 -0.297062 12.4091)
(2.26284e-14 -0.36233 13.0116)
(-1.78333e-14 -0.39174 13.6588)
(-1.42189e-14 -0.476795 14.3424)
(5.61917e-14 -0.626318 15.1966)
(6.78228e-14 -0.780935 16.2922)
(5.00843e-14 -0.902008 17.5813)
(7.12248e-15 -0.991101 19.0046)
(-3.27538e-14 -1.06409 20.5503)
(-5.98289e-14 -1.13237 22.2262)
(-7.11392e-14 -1.19763 24.0246)
(-7.01195e-14 -1.2547 25.917)
(-6.25646e-14 -1.29591 27.8659)
(-4.46484e-14 -1.31325 29.8323)
(-4.41057e-14 -1.29852 31.7739)
(-3.991e-14 -1.24367 33.6411)
(-4.32405e-14 -1.14128 35.3751)
(-3.31037e-14 -0.986227 36.9093)
(-2.63696e-14 -0.777095 38.1747)
(-4.95764e-14 -0.516069 39.1029)
(-2.97395e-14 -0.216325 39.6429)
(-3.25285e-14 0.115296 39.7377)
(-5.40707e-14 0.419492 39.4322)
(-2.9572e-14 0.715735 38.7107)
(-2.05549e-14 0.997994 37.6662)
(-3.83007e-14 1.20381 36.2837)
(-4.29768e-14 1.33242 34.6996)
(-2.67173e-14 1.40883 33.0256)
(-2.74984e-14 1.44376 31.3179)
(-6.79093e-15 1.4395 29.6138)
(-2.32736e-14 1.39976 27.9517)
(-5.09477e-14 1.32883 26.3683)
(-5.27027e-14 1.22983 24.8946)
(-2.15445e-14 1.10639 23.5559)
(-4.81333e-14 0.965247 22.3705)
(-4.43997e-15 0.817027 21.3474)
(-3.02855e-14 0.674819 20.4826)
(-4.59431e-14 0.551272 19.7597)
(-2.97996e-14 0.457718 19.1511)
(-5.6485e-14 0.40514 18.6202)
(3.80373e-15 0.403933 18.1201)
(-5.26549e-14 0.453553 17.5958)
(3.38706e-14 0.540597 17.004)
(5.01353e-15 0.63907 16.3185)
(1.76269e-14 0.714346 15.5536)
(-4.19782e-14 0.73259 14.7633)
(-7.95873e-15 0.650093 14.0453)
(-4.99627e-15 0.471709 13.5151)
(8.10045e-14 0.288971 13.122)
(-6.2359e-14 0.199558 13.0713)
(-1.04797e-13 0.503047 12.6369)
(-5.12095e-14 0.796926 11.8188)
(-3.68635e-14 0.667581 10.904)
(9.52165e-14 0.454463 10.2176)
(1.35725e-14 0.394707 9.8003)
(1.53942e-13 0.502649 9.45336)
(-1.2607e-13 0.824948 8.38712)
(-1.72029e-14 0.99054 7.99338)
(2.03844e-13 0.372222 5.22112)
(6.08279e-14 -0.756151 6.87527)
(6.62137e-14 -0.888304 6.99028)
(-6.51696e-14 -1.30035 8.90059)
(-9.91022e-14 -2.28717 9.00701)
(-1.15415e-13 -2.83212 9.7874)
(-1.34734e-13 -3.54043 11.3372)
(-1.31321e-13 -4.42199 13.8669)
(-1.26982e-13 -5.04735 17.2939)
(-9.76442e-14 -4.84356 21.1858)
(-7.84493e-14 -3.27239 24.4852)
(-6.47489e-14 -1.02613 26.1251)
(-6.44729e-14 1.07041 25.7421)
(-6.49065e-14 3.05018 23.5945)
(-8.18457e-14 5.27151 20.5275)
(-7.15035e-14 6.99666 16.1667)
(-6.3255e-14 7.14333 10.8813)
(-4.83132e-14 5.23951 6.08987)
(-4.68125e-14 1.99296 2.21168)
(-1.04146e-13 0.996867 -1.07242)
(-1.76492e-13 1.52395 -2.85587)
(-1.92542e-13 0.56753 -4.9067)
(-1.83226e-13 -1.25201 -5.8233)
(-1.96822e-13 -2.30978 -6.01608)
(-1.94548e-13 -2.26646 -6.97598)
(-2.03522e-15 -0.744549 6.23176)
(4.70166e-14 -0.981028 8.10975)
(2.3003e-14 -1.0229 10.3599)
(5.04061e-14 -0.736481 12.3459)
(5.6037e-14 -0.32709 13.5138)
(-1.23544e-14 -0.0336894 13.9864)
(-5.09086e-15 0.143291 13.9873)
(-1.02605e-14 0.254865 13.6184)
(3.61471e-15 0.240085 12.9976)
(-1.84618e-15 0.110689 12.4782)
(-3.34865e-14 -0.00198906 12.3024)
(2.205e-14 -0.0258071 12.3215)
(1.19298e-14 -0.0144998 12.3823)
(6.71256e-14 0.031623 12.4209)
(5.85634e-14 0.115682 12.3149)
(1.98398e-14 0.0957257 12.0094)
(8.53601e-15 -0.130639 11.817)
(-4.93162e-15 -0.365752 12.0693)
(-2.20567e-14 -0.454252 12.6268)
(-1.54669e-14 -0.491646 13.2322)
(2.53756e-14 -0.59635 13.8583)
(8.67138e-14 -0.782482 14.6326)
(6.03776e-14 -0.975502 15.6301)
(1.7917e-14 -1.12935 16.828)
(-2.92219e-14 -1.24901 18.1996)
(-5.09258e-14 -1.35313 19.7382)
(-6.45197e-14 -1.45101 21.4263)
(-3.81935e-14 -1.54106 23.2304)
(-3.83043e-14 -1.61684 25.1147)
(-3.34538e-14 -1.67069 27.0484)
(-3.17094e-14 -1.69399 29.0008)
(-2.96553e-14 -1.67671 30.934)
(-3.03521e-14 -1.60831 32.7989)
(-2.95738e-14 -1.47893 34.5359)
(-4.30988e-14 -1.2818 36.0773)
(-3.05958e-14 -1.01492 37.353)
(-2.93091e-14 -0.680905 38.293)
(-3.18419e-14 -0.296616 38.8458)
(-3.51601e-14 0.128755 38.9489)
(-3.8206e-14 0.524212 38.6573)
(-3.96186e-14 0.9098 37.9325)
(-4.2537e-14 1.2709 36.8929)
(-4.87033e-14 1.53466 35.506)
(-3.22582e-14 1.70054 33.9199)
(-3.40248e-14 1.79975 32.2479)
(-3.36501e-14 1.84558 30.5426)
(-3.64789e-14 1.8413 28.839)
(-3.94872e-14 1.79189 27.1752)
(-4.40312e-14 1.7028 25.587)
(-1.70447e-14 1.57794 24.1047)
(-2.22921e-14 1.42199 22.753)
(-6.90838e-14 1.24371 21.55)
(-5.06064e-14 1.05654 20.5042)
(-5.5123e-14 0.876896 19.6113)
(-4.78942e-14 0.720295 18.8547)
(8.90474e-15 0.600661 18.208)
(-2.52829e-14 0.532121 17.6353)
(-3.42673e-14 0.528678 17.0909)
(-6.67904e-14 0.589955 16.5228)
(-2.66925e-14 0.698521 15.8857)
(-7.42047e-14 0.819451 15.1551)
(6.10304e-15 0.90745 14.351)
(-4.11031e-14 0.921452 13.5331)
(-1.41156e-14 0.80493 12.8131)
(-2.91803e-15 0.574828 12.3178)
(-1.37879e-13 0.322558 11.9619)
(7.85482e-16 0.226666 12.0622)
(-1.07002e-13 0.66521 11.5525)
(-4.15313e-14 0.999175 10.6836)
(-1.15472e-13 0.77932 9.77092)
(-1.16845e-14 0.542536 9.15544)
(-1.89349e-14 0.518158 8.83011)
(1.59266e-13 0.720729 8.55846)
(-8.10008e-14 0.937831 7.38856)
(-1.86944e-13 0.801865 7.18053)
(-2.91121e-13 0.0323185 6.98429)
(-1.90015e-13 -0.516091 6.27278)
(-1.61691e-13 -0.188833 5.88388)
(-1.6622e-13 -0.937416 8.54792)
(-1.47433e-13 -2.19688 6.40835)
(-1.35355e-13 -3.04864 6.69168)
(-1.85202e-13 -4.20049 7.87775)
(-1.20632e-13 -5.50617 10.1242)
(-1.23662e-13 -6.44652 13.3269)
(-8.36549e-14 -6.27601 17.1155)
(-6.90986e-14 -4.17599 20.224)
(-6.30551e-14 -1.18934 21.7243)
(-5.60201e-14 1.50973 21.1866)
(-4.92556e-14 3.94604 18.8061)
(-6.91021e-14 6.6641 15.7495)
(-8.3157e-14 8.76927 11.6406)
(-6.41094e-14 8.99319 6.85287)
(-4.53968e-14 6.93308 2.22588)
(-6.402e-14 3.56112 -1.56726)
(-1.5953e-13 2.35565 -4.74668)
(-1.87926e-13 2.39813 -7.08154)
(-1.91402e-13 1.13065 -8.28235)
(-1.97004e-13 -0.824779 -9.52001)
(-1.98089e-13 -1.96671 -10.4125)
(-1.91917e-13 -2.06282 -12.2065)
(1.25656e-14 -0.890636 6.25373)
(2.29692e-14 -1.16787 8.0161)
(1.52597e-14 -1.22955 10.3005)
(4.27763e-14 -0.892791 12.3108)
(6.4837e-14 -0.406347 13.4782)
(3.95827e-14 -0.0550133 13.9709)
(5.64631e-14 0.165351 13.9622)
(1.19199e-13 0.31244 13.5478)
(1.24503e-13 0.307715 12.8855)
(-2.29344e-17 0.152408 12.3288)
(-6.53712e-14 0.00746497 12.1203)
(-9.69301e-16 -0.0297056 12.097)
(1.9635e-14 -0.0219625 12.1238)
(4.07249e-14 0.0324787 12.1485)
(4.64215e-14 0.141139 12.0368)
(4.54316e-14 0.130693 11.711)
(2.8744e-14 -0.138675 11.4622)
(1.75503e-14 -0.430052 11.6629)
(7.94571e-16 -0.542861 12.1899)
(4.47576e-14 -0.586667 12.7621)
(7.06694e-14 -0.707526 13.3357)
(3.33643e-14 -0.927068 14.0349)
(2.84468e-14 -1.15898 14.9526)
(2.02841e-14 -1.35109 16.0989)
(-1.2296e-14 -1.50764 17.4579)
(-2.00403e-14 -1.64525 18.9994)
(-1.75302e-14 -1.77111 20.6812)
(-1.93173e-14 -1.88365 22.4659)
(-2.33294e-14 -1.97745 24.3271)
(-3.37674e-14 -2.04475 26.2422)
(-2.83497e-14 -2.07536 28.1829)
(-3.03048e-14 -2.05674 30.1105)
(-2.19564e-14 -1.97579 31.9747)
(-2.12093e-14 -1.8203 33.7149)
(-1.49361e-14 -1.58181 35.2628)
(-2.02132e-14 -1.25773 36.5475)
(-2.65677e-14 -0.850969 37.4971)
(-2.49784e-14 -0.382006 38.0593)
(-2.42826e-14 0.137285 38.1654)
(-2.70256e-14 0.626412 37.8818)
(-3.85907e-14 1.10363 37.145)
(-2.52241e-14 1.54272 36.1006)
(-1.21109e-14 1.86332 34.6992)
(-1.43124e-14 2.06585 33.1027)
(-5.32765e-15 2.18746 31.4265)
(-1.61051e-14 2.2439 29.7189)
(-1.78532e-14 2.23963 28.0133)
(-2.02173e-14 2.18101 26.3466)
(-2.32151e-14 2.07452 24.7538)
(-1.96417e-14 1.92471 23.2641)
(-2.28851e-14 1.73727 21.9014)
(-2.6604e-14 1.52295 20.6838)
(-3.03198e-14 1.29811 19.6194)
(-3.09896e-14 1.08244 18.7034)
(-2.9482e-14 0.894077 17.9184)
(-2.71208e-14 0.749248 17.2385)
(-2.50354e-14 0.665234 16.6285)
(-2.80818e-14 0.659648 16.0426)
(-2.53507e-14 0.732541 15.4297)
(2.15671e-14 0.862655 14.742)
(-1.97694e-15 1.00442 13.9567)
(-1.17746e-14 1.10068 13.1001)
(-6.49813e-14 1.10455 12.2399)
(-2.09892e-14 0.945992 11.5124)
(-7.37947e-14 0.662282 11.052)
(-8.30487e-14 0.325185 10.7645)
(-1.06887e-13 0.250184 11.0293)
(-3.20921e-14 0.842185 10.373)
(2.44754e-14 1.15516 9.44266)
(-8.35347e-14 0.863283 8.61856)
(9.8992e-14 0.743884 8.18921)
(-4.21343e-14 0.659302 8.05775)
(9.73299e-16 0.632242 7.91655)
(2.90338e-14 0.902897 6.87697)
(1.9168e-13 1.19953 3.54138)
(-1.27738e-14 1.19133 -1.18761)
(-3.13924e-13 0.766488 -2.40622)
(-3.24757e-13 -0.0819038 -2.95309)
(-1.12498e-13 -2.09164 1.14711)
(-1.47e-13 -2.61767 0.228842)
(-1.50783e-13 -3.69386 1.68207)
(-1.16487e-13 -5.05699 3.73597)
(-1.12687e-13 -6.58355 5.97457)
(-1.21492e-13 -7.81111 8.78128)
(-9.54542e-14 -7.65642 12.2385)
(-8.51108e-14 -4.98928 14.8064)
(-6.64409e-14 -1.2682 16.2761)
(-6.59213e-14 2.12398 15.7257)
(-5.08065e-14 4.94507 13.2032)
(-6.85128e-14 7.98448 10.3508)
(-7.89064e-14 10.339 6.67416)
(-6.46791e-14 10.7094 2.34491)
(-4.19175e-14 8.52362 -1.52888)
(-9.38967e-14 5.09037 -4.97963)
(-1.7863e-13 3.62974 -8.36209)
(-1.90896e-13 2.86462 -9.44967)
(-1.9307e-13 1.41048 -9.09771)
(-1.92268e-13 -0.282823 -9.35468)
(-1.90776e-13 -1.30655 -10.4217)
(-1.96311e-13 -1.53317 -12.6216)
(3.53645e-14 -1.0191 6.18052)
(1.36839e-14 -1.35537 7.91691)
(1.62967e-14 -1.43995 10.2892)
(5.90477e-14 -1.04976 12.3232)
(6.59373e-14 -0.48606 13.4788)
(2.16966e-15 -0.0759302 13.9796)
(-1.14307e-14 0.191435 13.9438)
(-1.16809e-14 0.374835 13.4646)
(-6.43195e-14 0.378555 12.7606)
(-1.25133e-13 0.197644 12.173)
(-5.59703e-14 0.0216975 11.9225)
(-1.13648e-14 -0.0286836 11.8373)
(1.86146e-14 -0.0268389 11.8163)
(3.44966e-14 0.0334177 11.8133)
(5.90858e-14 0.166195 11.6829)
(3.42236e-14 0.168131 11.3331)
(2.57283e-14 -0.142941 11.0305)
(4.9614e-14 -0.492333 11.1888)
(4.70195e-14 -0.629882 11.6964)
(2.14855e-14 -0.677879 12.2473)
(-6.88977e-15 -0.811711 12.7856)
(-2.09312e-14 -1.06318 13.4308)
(1.97125e-14 -1.33654 14.2967)
(1.4012e-14 -1.57166 15.4177)
(2.22341e-15 -1.76725 16.7678)
(-3.34557e-15 -1.93708 18.2944)
(-1.97629e-14 -2.08918 19.9505)
(-1.50706e-14 -2.22406 21.708)
(-1.20175e-14 -2.33695 23.5481)
(-2.87119e-14 -2.419 25.4493)
(-2.09781e-14 -2.45795 27.3818)
(-1.98249e-14 -2.43883 29.3053)
(-1.64052e-14 -2.34608 31.1693)
(-1.33081e-14 -2.16511 32.9129)
(-9.01381e-15 -1.88581 34.4673)
(-5.87568e-15 -1.50484 35.7607)
(-1.19067e-14 -1.02528 36.7186)
(-8.79709e-15 -0.47116 37.2879)
(-6.03432e-15 0.142311 37.3932)
(-7.85677e-15 0.728113 37.1133)
(-1.48291e-14 1.29959 36.3567)
(-3.03899e-16 1.81565 35.2981)
(-7.41436e-15 2.19166 33.8736)
(1.09605e-14 2.42993 32.2593)
(3.26534e-15 2.57324 30.5726)
(-3.69152e-16 2.63962 28.8577)
(-2.10057e-15 2.63499 27.1459)
(3.02562e-15 2.56722 25.474)
(-1.40739e-14 2.44372 23.8754)
(2.40046e-14 2.26952 22.3781)
(-2.75106e-14 2.0512 21.0057)
(5.87193e-15 1.80154 19.7762)
(-3.62117e-14 1.53991 18.6976)
(-2.47525e-14 1.2894 17.7642)
(-2.97234e-14 1.07051 16.9574)
(-3.16842e-14 0.901438 16.2509)
(-3.31393e-14 0.802741 15.6103)
(-7.06963e-15 0.795992 14.9885)
(-4.62488e-14 0.881569 14.3327)
(2.02047e-15 1.03439 13.5926)
(-1.64179e-14 1.19645 12.7451)
(-3.85557e-14 1.29627 11.824)
(-3.53936e-14 1.28153 10.9079)
(5.48209e-14 1.06977 10.1738)
(-1.58629e-14 0.727421 9.75843)
(1.40421e-13 0.299305 9.61059)
(-7.33345e-15 0.306678 9.9991)
(-4.4463e-14 1.08612 9.09308)
(-6.06485e-15 1.06569 8.09006)
(5.69002e-14 0.0737596 7.96601)
(1.80484e-13 0.151495 8.90118)
(5.58522e-14 0.762232 7.82911)
(1.16255e-13 1.31579 4.01841)
(5.72358e-14 2.07779 0.259596)
(1.10756e-13 2.66775 -2.60443)
(1.09573e-14 2.67083 -4.665)
(-1.89424e-13 1.78793 -3.59738)
(-2.36525e-13 -0.979616 -5.1917)
(-1.35147e-13 -2.96137 -3.87065)
(-1.57512e-13 -3.04561 -4.19704)
(-1.29906e-13 -4.45335 -3.37947)
(-1.45927e-13 -6.0805 -1.86533)
(-1.19391e-13 -7.83267 0.4976)
(-1.26113e-13 -9.2016 3.48997)
(-1.01353e-13 -8.8921 6.52181)
(-7.47882e-14 -5.74939 8.3614)
(-7.0396e-14 -1.39419 10.4475)
(-7.0803e-14 2.43577 10.5403)
(-5.77865e-14 5.7472 7.74278)
(-6.36315e-14 9.19915 4.73246)
(-8.43144e-14 11.7914 1.10331)
(-6.17315e-14 12.1303 -2.35318)
(-4.83397e-14 9.79055 -5.06011)
(-1.20168e-13 6.3861 -8.13936)
(-1.92989e-13 4.2043 -9.83388)
(-1.82495e-13 2.72627 -8.65619)
(-1.85312e-13 1.40049 -7.65878)
(-1.91443e-13 0.134818 -7.98079)
(-1.98489e-13 -0.726758 -9.28702)
(-1.96724e-13 -1.10046 -11.2061)
(5.74793e-14 -1.14828 6.05684)
(2.5663e-14 -1.54897 7.83873)
(6.60817e-15 -1.65444 10.3182)
(4.50174e-14 -1.20617 12.3534)
(2.82334e-14 -0.565123 13.4834)
(2.30256e-14 -0.0953576 13.9799)
(3.43884e-14 0.22234 13.9038)
(-3.1237e-14 0.442155 13.3559)
(-5.6124e-14 0.452598 12.6189)
(-2.31926e-14 0.246956 12.0049)
(1.5268e-14 0.0420309 11.7068)
(2.49556e-14 -0.0217121 11.5539)
(2.39644e-14 -0.0277865 11.4914)
(2.47161e-14 0.0368135 11.459)
(2.09697e-14 0.193394 11.2934)
(6.63543e-14 0.209028 10.9058)
(8.34252e-14 -0.143528 10.5418)
(6.34331e-14 -0.553499 10.6548)
(-1.69259e-14 -0.71705 11.1509)
(-6.04189e-14 -0.767931 11.705)
(-2.41255e-14 -0.912076 12.236)
(-4.49236e-16 -1.19399 12.8437)
(2.17442e-14 -1.51057 13.6699)
(-1.14456e-14 -1.79092 14.7685)
(-2.39562e-14 -2.02529 16.0983)
(-2.30683e-14 -2.22619 17.5965)
(-2.35331e-14 -2.40459 19.2231)
(-2.70622e-15 -2.56293 20.9573)
(-1.40613e-14 -2.69613 22.7813)
(-1.56909e-14 -2.79384 24.6713)
(-1.48203e-14 -2.84187 26.5963)
(-1.52852e-14 -2.82296 28.5162)
(-1.13624e-14 -2.71916 30.3804)
(-6.55367e-15 -2.51343 32.1282)
(-2.6673e-15 -2.19387 33.6899)
(9.83174e-17 -1.75624 34.9926)
(-4.56406e-15 -1.20369 35.9589)
(3.55598e-16 -0.563603 36.5341)
(4.48982e-15 0.144283 36.6364)
(6.67804e-15 0.830702 36.3572)
(-4.84262e-15 1.49976 35.5733)
(2.45829e-15 2.09166 34.4909)
(1.56587e-14 2.52143 33.0351)
(4.18896e-14 2.79438 31.3958)
(2.62047e-14 2.95842 29.6924)
(1.98522e-14 3.03375 27.965)
(1.74559e-14 3.02806 26.2436)
(1.89959e-14 2.95094 24.564)
(4.84957e-14 2.81058 22.9584)
(2.11519e-14 2.61224 21.4531)
(-1.58586e-14 2.36325 20.0715)
(1.43073e-15 2.0785 18.832)
(-3.21651e-14 1.78049 17.7429)
(-3.27266e-14 1.496 16.7974)
(-4.05693e-14 1.24766 15.9751)
(-4.92673e-14 1.05523 15.2489)
(-6.67563e-14 0.942658 14.5842)
(-1.08076e-13 0.936222 13.9322)
(-9.51857e-14 1.03637 13.2371)
(2.3863e-14 1.2145 12.4447)
(-9.5752e-16 1.39794 11.5286)
(-1.20502e-14 1.49608 10.5299)
(-2.09109e-14 1.44855 9.54368)
(-2.23128e-14 1.16589 8.81415)
(-1.34085e-14 0.734857 8.48474)
(2.3306e-14 0.223756 8.59833)
(-4.94892e-14 0.349457 8.9654)
(-5.46095e-14 1.34002 7.64467)
(-1.50835e-14 1.32095 5.09146)
(1.13167e-14 0.735282 0.292919)
(5.58866e-14 1.03882 -3.91013)
(1.08812e-13 1.61164 -4.24404)
(1.02169e-13 2.06186 -3.88205)
(1.23797e-13 2.67809 -4.09038)
(8.76787e-14 3.19943 -4.85354)
(4.57815e-14 3.0542 -5.55613)
(-5.47629e-15 2.00758 -4.21901)
(-1.46949e-13 -1.05134 -5.61628)
(-1.61008e-13 -2.90639 -6.31562)
(-1.56449e-13 -3.24131 -6.47052)
(-1.67591e-13 -4.76802 -6.22809)
(-1.48519e-13 -6.66162 -5.496)
(-1.25958e-13 -8.74269 -4.29263)
(-1.32566e-13 -10.3395 -2.53997)
(-8.46654e-14 -10.0063 -0.463957)
(-6.38632e-14 -6.63542 0.988775)
(-7.04547e-14 -1.10765 3.94997)
(-6.88668e-14 3.21838 3.5875)
(-7.09285e-14 6.77561 0.43268)
(-7.12849e-14 10.3873 -2.12127)
(-8.83316e-14 12.8649 -4.61617)
(-6.30113e-14 13.0235 -6.57704)
(-6.17988e-14 10.7015 -8.2844)
(-1.34558e-13 7.08057 -10.4074)
(-1.86307e-13 4.04216 -10.6919)
(-1.85408e-13 2.35967 -10.2601)
(-1.8446e-13 1.49324 -11.3357)
(-1.90742e-13 0.578297 -12.6215)
(-1.87722e-13 -0.185796 -13.7259)
(-1.93706e-13 -0.610823 -15.4112)
(4.81981e-14 -1.27558 5.90112)
(1.01184e-14 -1.75007 7.79221)
(6.82314e-15 -1.87205 10.3679)
(1.31604e-14 -1.36067 12.3713)
(-3.77383e-14 -0.642885 13.4631)
(-5.51791e-14 -0.112645 13.9484)
(-1.49659e-15 0.25796 13.8249)
(2.7054e-14 0.513101 13.2104)
(1.25867e-14 0.528234 12.4517)
(5.39449e-14 0.299713 11.8178)
(3.2193e-14 0.0683749 11.4674)
(4.95238e-14 -0.0100203 11.2467)
(6.30705e-14 -0.0260819 11.1628)
(6.41368e-14 0.0439131 11.1105)
(4.65274e-14 0.2259 10.8945)
(3.66499e-14 0.255396 10.4536)
(6.01341e-14 -0.138783 10.0144)
(1.09807e-14 -0.614026 10.0671)
(-1.08246e-13 -0.808398 10.5639)
(-3.58501e-14 -0.861928 11.1568)
(2.07051e-14 -1.01141 11.6969)
(1.59967e-14 -1.32017 12.2632)
(-7.11844e-16 -1.681 13.0512)
(-7.66474e-14 -2.00794 14.1276)
(-4.98158e-14 -2.28066 15.4321)
(-3.33271e-14 -2.51248 16.9009)
(-1.52407e-14 -2.71807 18.5021)
(-1.86848e-14 -2.901 20.2176)
(-1.24794e-14 -3.05533 22.0276)
(-1.252e-14 -3.16935 23.907)
(-1.52378e-14 -3.22712 25.8249)
(-1.00695e-14 -3.2092 27.7415)
(-1.35487e-14 -3.09515 29.6069)
(6.5231e-16 -2.86534 31.36)
(3.85172e-15 -2.50604 32.9303)
(5.06359e-15 -2.01189 34.2435)
(2.21498e-15 -1.38595 35.2189)
(8.96282e-15 -0.658717 35.8)
(1.58363e-14 0.143679 35.8983)
(2.09644e-14 0.935456 35.6177)
(2.33209e-14 1.70643 34.8003)
(2.02213e-14 2.37288 33.6838)
(3.12618e-14 2.85443 32.1881)
(4.58289e-14 3.16088 30.5166)
(3.38295e-14 3.34438 28.7901)
(3.03834e-14 3.42721 27.0446)
(2.96347e-14 3.4194 25.3097)
(3.27534e-14 3.33243 23.6204)
(3.59199e-14 3.17515 22.0068)
(2.81385e-14 2.95273 20.4934)
(1.96377e-14 2.67302 19.1032)
(2.50832e-15 2.353 17.8554)
(-1.1031e-14 2.01856 16.7589)
(-2.37085e-14 1.70059 15.8059)
(-3.53475e-14 1.42366 14.9735)
(-5.07278e-14 1.20863 14.2336)
(-5.97714e-14 1.08285 13.5511)
(-6.7939e-14 1.07845 12.8742)
(-1.0484e-13 1.19593 12.144)
(-7.75394e-14 1.40372 11.2998)
(-1.28589e-13 1.61195 10.308)
(-7.62924e-14 1.70326 9.21511)
(-4.60596e-14 1.59577 8.13828)
(-3.11632e-14 1.22149 7.43723)
(-1.21768e-13 0.747753 7.29244)
(-2.15801e-14 0.470422 7.90455)
(-2.66608e-14 1.00005 7.9415)
(4.79573e-14 2.50748 6.0794)
(3.24732e-15 2.75296 2.31305)
(1.38764e-14 2.04556 -2.46022)
(6.44163e-14 1.30749 -4.94813)
(7.65632e-14 1.09873 -5.23615)
(8.14344e-14 1.57942 -5.58779)
(7.68989e-14 2.51575 -5.75299)
(6.6426e-14 3.16429 -6.14822)
(4.99193e-14 2.94891 -6.45611)
(-6.01685e-14 1.95465 -5.87478)
(-1.72077e-13 -0.741372 -7.34679)
(-1.46616e-13 -2.74005 -8.936)
(-1.56344e-13 -3.41321 -9.19085)
(-1.71445e-13 -5.00764 -9.35927)
(-1.52769e-13 -7.02956 -9.107)
(-1.47821e-13 -9.25543 -8.55292)
(-1.2821e-13 -11.0093 -7.70442)
(-8.61101e-14 -10.7748 -6.77303)
(-7.14237e-14 -7.30356 -6.08678)
(-6.96955e-14 -1.42909 -4.80976)
(-6.48731e-14 3.35001 -4.90861)
(-7.08933e-14 7.3052 -6.92522)
(-8.56083e-14 10.9927 -8.48862)
(-8.35228e-14 13.33 -9.82269)
(-5.20823e-14 13.4082 -10.4693)
(-6.74957e-14 11.1694 -11.1848)
(-1.4667e-13 7.36279 -12.2338)
(-1.94446e-13 4.10975 -12.627)
(-1.83224e-13 2.69339 -13.7286)
(-1.76948e-13 1.88394 -15.0434)
(-1.7777e-13 0.852172 -15.8368)
(-1.73398e-13 0.0104648 -16.541)
(-1.77829e-13 -0.478794 -18.0737)
(8.63988e-15 -1.40701 5.73454)
(4.39216e-16 -1.9606 7.77881)
(-1.22216e-14 -2.09056 10.4132)
(-2.83034e-14 -1.51183 12.3526)
(-5.27721e-14 -0.719247 13.397)
(-5.77665e-14 -0.128087 13.8716)
(-8.76262e-14 0.29735 13.7009)
(-6.45659e-14 0.586194 13.0236)
(-6.38848e-14 0.604028 12.2546)
(-5.67174e-14 0.355759 11.6088)
(-1.77055e-15 0.100899 11.1966)
(5.0133e-14 0.00465227 10.908)
(5.34676e-14 -0.0239286 10.8245)
(1.11288e-13 0.054612 10.7598)
(1.21978e-13 0.26486 10.4808)
(1.21054e-13 0.309482 9.98208)
(5.58256e-14 -0.126413 9.45923)
(-5.979e-14 -0.674235 9.43612)
(-8.35416e-14 -0.908771 9.93963)
(-1.12396e-14 -0.964317 10.58)
(3.84886e-14 -1.11079 11.1182)
(8.95364e-15 -1.44246 11.6477)
(-2.91701e-14 -1.84939 12.4201)