/*--------------------------------*- C++ -*----------------------------------*\
| =========                 |                                                 |
| \\      /  F ield         | OpenFOAM: The Open Source CFD Toolbox           |
|  \\    /   O peration     | Version:  4.1                                   |
|   \\  /    A nd           | Web:      www.OpenFOAM.org                      |
|    \\/     M anipulation  |                                                 |
\*---------------------------------------------------------------------------*/
FoamFile
{
    version     2.0;
    format      ascii;
    class       volScalarField;
    location    "200";
    object      p;
}
// * * * * * * * * * * * * * * * * * * * * * * * * * * * * * * * * * * * * * //

dimensions      [0 2 -2 0 0 0 0];

internalField   nonuniform List<scalar> 
26785
(
-0.714606
-0.719495
-0.699332
-0.657745
-0.61455
-0.559797
-0.496206
-0.430644
-0.365182
-0.301166
-0.241025
-0.187835
-0.14489
-0.114731
-0.0971467
-0.0892759
-0.0875392
-0.0885794
-0.0899993
-0.0911461
-0.0921592
-0.0923967
-0.0910608
-0.0880753
-0.0837575
-0.0784813
-0.0725169
-0.0659915
-0.0589154
-0.0512091
-0.0427197
-0.0332861
-0.0228186
-0.0111938
0.00175718
0.0157102
0.0297659
0.0432606
0.0559356
0.0676076
0.0780971
0.0872458
0.0949346
0.101095
0.105713
0.108821
0.110494
0.110834
0.109967
0.108026
0.105153
0.101486
0.0971596
0.0923002
0.087028
0.0814517
0.0756722
0.0697793
0.0638549
0.0579707
0.0521914
0.046572
0.0411612
0.0359992
0.0311201
0.0265504
0.022311
0.0184159
0.0148739
0.0116878
0.00885562
0.00637048
0.0042216
0.00239413
0.000870502
-0.000369743
-0.0013487
-0.00209013
-0.00261833
-0.00295813
-0.003134
-0.00317
-0.00308914
-0.00291339
-0.00266319
-0.00235762
-0.00201405
-0.0016484
-0.00127487
-0.000906386
-0.000554159
-0.000228899
6.17504e-05
0.000305754
0.000506674
0.000627497
0.000746195
0.00062094
0.000887542
-0.000393918
-0.710677
-0.719289
-0.699444
-0.657945
-0.614768
-0.559961
-0.496321
-0.430716
-0.365217
-0.301173
-0.241013
-0.187814
-0.144876
-0.114755
-0.0972363
-0.0894215
-0.0877042
-0.0887179
-0.0900656
-0.091126
-0.0920921
-0.0923245
-0.0910023
-0.0880386
-0.0837443
-0.0784886
-0.0725403
-0.0660274
-0.0589625
-0.0512683
-0.0427937
-0.0333777
-0.0229295
-0.0113226
0.00162574
0.0155973
0.0296683
0.0431639
0.0558351
0.0675029
0.0779883
0.0871331
0.0948175
0.100973
0.105586
0.10869
0.110358
0.110695
0.109825
0.107883
0.105009
0.101342
0.0970168
0.0921592
0.0868892
0.0813154
0.0755386
0.0696483
0.0637265
0.0578448
0.0520678
0.0464506
0.0410418
0.0358817
0.0310045
0.0264366
0.0221991
0.0183061
0.0147663
0.0115826
0.00875322
0.00627113
0.00412559
0.00230176
0.000782027
-0.000454088
-0.00142873
-0.0021657
-0.00268937
-0.0030246
-0.00319591
-0.00322743
-0.00314218
-0.00296217
-0.00270787
-0.00239838
-0.00205108
-0.00168188
-0.00130499
-0.000933315
-0.000578062
-0.000249922
4.3479e-05
0.000290141
0.000493628
0.00061703
0.000738377
0.000615814
0.000889028
-0.000402274
-0.704431
-0.719105
-0.699726
-0.658373
-0.615223
-0.560296
-0.496554
-0.430868
-0.365297
-0.301196
-0.240984
-0.187753
-0.144857
-0.114854
-0.0974772
-0.0897538
-0.088042
-0.0889804
-0.0902005
-0.0911543
-0.0920868
-0.0923125
-0.0909922
-0.0880389
-0.0837625
-0.0785288
-0.0726028
-0.0661109
-0.0590662
-0.0513936
-0.0429439
-0.0335557
-0.0231383
-0.011563
0.00137288
0.0153621
0.0294451
0.0429297
0.0555842
0.0672367
0.0777096
0.0868437
0.0945185
0.100665
0.10527
0.108367
0.110031
0.110364
0.109493
0.107551
0.10468
0.101018
0.0966978
0.0918466
0.0865836
0.0810171
0.0752476
0.0693644
0.0634494
0.057574
0.0518028
0.0461909
0.040787
0.0356315
0.0307586
0.0261952
0.0219622
0.0180739
0.0145392
0.0113611
0.00853785
0.00606245
0.00392417
0.00210816
0.000596737
-0.000630644
-0.00159622
-0.00232389
-0.0028381
-0.00316386
-0.00332575
-0.00334799
-0.00325369
-0.0030649
-0.00280216
-0.00248458
-0.00212956
-0.00175302
-0.00136917
-0.000990889
-0.000629353
-0.000295221
3.92673e-06
0.000256122
0.000465043
0.000593692
0.000720839
0.000602901
0.000888075
-0.000414603
-0.696759
-0.719408
-0.700392
-0.659143
-0.615982
-0.560842
-0.496937
-0.431126
-0.365449
-0.301265
-0.240971
-0.187675
-0.144845
-0.115034
-0.0978787
-0.0902982
-0.0886042
-0.0894196
-0.0904149
-0.0912022
-0.0920936
-0.0922985
-0.090971
-0.0880308
-0.0837843
-0.0785883
-0.0726996
-0.0662418
-0.0592296
-0.0515914
-0.0431802
-0.0338344
-0.0234626
-0.0119308
0.000991719
0.0150062
0.0291049
0.042574
0.0552039
0.0668326
0.0772841
0.0863986
0.0940551
0.100185
0.104775
0.107859
0.109514
0.109841
0.108968
0.107028
0.104161
0.100506
0.096195
0.0913545
0.0861031
0.0805486
0.0747911
0.0689195
0.0630155
0.0571504
0.0513887
0.0457856
0.0403899
0.035242
0.0303765
0.0258203
0.0215946
0.017714
0.0141876
0.0110185
0.00820486
0.00573998
0.00361307
0.00180922
0.000310711
-0.000903133
-0.00185467
-0.00256795
-0.00306757
-0.00337869
-0.00352604
-0.00353398
-0.00342571
-0.00322339
-0.00294762
-0.00261758
-0.00225069
-0.00186287
-0.00146832
-0.00107989
-0.000708715
-0.000365407
-5.74745e-05
0.000203172
0.000420344
0.000557006
0.00069258
0.000582144
0.000879986
-0.000425491
-0.687415
-0.719992
-0.701459
-0.660317
-0.61708
-0.561619
-0.497488
-0.431513
-0.365704
-0.301419
-0.241016
-0.187645
-0.144954
-0.11543
-0.0985458
-0.0911011
-0.0893741
-0.0899672
-0.090637
-0.0912558
-0.0921324
-0.0923172
-0.0909782
-0.0880509
-0.0838385
-0.0786852
-0.0728389
-0.0664209
-0.0594485
-0.0518541
-0.0434929
-0.0342025
-0.0238915
-0.012418
0.000483165
0.0145161
0.0286192
0.0420598
0.0546531
0.0662475
0.0766685
0.0857554
0.0933865
0.0994937
0.104064
0.107133
0.108777
0.1091
0.108227
0.106292
0.103435
0.0997922
0.0954969
0.0906733
0.0854398
0.0799034
0.0741637
0.0683092
0.0624212
0.056571
0.050823
0.0452325
0.0398483
0.0347113
0.0298562
0.0253103
0.0210951
0.0172253
0.0137105
0.0105537
0.00775348
0.00530309
0.00319176
0.00140456
-7.63542e-05
-0.00127179
-0.00220428
-0.00289805
-0.00337794
-0.00366926
-0.00379698
-0.00378559
-0.00365847
-0.00343791
-0.00314459
-0.00279774
-0.00241484
-0.00201181
-0.00160283
-0.00120072
-0.000816557
-0.000460879
-0.000141104
0.000130934
0.000359198
0.000506678
0.000653234
0.000553362
0.000863916
-0.000433484
-0.677679
-0.720885
-0.702926
-0.661901
-0.618492
-0.562592
-0.498171
-0.432002
-0.366046
-0.301647
-0.241097
-0.187674
-0.145221
-0.116094
-0.0995115
-0.0921737
-0.0903343
-0.0905718
-0.0908286
-0.0913301
-0.0922201
-0.0923819
-0.091024
-0.0881065
-0.0839273
-0.0788164
-0.0730124
-0.0666355
-0.0597066
-0.0521629
-0.0438614
-0.0346391
-0.0244045
-0.0130042
-0.00013258
0.0139093
0.0280021
0.0413993
0.0539426
0.0654908
0.0758704
0.0849198
0.0925166
0.0985932
0.103138
0.106188
0.10782
0.108138
0.107267
0.105341
0.102499
0.0988746
0.0946007
0.0898007
0.0845915
0.0790795
0.0733636
0.0675318
0.061665
0.0558345
0.0501045
0.0445305
0.0391615
0.0340388
0.0291973
0.0246647
0.020463
0.0166073
0.0131073
0.00996647
0.00718345
0.00475156
0.00266009
0.000894032
-0.00056457
-0.00173669
-0.00264509
-0.00331423
-0.00376918
-0.00403554
-0.00413849
-0.00410274
-0.00395188
-0.00370832
-0.00339287
-0.00302487
-0.00262181
-0.00219963
-0.00177249
-0.00135317
-0.000952673
-0.000581443
-0.000246793
3.95549e-05
0.000281706
0.000442786
0.000602755
0.000516605
0.000839839
-0.000438864
-0.669706
-0.722716
-0.704924
-0.663873
-0.620146
-0.563692
-0.498931
-0.43255
-0.366443
-0.301912
-0.241189
-0.187802
-0.145706
-0.117073
-0.100789
-0.0934969
-0.0914257
-0.0911465
-0.0909718
-0.0914642
-0.0923882
-0.0925165
-0.0911274
-0.0882112
-0.0840583
-0.0789833
-0.0732165
-0.0668777
-0.0599923
-0.0525024
-0.0442671
-0.0351229
-0.0249791
-0.0136672
-0.00083676
0.0131969
0.027257
0.0405903
0.0530662
0.0645536
0.0748795
0.0838807
0.0914342
0.0974731
0.101987
0.105015
0.106634
0.106949
0.106085
0.104173
0.10135
0.0977511
0.0935058
0.0887362
0.0835583
0.0780774
0.0723915
0.0665882
0.060748
0.0549419
0.0492342
0.0436806
0.0383304
0.0332252
0.0284006
0.0238845
0.0196994
0.015861
0.0123792
0.00925778
0.00649569
0.0040863
0.00201893
0.000278502
-0.0011531
-0.00229704
-0.00317634
-0.00381575
-0.00424065
-0.00447691
-0.00455
-0.00448492
-0.00430544
-0.00403419
-0.00369211
-0.00329862
-0.00287129
-0.00242606
-0.00197707
-0.00153704
-0.00111688
-0.000726944
-0.000374405
-7.08477e-05
0.000187962
0.000365413
0.000541204
0.000471942
0.000808187
-0.000442325
-0.663479
-0.725333
-0.707332
-0.666159
-0.62199
-0.564878
-0.499734
-0.433129
-0.36687
-0.302173
-0.241268
-0.188053
-0.146445
-0.118367
-0.102356
-0.0950265
-0.0925628
-0.0916208
-0.0911137
-0.091697
-0.0926515
-0.0927262
-0.0912918
-0.0883671
-0.0842314
-0.0791835
-0.0734464
-0.0671407
-0.0602965
-0.0528611
-0.0446957
-0.0356373
-0.0255967
-0.0143862
-0.00160758
0.0123981
0.0263999
0.0396466
0.0520356
0.0634454
0.0737031
0.0826437
0.0901436
0.0961368
0.100615
0.103618
0.105224
0.105537
0.104682
0.102789
0.0999928
0.0964252
0.0922153
0.0874832
0.0823435
0.0769002
0.0712505
0.0654813
0.0596728
0.0538958
0.0482146
0.0426852
0.0373573
0.0322729
0.0274681
0.0229715
0.0188061
0.014988
0.0115277
0.00842918
0.00569169
0.00330873
0.00126963
-0.000440784
-0.00184077
-0.00295175
-0.00379702
-0.00440168
-0.00479143
-0.00499252
-0.00503074
-0.00493137
-0.00471847
-0.00441486
-0.00404166
-0.00361841
-0.00316272
-0.00269057
-0.00221606
-0.00175185
-0.00130874
-0.000896959
-0.000523552
-0.000199918
7.82877e-05
0.000274842
0.000468857
0.000419572
0.000769635
-0.000444658
-0.658873
-0.729145
-0.710314
-0.668783
-0.624002
-0.56612
-0.500548
-0.433717
-0.367301
-0.302389
-0.241352
-0.188453
-0.147476
-0.119974
-0.104177
-0.0966943
-0.0936385
-0.0919511
-0.091324
-0.0920537
-0.0930135
-0.0930122
-0.0915204
-0.0885775
-0.0844488
-0.0794178
-0.0737016
-0.067422
-0.0606146
-0.0532318
-0.0451373
-0.0361699
-0.0262426
-0.0151442
-0.00242735
0.0115274
0.0254413
0.0385759
0.0508567
0.0621708
0.0723448
0.0812118
0.0886476
0.0945873
0.0990239
0.102
0.103593
0.103907
0.103065
0.101196
0.0984316
0.0949023
0.0907347
0.0860471
0.0809522
0.0755529
0.0699453
0.0642156
0.0584437
0.0527002
0.0470495
0.0415479
0.0362455
0.0311849
0.0264028
0.0219286
0.0177857
0.0139909
0.0105551
0.00748285
0.00477351
0.00242076
0.000413959
-0.00126215
-0.00262603
-0.00369936
-0.00450578
-0.00507076
-0.00542039
-0.00558132
-0.0055797
-0.00544118
-0.00519009
-0.00484952
-0.00444077
-0.00398351
-0.00349543
-0.00299253
-0.00248886
-0.00199703
-0.00152771
-0.00109101
-0.000693786
-0.000347247
-4.69412e-05
0.00017141
0.000386063
0.00035974
0.00072489
-0.000446576
-0.655685
-0.733895
-0.713714
-0.671652
-0.626111
-0.567365
-0.501335
-0.434285
-0.367694
-0.302516
-0.241485
-0.189032
-0.148812
-0.121866
-0.106204
-0.0984067
-0.0945268
-0.092166
-0.0916575
-0.0925381
-0.0934668
-0.0933714
-0.0918137
-0.0888445
-0.0847126
-0.0796882
-0.0739833
-0.0677217
-0.0609449
-0.0536109
-0.045586
-0.0367124
-0.0269064
-0.0159275
-0.00327994
0.0105995
0.0243934
0.0373892
0.0495396
0.0607388
0.0708128
0.0795925
0.0869534
0.0928317
0.0972222
0.100168
0.101749
0.102066
0.101241
0.0994008
0.096675
0.0931905
0.0890718
0.0844351
0.0793914
0.074042
0.0684821
0.062797
0.0570662
0.0513602
0.0457437
0.0402731
0.0349992
0.0299652
0.0252085
0.0207591
0.0166414
0.0128727
0.00946436
0.00642145
0.00374361
0.00142468
-0.000545955
-0.00218365
-0.00350707
-0.00453822
-0.00530109
-0.00582157
-0.00612621
-0.00624207
-0.00619574
-0.00601326
-0.00571929
-0.00533721
-0.00488852
-0.00439306
-0.0038686
-0.00333114
-0.00279474
-0.00227188
-0.00177316
-0.00130847
-0.000884534
-0.000512302
-0.000187232
5.55604e-05
0.000293267
0.000292767
0.000674653
-0.00044863
-0.655419
-0.739447
-0.717431
-0.674719
-0.628269
-0.568567
-0.502061
-0.434801
-0.367991
-0.302524
-0.241697
-0.189832
-0.150448
-0.124009
-0.108372
-0.100028
-0.0951414
-0.0924095
-0.0921544
-0.0931431
-0.0940032
-0.0938023
-0.0921741
-0.0891713
-0.0850268
-0.0799986
-0.0742951
-0.0680427
-0.0612889
-0.0539979
-0.0460389
-0.0372601
-0.0275808
-0.0167252
-0.0041528
0.00962575
0.0232655
0.0360948
0.0480922
0.0591572
0.0691145
0.0777934
0.0850688
0.0908784
0.0952185
0.0981336
0.0997018
0.100025
0.0992215
0.0974149
0.0947329
0.0912992
0.0872356
0.0826559
0.0776692
0.0723753
0.066868
0.0612321
0.0555465
0.0498817
0.0443026
0.0388659
0.0336232
0.0286182
0.0238893
0.0194672
0.015377
0.0116368
0.00825863
0.00524794
0.00260474
0.000323029
-0.00160777
-0.00320313
-0.00448193
-0.00546651
-0.00618128
-0.00665258
-0.00690745
-0.00697345
-0.00687763
-0.00664645
-0.00630497
-0.00587688
-0.00538393
-0.00484612
-0.00428132
-0.00370557
-0.00313288
-0.00257566
-0.00204434
-0.00154868
-0.00109517
-0.000694504
-0.000342052
-7.22281e-05
0.00019094
0.000218998
0.000619543
-0.000451227
-0.658869
-0.745895
-0.721376
-0.67787
-0.630383
-0.569663
-0.50269
-0.435238
-0.368145
-0.30243
-0.241999
-0.190879
-0.152355
-0.126354
-0.110589
-0.101405
-0.0955156
-0.0928159
-0.0928248
-0.0938529
-0.0946149
-0.0943043
-0.0926036
-0.0895617
-0.085396
-0.0803544
-0.0746423
-0.0683895
-0.0616501
-0.0543944
-0.046496
-0.0378111
-0.0282615
-0.0175289
-0.00503611
0.0086154
0.0220658
0.0347009
0.0465227
0.0574342
0.0672585
0.075823
0.083003
0.0887371
0.0930232
0.0959061
0.0974635
0.0977949
0.0970168
0.095249
0.0926163
0.089239
0.0852362
0.0807191
0.0757947
0.0705611
0.065111
0.0595284
0.0538917
0.0482713
0.0427324
0.0373322
0.0321229
0.0271491
0.0224499
0.018057
0.0139965
0.010287
0.00694143
0.00396559
0.00135989
-0.000881455
-0.00276899
-0.0043183
-0.00554852
-0.00648234
-0.00714461
-0.00756219
-0.00776264
-0.00777407
-0.00762406
-0.00733953
-0.00694598
-0.00646744
-0.00592595
-0.00534168
-0.00473263
-0.00411489
-0.00350241
-0.00290751
-0.00234049
-0.00181089
-0.001325
-0.000893222
-0.000510819
-0.000211438
7.95756e-05
0.000138801
0.000560102
-0.000454632
-0.664016
-0.753006
-0.725503
-0.681068
-0.632418
-0.570629
-0.503211
-0.435567
-0.368116
-0.302294
-0.242394
-0.192197
-0.15451
-0.128849
-0.112726
-0.102405
-0.0958159
-0.0934271
-0.0936405
-0.0946472
-0.0952966
-0.094878
-0.0931047
-0.0900193
-0.0858254
-0.0807616
-0.0750315
-0.0687684
-0.0620338
-0.0548045
-0.0469594
-0.0383659
-0.0289465
-0.0183318
-0.00592348
0.00757425
0.0208
0.0332137
0.0448381
0.0555774
0.0652529
0.0736905
0.0807656
0.0864184
0.0906475
0.0934979
0.0950458
0.0953887
0.0946397
0.0929153
0.0903368
0.0870211
0.0830842
0.0786346
0.0737772
0.0686084
0.0632195
0.0576937
0.052109
0.0465358
0.0410395
0.035678
0.030504
0.0255631
0.0208953
0.0165335
0.0125043
0.0088275
0.0055165
0.0025778
1.21862e-05
-0.00218592
-0.00402703
-0.00552682
-0.0067047
-0.00758375
-0.0081893
-0.00854876
-0.00869027
-0.00864254
-0.00843371
-0.00809126
-0.00764113
-0.00710776
-0.00651348
-0.0058787
-0.00522154
-0.00455813
-0.00390241
-0.00326659
-0.00266079
-0.00209434
-0.00157333
-0.0011078
-0.00069294
-0.000361541
-4.03389e-05
5.2541e-05
0.000496781
-0.000459004
-0.670812
-0.761029
-0.729809
-0.684245
-0.634307
-0.571415
-0.503591
-0.435732
-0.367877
-0.302192
-0.242915
-0.193769
-0.156872
-0.131426
-0.114603
-0.102964
-0.0962482
-0.0942444
-0.0945719
-0.0955141
-0.0960464
-0.0955238
-0.0936791
-0.0905473
-0.0863196
-0.0812262
-0.0754691
-0.069186
-0.062446
-0.055233
-0.0474329
-0.0389272
-0.0296355
-0.0191283
-0.00681198
0.00650431
0.0194718
0.0316383
0.0430446
0.0535941
0.0631059
0.0714048
0.078367
0.0839335
0.0881036
0.0909215
0.0924618
0.092819
0.0921029
0.0904263
0.0879065
0.084657
0.0807906
0.076413
0.0716268
0.0665265
0.0612022
0.0557362
0.0502062
0.0446826
0.0392309
0.0339096
0.0287725
0.0238659
0.0192309
0.0149013
0.010905
0.00726234
0.00398769
0.00108812
-0.00143515
-0.00358745
-0.00537923
-0.00682629
-0.00794832
-0.0087688
-0.00931358
-0.00961067
-0.00968884
-0.00957746
-0.00930529
-0.00890039
-0.00838923
-0.00779668
-0.00714542
-0.00645611
-0.00574702
-0.00503433
-0.00433195
-0.00365198
-0.00300438
-0.00239824
-0.00183941
-0.00133758
-0.000887807
-0.000522003
-0.000168324
-3.94202e-05
0.000429962
-0.000464422
-0.679074
-0.769681
-0.734159
-0.687334
-0.636002
-0.57199
-0.503795
-0.435665
-0.367435
-0.302169
-0.243639
-0.195594
-0.159418
-0.133981
-0.11601
-0.103259
-0.0969359
-0.0952468
-0.0955983
-0.0964478
-0.0968625
-0.0962402
-0.0943262
-0.0911472
-0.0868821
-0.0817535
-0.0759617
-0.0696492
-0.0628934
-0.0556861
-0.0479215
-0.0394991
-0.0303295
-0.0199138
-0.00769934
0.00540413
0.0180815
0.0299777
0.0411471
0.0514906
0.0608253
0.0689753
0.0758175
0.0812939
0.0854036
0.0881898
0.0897245
0.0900991
0.0894195
0.0877945
0.0853376
0.0821584
0.0783665
0.0740648
0.0693532
0.0643247
0.059068
0.0536644
0.0481912
0.0427189
0.0373134
0.0320338
0.0269346
0.0220633
0.0174621
0.0131657
0.00920317
0.00559586
0.00235893
-0.000499875
-0.00297888
-0.00508313
-0.00682299
-0.00821438
-0.00927727
-0.0100356
-0.0105157
-0.0107463
-0.0107569
-0.0105775
-0.0102375
-0.0097657
-0.00918911
-0.00853308
-0.00782069
-0.00707285
-0.00630804
-0.00554248
-0.00479006
-0.00406278
-0.0033704
-0.00272179
-0.00212251
-0.00158187
-0.00109481
-0.000692296
-0.000303919
-0.000136736
0.00035996
-0.000470907
-0.68999
-0.77873
-0.738424
-0.690274
-0.637465
-0.572337
-0.50379
-0.435301
-0.366821
-0.302178
-0.244586
-0.197653
-0.162107
-0.136321
-0.11685
-0.103687
-0.0979051
-0.0963967
-0.0967022
-0.097442
-0.0977399
-0.0970226
-0.0950429
-0.0918182
-0.0875148
-0.0823473
-0.0765146
-0.0701641
-0.0633825
-0.0561696
-0.0484311
-0.0400864
-0.0310295
-0.0206849
-0.00858307
0.00427291
0.0166298
0.0282346
0.03915
0.0492733
0.058419
0.0664113
0.0731279
0.0785113
0.0825602
0.0853157
0.0868471
0.087242
0.0866023
0.0850326
0.0826421
0.0795369
0.075823
0.0716003
0.0669665
0.0620125
0.0568256
0.0514865
0.046072
0.0406524
0.0352942
0.0300572
0.0249967
0.0201613
0.0155943
0.0113317
0.00740362
0.00383243
0.000634199
-0.00218261
-0.00461579
-0.00667007
-0.00835573
-0.00968878
-0.0106895
-0.0113823
-0.0117941
-0.0119543
-0.0118931
-0.0116413
-0.0112291
-0.010686
-0.0100396
-0.00931585
-0.00853819
-0.00772787
-0.00690356
-0.00608158
-0.00527579
-0.00449807
-0.00375801
-0.00306418
-0.00242188
-0.00184002
-0.00131336
-0.000871899
-0.000446678
-0.000239073
0.000287043
-0.000478443
-0.704031
-0.788146
-0.742513
-0.693009
-0.638682
-0.572471
-0.503565
-0.43463
-0.366154
-0.302192
-0.245736
-0.199913
-0.164854
-0.138213
-0.117277
-0.104476
-0.0991287
-0.0976621
-0.0978713
-0.0984882
-0.0986696
-0.0978628
-0.0958233
-0.0925573
-0.0882175
-0.0830098
-0.0771319
-0.0707363
-0.0639192
-0.0566897
-0.0489676
-0.0406947
-0.0317366
-0.0214418
-0.00947001
0.00310517
0.0151149
0.0264103
0.0370573
0.0469478
0.0558946
0.0637221
0.0703088
0.0755976
0.0795858
0.0823122
0.0838427
0.0842607
0.083664
0.0821526
0.0798319
0.0768037
0.0731708
0.0690299
0.0644763
0.059599
0.0544841
0.049211
0.0438564
0.0384906
0.0331805
0.0279865
0.022965
0.0181658
0.0136332
0.00940453
0.00551108
0.00197637
-0.00118259
-0.00395654
-0.00634271
-0.00834547
-0.00997496
-0.0112473
-0.0121831
-0.0128071
-0.0131471
-0.013233
-0.013096
-0.0127676
-0.012279
-0.0116602
-0.0109397
-0.0101439
-0.00929687
-0.00842013
-0.00753258
-0.00665066
-0.00578819
-0.00495696
-0.00416633
-0.00342461
-0.00273679
-0.00211134
-0.00154285
-0.0010603
-0.000596177
-0.000346115
0.000211444
-0.000486995
-0.719098
-0.797694
-0.74639
-0.695513
-0.639646
-0.572395
-0.50309
-0.433662
-0.365518
-0.302275
-0.247094
-0.202367
-0.16752
-0.139466
-0.117695
-0.105625
-0.10054
-0.0990133
-0.099091
-0.099573
-0.0996386
-0.098749
-0.0966582
-0.0933583
-0.0889871
-0.0837411
-0.077816
-0.0713698
-0.0645088
-0.057252
-0.0495375
-0.0413294
-0.03245
-0.0221844
-0.0103719
0.00188841
0.0135314
0.0245044
0.0348716
0.0445195
0.0532596
0.0609169
0.0673711
0.0725645
0.0764928
0.0791919
0.0807238
0.0811677
0.0806167
0.0791667
0.0769184
0.0739699
0.0704203
0.0663636
0.0618923
0.0570935
0.0520519
0.0468461
0.0415523
0.036241
0.0309793
0.0258286
0.0208461
0.0160827
0.0115843
0.00738928
0.00353027
3.19733e-05
-0.00308755
-0.00581821
-0.00815657
-0.0101066
-0.0116783
-0.0128878
-0.0137561
-0.0143085
-0.0145733
-0.0145813
-0.0143645
-0.0139554
-0.013386
-0.0126872
-0.0118883
-0.0110163
-0.0100957
-0.00914863
-0.00819412
-0.00724873
-0.00632632
-0.00543852
-0.00459451
-0.00380228
-0.0030665
-0.00239517
-0.00178271
-0.00125701
-0.000752003
-0.000457558
0.000133368
-0.000496513
-0.735326
-0.807412
-0.749985
-0.69773
-0.640332
-0.572083
-0.502306
-0.432457
-0.364956
-0.302508
-0.248676
-0.205006
-0.169868
-0.140032
-0.118469
-0.107095
-0.10209
-0.100429
-0.100344
-0.100679
-0.10063
-0.099667
-0.0975361
-0.0942127
-0.0898183
-0.0845388
-0.0785672
-0.0720671
-0.0651551
-0.0578614
-0.0501469
-0.0419957
-0.0331675
-0.0229113
-0.0112905
0.000613621
0.0118748
0.0225159
0.0325951
0.0419933
0.0505211
0.058005
0.0643251
0.0694234
0.0732933
0.0759671
0.0775027
0.0779749
0.0774723
0.076086
0.0739125
0.0710459
0.0675818
0.063611
0.0592237
0.0545049
0.0495377
0.0444001
0.0391677
0.033911
0.0286978
0.0235901
0.0186461
0.0139181
0.0094531
0.00529105
0.00146583
-0.00199655
-0.00507693
-0.00776427
-0.0100544
-0.0119509
-0.0134635
-0.0146085
-0.015407
-0.015885
-0.0160714
-0.015998
-0.0156976
-0.0152037
-0.0145492
-0.0137662
-0.0128844
-0.011932
-0.0109338
-0.0099124
-0.00888719
-0.00787486
-0.00688925
-0.00594188
-0.0050417
-0.0041964
-0.00341027
-0.00269086
-0.00203235
-0.00146153
-0.000913762
-0.000573115
5.30012e-05
-0.000506943
-0.752685
-0.817055
-0.753179
-0.699616
-0.640733
-0.571512
-0.50116
-0.431073
-0.3644
-0.302939
-0.250501
-0.20774
-0.17159
-0.140272
-0.119703
-0.108814
-0.103741
-0.101886
-0.101608
-0.101786
-0.101626
-0.1006
-0.0984431
-0.0951098
-0.0907035
-0.0853983
-0.0793837
-0.072829
-0.0658607
-0.058522
-0.0508014
-0.0426968
-0.0338878
-0.0236346
-0.0122292
-0.00072228
0.0101436
0.0204455
0.0302307
0.0393743
0.0476867
0.0549954
0.0611815
0.0661857
0.0699988
0.0726494
0.0741911
0.074694
0.0742419
0.0729214
0.0708247
0.0680419
0.0646649
0.0607816
0.0564795
0.0518416
0.0469497
0.0418807
0.03671
0.031508
0.0263429
0.0212776
0.0163714
0.0116777
0.00724509
0.00311484
-0.000677675
-0.00410511
-0.00714707
-0.00979149
-0.0120335
-0.0138759
-0.0153285
-0.0164074
-0.0171342
-0.0175352
-0.0176403
-0.017482
-0.0170942
-0.0165114
-0.0157677
-0.0148961
-0.0139273
-0.01289
-0.0118102
-0.0107105
-0.00961087
-0.0085281
-0.00747605
-0.00646613
-0.00550705
-0.00460616
-0.00376739
-0.00299775
-0.0022912
-0.00167338
-0.00108107
-0.000692503
-2.94819e-05
-0.000518229
-0.771514
-0.826307
-0.755854
-0.701147
-0.640861
-0.570656
-0.499641
-0.429644
-0.36377
-0.303539
-0.252572
-0.210391
-0.17258
-0.140857
-0.121368
-0.110708
-0.105457
-0.103357
-0.102861
-0.102872
-0.102607
-0.101532
-0.0993644
-0.0960374
-0.0916334
-0.0863131
-0.0802619
-0.0736542
-0.0666264
-0.0592369
-0.0515061
-0.0434335
-0.0346058
-0.0243732
-0.0132111
-0.00213
0.00833349
0.0182925
0.0277808
0.0366676
0.0447634
0.0518972
0.0579504
0.0628621
0.0666205
0.0692502
0.0708001
0.0713357
0.0709361
0.0696832
0.0676649
0.0649674
0.0616789
0.0578841
0.0536682
0.0491121
0.044296
0.0392959
0.0341868
0.0290391
0.0239216
0.0188977
0.0140281
0.00936738
0.00496556
0.000865539
-0.00289583
-0.00628973
-0.00929445
-0.0118968
-0.014091
-0.0158794
-0.0172713
-0.018283
-0.0189363
-0.019258
-0.0192789
-0.0190324
-0.0185535
-0.0178779
-0.0170408
-0.0160762
-0.015016
-0.0138897
-0.0127239
-0.0115421
-0.0103643
-0.00920755
-0.00808584
-0.00701041
-0.00598973
-0.00503079
-0.00413714
-0.00331521
-0.0025587
-0.00189209
-0.00125354
-0.000815454
-0.000113917
-0.000530316
-0.79225
-0.83519
-0.758006
-0.702359
-0.640787
-0.569555
-0.497805
-0.428258
-0.363127
-0.304328
-0.254881
-0.21266
-0.172963
-0.142085
-0.1234
-0.112728
-0.107209
-0.104817
-0.104076
-0.103916
-0.103553
-0.102444
-0.100284
-0.0969815
-0.0925967
-0.0872751
-0.0811967
-0.0745403
-0.0674519
-0.0600082
-0.0522649
-0.0442039
-0.0353177
-0.0251356
-0.0142573
-0.00362091
0.00643925
0.0160559
0.0252476
0.0338783
0.0417587
0.0487192
0.0546415
0.0594632
0.0631691
0.06578
0.0673401
0.0679104
0.0675648
0.0663811
0.0644426
0.0618314
0.0586325
0.0549273
0.0507982
0.0463243
0.0415843
0.0366532
0.0316053
0.0265114
0.0214404
0.0164568
0.0116222
0.00699266
0.00261972
-0.00145211
-0.00518434
-0.00854659
-0.0115157
-0.0140773
-0.0162246
-0.0179593
-0.0192903
-0.0202339
-0.0208121
-0.0210525
-0.0209864
-0.0206485
-0.0200749
-0.0193025
-0.0183678
-0.0173059
-0.0161498
-0.0149303
-0.0136744
-0.0124063
-0.0111465
-0.00991232
-0.00871773
-0.00757384
-0.0064889
-0.0054695
-0.00451878
-0.00364258
-0.00283429
-0.00211719
-0.00143081
-0.000941701
-0.000200144
-0.000543149
-0.813562
-0.843474
-0.759611
-0.703238
-0.640499
-0.568193
-0.495775
-0.426979
-0.362583
-0.305366
-0.257347
-0.214212
-0.173229
-0.143834
-0.125653
-0.114816
-0.108963
-0.106239
-0.105233
-0.104897
-0.104446
-0.103318
-0.101185
-0.0979276
-0.0935811
-0.0882745
-0.0821811
-0.0754831
-0.0683355
-0.0608376
-0.0530799
-0.0450018
-0.0360284
-0.0259397
-0.0153889
-0.0052039
0.00445739
0.0137356
0.022634
0.0310117
0.0386798
0.04547
0.0512643
0.0559986
0.0596545
0.0622487
0.063821
0.0644274
0.0641374
0.063024
0.0611664
0.0586426
0.0555341
0.051919
0.0478774
0.0434861
0.0388222
0.0339598
0.0289727
0.0239316
0.018906
0.013961
0.00915954
0.00455903
0.000212599
-0.00383351
-0.00753908
-0.010872
-0.0138077
-0.0163303
-0.0184319
-0.0201137
-0.0213839
-0.0222587
-0.0227606
-0.0229177
-0.0227622
-0.0223298
-0.0216579
-0.0207847
-0.0197481
-0.0185845
-0.0173283
-0.0160109
-0.0146607
-0.0133022
-0.0119567
-0.0106416
-0.00937084
-0.00815557
-0.00700373
-0.00592152
-0.0049116
-0.00397921
-0.00311741
-0.00234822
-0.00161251
-0.00107098
-0.000288006
-0.000556675
-0.835981
-0.851192
-0.760688
-0.703783
-0.639966
-0.566532
-0.493629
-0.425755
-0.362235
-0.306723
-0.259801
-0.214956
-0.174031
-0.14604
-0.128056
-0.116935
-0.11069
-0.107599
-0.106312
-0.105801
-0.105271
-0.10414
-0.102053
-0.0988607
-0.0945729
-0.0892999
-0.0832065
-0.0764767
-0.0692741
-0.061726
-0.0539509
-0.0458185
-0.0367496
-0.0267996
-0.0166263
-0.00688898
0.00238397
0.0113317
0.0199433
0.0280734
0.0355339
0.0421581
0.0478279
0.0524777
0.0560861
0.0586657
0.0602518
0.0608958
0.0606626
0.0596205
0.0578446
0.0554091
0.0523915
0.0488672
0.0449133
0.0406047
0.0360169
0.0312228
0.0262958
0.0213065
0.0163246
0.0114165
0.00664588
0.00207182
-0.00225089
-0.00627422
-0.00995607
-0.0132626
-0.0161673
-0.0186531
-0.0207109
-0.0223407
-0.0235506
-0.0243565
-0.0247811
-0.0248532
-0.0246058
-0.0240759
-0.0233021
-0.0223242
-0.0211814
-0.0199117
-0.0185507
-0.0171311
-0.0156822
-0.0142293
-0.0127941
-0.0113944
-0.0100443
-0.00875474
-0.00753339
-0.00638604
-0.00531487
-0.00432445
-0.00340749
-0.0025847
-0.00179827
-0.00120304
-0.000377349
-0.000570843
-0.859922
-0.858387
-0.761257
-0.703973
-0.639131
-0.564566
-0.491514
-0.424464
-0.362087
-0.308399
-0.261911
-0.215133
-0.175574
-0.148592
-0.130548
-0.119054
-0.112367
-0.108878
-0.107299
-0.106614
-0.106014
-0.104895
-0.102873
-0.0997667
-0.095559
-0.0903394
-0.0842632
-0.0775138
-0.0702637
-0.0626729
-0.0548724
-0.0466428
-0.0375057
-0.0277357
-0.0179773
-0.00867944
0.000218089
0.00884591
0.0171794
0.0250692
0.0323282
0.0387913
0.0443407
0.0489092
0.0524726
0.0550395
0.056641
0.0573238
0.0571483
0.0561785
0.054485
0.0521382
0.0492121
0.0457789
0.0419131
0.0376873
0.0331753
0.028449
0.0235812
0.0186423
0.0137026
0.00882899
0.00408671
-0.000463821
-0.00476603
-0.00876995
-0.0124315
-0.0157148
-0.0185918
-0.0210435
-0.0230595
-0.024639
-0.0257893
-0.0265264
-0.0268729
-0.0268584
-0.0265169
-0.0258865
-0.0250073
-0.0239207
-0.0226674
-0.0212871
-0.0198168
-0.0182904
-0.0167382
-0.0151867
-0.0136579
-0.01217
-0.0107373
-0.0093705
-0.00807705
-0.00686227
-0.00572785
-0.00467765
-0.00370396
-0.00282617
-0.00198773
-0.00133761
-0.000468018
-0.000585603
-0.884475
-0.864827
-0.761378
-0.703844
-0.637946
-0.562265
-0.489497
-0.423132
-0.362175
-0.31033
-0.263311
-0.215308
-0.177686
-0.151331
-0.133071
-0.121141
-0.11397
-0.110062
-0.108183
-0.107326
-0.106666
-0.105573
-0.103633
-0.100633
-0.0965263
-0.0913813
-0.0853411
-0.0785861
-0.0712995
-0.0636769
-0.0558345
-0.0474689
-0.0383134
-0.0287789
-0.0194534
-0.0105791
-0.00204048
0.00628066
0.0143468
0.0220053
0.0290699
0.0353775
0.0408107
0.0453012
0.048822
0.051378
0.0529963
0.053719
0.0536021
0.0527051
0.0510947
0.0488372
0.0460031
0.0426613
0.0388837
0.0347405
0.0303041
0.0256449
0.0208352
0.0159453
0.0110457
0.0062043
0.00148741
-0.00304292
-0.00732825
-0.0113166
-0.0149617
-0.0182257
-0.0210784
-0.0234991
-0.0254761
-0.0270072
-0.0280991
-0.0287676
-0.0290356
-0.0289331
-0.0284953
-0.0277616
-0.0267735
-0.0255742
-0.0242061
-0.0227105
-0.0211261
-0.0194882
-0.0178284
-0.0161738
-0.0145474
-0.0129677
-0.0114489
-0.010002
-0.00863385
-0.00734942
-0.00614981
-0.00503813
-0.00400624
-0.00307214
-0.0021805
-0.00147443
-0.000559856
-0.000600904
-0.910162
-0.87076
-0.761358
-0.703605
-0.636523
-0.559792
-0.487626
-0.421863
-0.362566
-0.312357
-0.2639
-0.21612
-0.180259
-0.154176
-0.135593
-0.123173
-0.115486
-0.111142
-0.108958
-0.10793
-0.107218
-0.106164
-0.104322
-0.101448
-0.0974634
-0.0924143
-0.0864298
-0.0796852
-0.0723772
-0.0647335
-0.0568229
-0.0483108
-0.0391972
-0.029956
-0.0210622
-0.0125899
-0.0043906
0.00363943
0.0114508
0.0188879
0.0257659
0.0319238
0.0372452
0.041661
0.0451415
0.0476885
0.0493247
0.0500883
0.0500307
0.0492073
0.0476804
0.0455126
0.0427708
0.0395207
0.0358314
0.0317709
0.0274096
0.0228169
0.0180642
0.0132215
0.0083599
0.00354788
-0.00114686
-0.00566066
-0.00993315
-0.0139102
-0.0175432
-0.0207922
-0.0236246
-0.026018
-0.0279589
-0.029444
-0.0304792
-0.0310798
-0.031269
-0.0310774
-0.0305413
-0.0297014
-0.0286009
-0.0272848
-0.0257974
-0.0241818
-0.0224785
-0.0207243
-0.018952
-0.01719
-0.0154618
-0.0137865
-0.0121784
-0.0106483
-0.00920295
-0.00784666
-0.00657997
-0.00540522
-0.00431374
-0.00332212
-0.00237622
-0.00161324
-0.000652708
-0.000616696
-0.936619
-0.875693
-0.761195
-0.703316
-0.63486
-0.557232
-0.485899
-0.420818
-0.363336
-0.31414
-0.263845
-0.217731
-0.183159
-0.15707
-0.138087
-0.125135
-0.116906
-0.112113
-0.10962
-0.108424
-0.107666
-0.106662
-0.104933
-0.102201
-0.0983595
-0.0934279
-0.0875195
-0.0808029
-0.0734924
-0.0658338
-0.0578183
-0.0491865
-0.0401811