/*--------------------------------*- C++ -*----------------------------------*\
| =========                 |                                                 |
| \\      /  F ield         | OpenFOAM: The Open Source CFD Toolbox           |
|  \\    /   O peration     | Version:  4.1                                   |
|   \\  /    A nd           | Web:      www.OpenFOAM.org                      |
|    \\/     M anipulation  |                                                 |
\*---------------------------------------------------------------------------*/
FoamFile
{
    version     2.0;
    format      ascii;
    class       surfaceScalarField;
    location    "200";
    object      phi;
}
// * * * * * * * * * * * * * * * * * * * * * * * * * * * * * * * * * * * * * //

dimensions      [0 3 -1 0 0 0 0];

internalField   nonuniform List<scalar> 
52920
(
409.355
11.4745
421.317
-11.9619
444.122
-22.8051
469.884
-25.7615
494.49
-24.6058
516.691
-22.2001
536.447
-19.7557
554.063
-17.6161
569.786
-15.7232
583.579
-13.7922
595.021
-11.4413
603.363
-8.3425
607.796
-4.43274
607.868
-0.0711118
603.909
3.95888
597.124
6.78499
589.259
7.86585
582.144
7.11544
577.321
4.82336
575.799
1.52233
578.01
-2.2113
583.965
-5.95454
593.354
-9.38827
605.568
-12.2141
619.809
-14.2402
635.219
-15.4098
650.985
-15.7659
666.385
-15.3995
680.796
-14.4115
693.697
-12.9001
704.664
-10.9669
713.398
-8.73434
719.762
-6.36367
723.82
-4.05781
725.83
-2.00887
726.099
-0.26917
724.813
1.28582
722.053
2.76059
717.893
4.16031
712.427
5.4663
705.764
6.66288
698.024
7.74022
689.332
8.69301
679.813
9.51886
669.596
10.2175
658.805
10.7906
647.564
11.242
635.986
11.5777
624.181
11.8056
612.246
11.935
600.27
11.9766
588.328
11.9414
576.488
11.8405
564.804
11.6848
553.319
11.4844
542.07
11.2491
531.083
10.9873
520.376
10.7069
509.962
10.4147
499.846
10.1163
490.029
9.81653
480.51
9.51914
471.283
9.22679
462.342
8.94118
453.679
8.66315
445.286
8.39275
437.157
8.12942
429.285
7.8722
421.665
7.61996
414.293
7.37148
407.168
7.12574
400.286
6.88195
393.646
6.63965
387.247
6.39873
381.088
6.15945
375.166
5.92232
369.478
5.68812
364.02
5.45771
358.788
5.23206
353.776
5.01209
348.977
4.79861
344.385
4.59229
339.991
4.39361
335.789
4.20282
331.769
4.01996
327.924
3.84484
324.247
3.67709
320.731
3.51615
317.369
3.36133
314.158
3.21181
311.091
3.06668
308.166
2.92492
305.381
2.78544
302.733
2.64711
300.225
2.50847
297.856
2.36879
295.632
2.22383
293.554
2.07824
291.644
1.90988
1.70157
431.574
14.1053
447.934
-28.3221
472.602
-47.4728
498.815
-51.9743
523.147
-48.9372
544.729
-43.7821
563.665
-38.6908
580.308
-34.2594
595.009
-30.4235
607.941
-26.7242
618.947
-22.4472
627.418
-16.8125
632.397
-9.41119
633.128
-0.802449
629.744
7.34391
623.351
13.1778
615.605
15.6121
608.234
14.4875
602.703
10.354
600.107
4.11855
601.233
-3.33694
606.436
-11.1564
615.424
-18.3767
627.387
-24.1768
641.29
-28.1423
656.135
-30.2544
671.095
-30.7262
685.535
-29.8393
698.977
-27.8528
711.057
-24.9794
721.495
-21.405
730.087
-17.3264
736.718
-12.994
741.391
-8.73065
744.23
-4.84761
745.387
-1.42566
744.93
1.74291
742.875
4.81646
739.255
7.78006
734.145
10.5768
727.65
13.1576
719.902
15.4884
711.048
17.548
701.241
19.3255
690.641
20.8183
679.401
22.0308
667.669
22.9742
655.582
23.665
643.264
24.1237
630.825
24.3739
618.362
24.4406
605.954
24.3493
593.67
24.1245
581.565
23.7899
569.683
23.3671
558.056
22.8758
546.71
22.3338
535.66
21.7565
524.918
21.1574
514.486
20.5477
504.366
19.9366
494.554
19.3313
485.044
18.7368
475.829
18.1563
466.901
17.5912
458.252
17.0415
449.876
16.5061
441.765
15.983
433.915
15.4699
426.322
14.9647
418.982
14.4652
411.894
13.97
405.056
13.4783
398.465
12.9897
392.119
12.505
386.017
12.0249
380.154
11.5511
374.526
11.0853
369.129
10.6292
363.957
10.1847
359.002
9.75327
354.258
9.33627
349.717
8.9346
345.371
8.54873
341.212
8.17874
337.233
7.82425
333.426
7.48453
329.783
7.15849
326.3
6.84475
322.97
6.5417
319.789
6.2475
316.754
5.96018
313.862
5.67751
311.112
5.39736
308.504
5.11651
306.038
4.8342
303.721
4.54143
301.552
4.24659
299.535
3.92682
3.47056
455.065
6.32485
479.333
-52.5897
508.666
-76.8054
536.797
-80.1057
561.394
-73.5335
582.335
-64.7235
600.078
-56.4332
615.098
-49.2793
627.785
-43.1107
638.374
-37.312
646.819
-30.892
652.664
-22.6573
655.098
-11.8453
653.552
0.743829
648.382
12.5137
640.832
20.7288
632.581
23.8627
625.365
21.7038
620.685
15.0351
619.671
5.13213
623.042
-6.70699
630.802
-18.9163
642.097
-29.6711
655.633
-37.7135
670.164
-42.6727
684.731
-44.8209
698.692
-44.6875
711.648
-42.7945
723.348
-39.5527
733.63
-35.2612
742.381
-30.1558
749.526
-24.4711
755.036
-18.5041
758.95
-12.6443
761.361
-7.25795
762.329
-2.39369
761.82
2.2519
759.768
6.86845
756.142
11.4069
750.962
15.7567
744.303
19.8168
736.283
23.5089
727.052
26.7793
716.781
29.5965
705.651
31.9488
693.841
33.8413
681.521
35.2939
668.849
36.337
655.965
37.0089
642.987
37.3519
630.018
37.4096
617.142
37.2253
604.427
36.8398
591.926
36.2911
579.68
35.6133
567.719
34.8372
556.063
33.9894
544.726
33.0933
533.715
32.1686
523.031
31.2317
512.672
30.2957
502.633
29.3705
492.907
28.4632
483.485
27.578
474.36
26.7165
465.523
25.8784
456.968
25.0618
448.687
24.2637
440.676
23.4809
432.93
22.71
425.448
21.9481
418.224
21.1933
411.258
20.4442
404.547
19.7009
398.088
18.964
391.878
18.2353
385.912
17.5168
380.187
16.811
374.695
16.1207
369.431
15.4484
364.388
14.7963
359.558
14.1663
354.933
13.5596
350.505
12.9768
346.266
12.418
342.208
11.8826
338.323
11.3694
334.605
10.8768
331.047
10.4026
327.644
9.94444
324.392
9.4996
321.287
9.06512
318.327
8.63761
315.51
8.21391
312.838
7.7894
310.31
7.36204
307.928
6.9227
305.705
6.46999
303.607
6.02486
5.27851
477.518
-11.1749
508.224
-83.2959
540.733
-109.313
569.883
-109.256
594.447
-98.0978
614.826
-85.1023
631.631
-73.2371
645.349
-62.9971
656.348
-54.1101
664.841
-45.8042
670.756
-36.8073
673.606
-25.5066
672.646
-10.8853
667.73
5.66044
659.84
20.4038
650.641
29.9283
641.983
32.521
635.594
28.0927
632.845
17.785
634.665
3.31279
641.325
-13.3675
652.098
-29.6889
665.494
-43.0663
679.98
-52.199
694.421
-57.1143
708.143
-58.5418
720.797
-57.3421
732.226
-54.2232
742.354
-49.6802
751.137
-44.0435
758.54
-37.5591
764.541
-30.4719
769.14
-23.1026
772.375
-15.8787
774.298
-9.18063
774.893
-2.98858
774.057
3.08764
771.688
9.23851
767.725
15.3694
762.172
21.3099
755.091
26.8981
746.597
32.003
736.847
36.5297
726.025
40.4195
714.326
43.6477
701.947
46.2199
689.076
48.1659
675.88
49.5335
662.507
50.382
649.083
50.7761
635.711
50.7814
622.475
50.4613
609.441
49.8747
596.657
49.075
584.161
48.1097
571.978
47.0204
560.124
45.8429
548.61
44.608
537.437
43.3412
526.605
42.0635
516.11
40.7914
505.943
39.5371
496.098
38.3088
486.564
37.1114
477.335
35.9463
468.4
34.8127
459.755
33.7077
451.391
32.6272
443.305
31.5669
435.492
30.5226
427.95
29.4908
420.674
28.4689
413.663
27.4558
406.912
26.4515
400.419
25.4573
394.179
24.4754
388.187
23.5086
382.438
22.5603
376.925
21.6339
371.64
20.7328
366.577
19.8596
361.727
19.0166
357.081
18.2052
352.632
17.4263
348.37
16.6795
344.289
15.964
340.38
15.278
336.638
14.6194
333.055
13.9852
329.627
13.3722
326.35
12.7768
323.221
12.1948
320.236
11.622
317.396
11.0539
314.701
10.4848
312.152
9.91077
309.75
9.32485
307.51
8.70997
305.388
8.14678
7.09668
497.835
-36.9957
532.84
-118.3
566.577
-143.05
595.506
-138.184
619.399
-121.991
638.955
-104.657
654.8
-89.0822
667.388
-75.5847
677.048
-63.77
683.92
-52.6763
687.783
-40.67
687.939
-25.6622
683.689
-6.63497
675.502
13.8472
665.141
30.7652
654.736
40.3336
646.294
40.9637
641.448
32.939
641.314
17.9197
646.418
-1.79138
656.298
-23.2475
669.397
-42.787
683.843
-57.5122
698.22
-66.576
711.749
-70.6428
724.117
-70.9101
735.258
-68.4828
745.194
-64.1583
753.956
-58.4425
761.56
-51.6475
768
-43.9986
773.259
-35.7305
777.327
-27.1708
780.213
-18.7645
781.909
-10.876
782.314
-3.39347
781.257
4.14518
778.599
11.8962
774.273
19.696
768.285
27.2986
760.711
34.4723
751.686
41.0282
741.387
46.8287
730.018
51.7891
717.791
55.8748
704.916
59.0947
691.589
61.4929
677.985
63.1383
664.253
64.1145
650.518
64.5112
636.881
64.418
623.423
63.9199
610.203
63.0946
597.267
62.0113
584.646
60.7308
572.361
59.3055
560.424
57.7799
548.84
56.1916
537.61
54.5714
526.73
52.9441
516.192
51.3291
505.989
49.7402
496.112
48.1864
486.55
46.6725
477.297
45.1997
468.344
43.7659
459.684
42.3674
451.312
40.9991
443.224
39.6556
435.415
38.3319
427.881
37.0242
420.62
35.7298
413.629
34.4476
406.902
33.1781
400.436
31.9231
394.226
30.6855
388.266
29.469
382.548
28.2777
377.067
27.1156
371.813
25.9867
366.778
24.8941
361.955
23.8404
357.333
22.827
352.905
21.8544
348.662
20.9223
344.597
20.0292
340.702
19.1729
336.971
18.3503
333.398
17.5579
329.979
16.7914
326.71
16.0462
323.587
15.3173
320.61
14.5992
317.777
13.8864
315.09
13.1721
312.551
12.4502
310.159
11.7168
307.931
10.9377
305.823
10.2553
8.89959
516.657
-68.585
552.915
-154.558
586.024
-176.159
613.859
-166.019
636.666
-144.798
655.167
-123.158
669.941
-103.856
681.421
-87.0643
689.915
-72.2637
695.462
-58.2229
697.594
-42.8016
695.314
-23.3818
688.132
0.547446
677.312
24.6673
665.309
42.7684
654.601
51.0415
647.252
48.3137
644.724
35.4674
647.79
14.8533
656.351
-10.3518
669.02
-35.9156
683.563
-57.3297
698.096
-72.0453
711.588
-80.0681
723.701
-82.7553
734.457
-81.6656
743.998
-78.0231
752.463
-72.6236
759.948
-65.9277
766.498
-58.197
772.117
-49.6168
776.784
-40.3977
780.475
-30.8618
783.163
-21.4522
784.775
-12.4872
785.12
-3.73855
783.949
5.31663
781.08
14.7657
776.432
24.3438
770.026
33.7049
761.967
42.5319
752.423
50.5724
741.604
57.6481
729.739
63.6543
717.06
68.5538
703.788
72.3669
690.123
75.1581
676.24
77.0218
662.285
78.0694
648.379
78.4176
634.616
78.181
621.07
77.4664
607.795
76.3702
594.829
74.9772
582.199
73.3608
569.921
71.5835
558.003
69.698
546.447
67.7479
535.25
65.7686
524.406
63.7884
513.907
61.8284
503.743
59.9036
493.907
58.0233
484.387
56.1918
475.177
54.4095
466.27
52.6734
457.659
50.9785
449.339
49.3188
441.307
47.6882
433.557
46.0812
426.088
44.4936
418.895
42.923
411.974
41.3687
405.32
39.8318
398.929
38.3147
392.793
36.8211
386.907
35.3555
381.261
33.9227
375.85
32.5274
370.663
31.1738
365.691
29.8654
360.927
28.6048
356.361
27.3934
351.984
26.2313
347.788
25.1178
343.767
24.0508
339.912
23.0274
336.219
22.0438
332.681
21.0955
329.295
20.1774
326.058
19.2839
322.966
18.4089
320.019
17.546
317.217
16.6883
314.561
15.8283
312.054
14.9575
309.695
14.0753
307.502
13.1311
305.432
12.325
10.6666
530.065
-103.852
567.227
-191.719
599.876
-208.808
626.76
-192.903
648.452
-166.49
665.754
-140.459
679.287
-117.39
689.533
-97.3101
696.803
-79.5328
701.008
-62.4276
701.378
-43.1716
696.671
-18.6749
686.881
10.3381
674.162
37.3861
661.476
55.4549
651.479
61.0392
646.168
53.6242
646.744
34.8916
653.536
8.06193
665.539
-22.3544
680.368
-50.7448
695.483
-72.4444
709.349
-85.9111
721.465
-92.1836
731.911
-93.2014
740.966
-90.7206
748.908
-85.9644
755.942
-79.6576
762.196
-72.181
767.728
-63.729
772.549
-54.4374
776.637
-44.4859
779.957
-34.1818
782.454
-23.9488
783.994
-14.0272
784.298
-4.04205
783.031
6.58363
779.964
17.8337
775.002
29.3057
768.183
40.5241
759.647
51.0676
749.606
60.6137
738.308
68.947
726.01
75.9521
712.963
81.6008
699.396
85.9344
685.509
89.0456
671.471
91.0598
657.422
92.1187
643.472
92.3674
629.708
91.9452
616.194
90.9805
602.977
89.5875
590.089
87.8655
577.55
85.8994
565.373
83.7612
553.56
81.5104
542.112
79.1961
531.023
76.8577
520.286
74.5257
509.892
72.2227
499.831
69.9644
490.095
67.7596
480.675
65.612
471.563
63.5208
462.755
61.4821
454.243
59.4898
446.025
57.537
438.097
55.617
430.453
53.7243
423.092
51.8548
416.009
50.0064
409.199
48.179
402.656
46.3743
396.375
44.5959
390.348
42.848
384.568
41.136
379.025
39.4652
373.712
37.8407
368.619
36.2671
363.736
34.7479
359.055
33.2856
354.567
31.8813
350.264
30.5348
346.137
29.2446
342.18
28.0081
338.386
26.8215
334.749
25.6802
331.266
24.5788
327.932
23.5114
324.745
22.4712
321.702
21.4514
318.804
20.4441
316.051
19.4416
313.444
18.4354
310.987
17.4149
308.679
16.3825
306.538
15.2728
304.525
14.3378
12.3816
542.158
-141.941
579.7
-229.261
611.578
-240.686
637.232
-218.557
657.496
-186.753
673.27
-156.233
685.271
-129.391
694.054
-106.093
699.909
-85.3877
702.549
-65.0673
700.839
-41.4609
693.507
-11.3429
681.35
22.4955
667.394
51.3427
654.922
67.9272
646.597
69.3646
644.23
55.9915
648.665
30.4564
659.521
-2.79374
674.617
-37.4498
690.778
-66.9055
705.636
-87.3018
718.269
-98.5436
728.721
-102.636
737.409
-101.889
744.776
-98.0875
751.173
-92.3611
756.836
-85.3202
761.904
-77.2486
766.442
-68.267
770.464
-58.4594
773.951
-47.972
776.862
-37.0926
779.122
-26.2086
780.544
-15.449
780.759
-4.25701
779.35
7.99303
776.039
21.145
770.724
34.6209
763.465
47.7835
754.444
60.0885
743.919
71.1386
732.179
80.6876
719.51
88.6219
706.175
94.9352
692.409
99.7015
678.405
103.05
664.323
105.141
650.292
106.15
636.41
106.25
622.752
105.604
609.371
104.361
596.308
102.651
583.586
100.587
571.221
98.2643
559.22
95.762
547.585
93.1463
536.31
90.4706
525.391
87.7773
514.818
85.0986
504.583
82.4582
494.676
79.8713
485.089
77.3463
475.815
74.886
466.848
72.4883
458.182
70.1482
449.813
67.8588
441.737
65.6126
433.951
63.4028
426.452
61.2237
419.235
59.0718
412.296
56.9457
405.629
54.8461
399.227
52.7755
393.085
50.7384
387.193
48.7398
381.544
46.7857
376.127
44.8819
370.934
43.0339
365.955
41.2462
361.18
39.5224
356.601
37.8645
352.209
36.2733
347.996
34.748
343.954
33.2864
340.077
31.8851
336.359
30.5395
332.795
29.2442
329.381
27.9929
326.114
26.7785
322.992
25.5936
320.013
24.4301
317.178
23.2792
314.488
22.132
311.944
20.9794
309.55
19.8087
307.308
18.6248
305.231
17.3495
303.288
16.2807
14.0326
553.335
-182.302
590.881
-266.807
621.67
-271.475
645.775
-242.662
664.288
-205.266
678.248
-170.192
688.496
-139.639
695.67
-113.267
700.001
-89.7188
700.913
-65.9792
696.848
-37.3952
686.82
-1.31468
672.697
36.6184
658.221
65.8187
646.835
79.3137
641.085
75.1147
642.513
54.5645
651.438
21.5315
666.333
-17.6886
683.773
-54.8895
700.311
-83.4432
714.194
-101.185
725.215
-109.564
733.877
-111.298
740.818
-108.829
746.568
-103.837
751.504
-97.297
755.869
-89.6853
759.805
-81.1838
763.378
-71.84
766.606
-61.6866
769.471
-50.8369
771.934
-39.5562
773.906
-28.1801
775.147
-16.6899
775.2
-4.30991
773.569
9.62496
769.935
24.7789
764.198
40.3579
756.45
55.5319
746.922
69.6169
735.92
82.1404
723.773
92.8355
710.789
101.605
697.244
108.481
683.365
113.58
669.339
117.076
655.311
119.169
641.394
120.067
627.672
119.972
614.208
119.069
601.044
117.525
588.211
115.484
575.727
113.071
563.602
110.389
551.839
107.525
540.436
104.549
529.388
101.519
518.687
98.4786
508.324
95.4614
498.291
92.4911
488.58
89.5827
479.183
86.7435
470.093
83.9751
461.307
81.2744
452.82
78.6353
444.629
76.0503
436.73
73.5117
429.12
71.0127
421.795
68.5481
414.752
66.1152
407.984
63.7133
401.487
61.3441
395.251
59.0112
389.269
56.7198
383.534
54.4757
378.034
52.2854
372.761
50.1551
367.704
48.0903
362.855
46.0955
358.203
44.174
353.74
42.3275
349.458
40.5559
345.348
38.8579
341.404
37.2306
337.619
35.6695
333.99
34.1695
330.51
32.724
327.177
31.3259
323.988
29.9672
320.942
28.6395
318.039
27.3337
315.278
26.0401
312.661
24.7487
310.191
23.4495
307.871
22.1285
305.704
20.7922
303.702
19.3517
301.837
18.1454
15.6114
564.033
-224.646
600.965
-303.739
630.107
-300.617
652.268
-264.822
668.764
-221.762
680.733
-182.161
689.115
-148.021
694.608
-118.759
697.339
-92.4496
696.373
-65.013
689.792
-30.8136
677.246
11.2317
661.772
52.0932
647.597
79.9936
638.188
88.7233
635.901
77.4019
641.886
48.5799
655.63
7.78751
674.075
-36.1327
692.815
-73.6299
708.804
-99.4319
721.181
-113.562
730.394
-118.776
737.264
-118.169
742.541
-114.106
746.779
-108.075
750.353
-100.871
753.502
-92.8336
756.363
-84.0452
759.007
-74.4836
761.453
-64.1322
763.69
-53.0733
765.681
-41.5472
767.322
-29.8207
768.32
-17.6877
768.128
-4.1176
766.177
11.5761
762.124
28.8328
755.881
46.6006
747.586
63.8274
737.524
79.6787
726.053
93.6119
713.534
105.355
700.295
114.845
686.611
122.165
672.701
127.49
658.738
131.04
644.847
133.06
631.125
133.79
617.64
133.457
604.441
132.269
591.559
130.406
579.018
128.026
566.828
125.261
554.994
122.223
543.516
119.003
532.39
115.676
521.608
112.301
511.163
108.923
501.047
105.578
491.251
102.287
481.769
99.0652
472.594
95.9186
463.721
92.8476
455.148
89.848
446.87
86.9131
438.885
84.035
431.191
81.206
423.784
78.4198
416.66
75.672
409.815
72.9608
403.241
70.2867
396.933
67.6524
390.882
65.0624
385.079
62.5226
379.515
60.0397
374.18
57.6205
369.064
55.2712
364.157
52.9974
359.449
50.8034
354.931
48.6919
350.595
46.6639
346.432
44.7189
342.435
42.8547
338.598
41.0674
334.916
39.3519
331.384
37.702
327.997
36.1103
324.754
34.5688
321.653
33.0686
318.692
31.6003
315.872
30.1538
313.194
28.7186
310.659
27.2836
308.27
25.8382
306.032
24.367
303.946
22.8779
302.025
21.2731
300.244
19.9266
17.1132
574.219
-267.01
609.336
-338.856
636.406
-327.687
656.494
-284.91
670.947
-236.215
680.96
-192.173
687.536
-154.598
691.366
-122.589
692.396
-93.4798
689.297
-61.9131
680.053
-21.5696
665.328
25.9563
649.246
68.176
636.268
92.972
629.754
95.2375
631.798
75.3577
643.013
37.3654
661.479
-10.6782
682.473
-57.1265
701.352
-92.5085
716.031
-114.111
726.585
-124.115
733.95
-126.141
739.117
-123.335
742.857
-117.846
745.71
-110.927
748.03
-103.191
750.046
-94.8493
751.895
-85.8938
753.648
-76.237
755.333
-65.8164
756.944
-54.6843
758.45
-43.0534
759.73
-31.1002
760.429
-18.3861
759.905
-3.59375
757.53
13.9517
752.95
33.4128
746.113
53.4378
737.213
72.7279
726.597
90.2949
714.67
105.539
701.821
118.203
688.387
128.279
674.636
135.917
660.772
141.354
646.946
144.867
633.265
146.741
619.806
147.25
606.619
146.644
593.742
145.147
581.195
142.953
568.992
140.229
557.138
137.115
545.634
133.727
534.477
130.161
523.66
126.493
513.176
122.785
503.017
119.082
493.175
115.419
483.644
111.818
474.418
108.292
465.492
104.845
456.862
101.477
448.527
98.1833
440.484
94.9563
432.731
91.7882
425.265
88.6718
418.083
85.6016
411.181
82.5744
404.552
79.5893
398.191
76.6481
392.089
73.7545
386.237
70.9141
380.626
68.1335
375.246
65.4197
370.087
62.7799
365.138
60.2202
360.389
57.746
355.831
55.3612
351.456
53.0678
347.253
50.8662
343.217
48.755
339.341
46.7311
335.618
44.7899
332.045
42.9254
328.617
41.1303
325.33
39.3965
322.184
37.7151
319.177
36.0762
316.307
34.4696
313.577
32.8843
310.987
31.3088
308.539
29.7312
306.237
28.1403
304.084
26.5195
302.085
24.8777
300.248
23.1097
298.553
21.6219
18.5354
581.925
-309.331
615.702
-372.633
640.944
-352.928
658.984
-302.949
671.364
-248.594
679.448
-200.258
684.318
-159.467
686.57
-124.841
685.831
-92.7404
680.301
-56.3829
668.272
-9.53995
651.774
42.4546
635.819
84.1311
624.908
103.883
622.194
97.9516
629.422
68.1304
646.265
20.5227
668.781
-33.1943
690.988
-79.333
708.934
-110.454
721.788
-126.965
730.403
-132.731
736.002
-131.739
739.613
-126.945
741.971
-120.205
743.575
-112.531
744.755
-104.37
745.726
-95.8203
746.626
-86.7935
747.532
-77.1432
748.48
-66.7639
749.476
-55.6802
750.495
-44.072
751.392
-31.9971
751.738
-18.7313
750.792
-2.6475
747.88
16.8634
742.665
38.6287
735.146
60.9564
725.591
82.2836
714.41
101.476
702.052
117.898
688.925
131.331
675.361
141.843
661.615
149.663
647.868
155.101
634.248
158.488
620.838
160.151
607.697
160.392
594.859
159.482
582.347
157.659
570.173
155.127
558.343
152.059
546.857
148.601
535.711
144.873
524.901
140.972
514.418
136.976
504.255
132.948
494.405
128.933
484.86
124.964
475.615
121.063
466.666
117.24
458.011
113.501
449.646
109.842
441.57
106.259
433.783
102.744
426.282
99.2897
419.063
95.8899
412.125
92.5402
405.461
89.2385
399.065
85.9852
392.93
82.7835
387.046
79.6381
381.405
76.5554
375.996
73.5426
370.808
70.6071
365.832
67.7559
361.057
64.9953
356.473
62.3299
352.072
59.7631
347.843
57.2963
343.78
54.9291
339.876
52.6591
336.125
50.4824
332.521
48.3934
329.061
46.3853
325.742
44.4499
322.56
42.5782
319.515
40.7604
316.605
38.9859
313.831
37.2435
311.194
35.5213
308.696
33.8072
306.339
32.0883
304.127
30.3527
302.063
28.5832
300.151
26.7896
298.401
24.8599
296.792
23.2306
19.8775
589.09
-351.336
621.335
-404.878
644.49
-376.083
660.199
-318.658
670.291
-258.686
676.361
-206.327
679.561
-162.667
680.314
-125.594
677.769
-90.1946
669.598
-48.2123
654.868
5.1901
637.194
60.1291
622.167
99.1586
614.213
111.837
616.235
95.9296
629.421
54.9451
651.727
-1.78294
676.977
-58.4445
698.953
-101.309
715.139
-126.64
725.913
-137.738
732.641
-139.459
736.636
-135.734
738.874
-129.183
740.02
-121.35
740.519
-113.03
740.676
-104.527
740.696
-95.8407
740.719
-86.8158
740.828
-77.2527
741.072
-67.0077
741.473
-56.0802
742.01
-44.6091
742.51
-32.497
742.447
-18.6682
740.98
-1.17973
737.413
20.4307
731.45
44.5919
723.17
69.2366
712.922
92.5317
701.182
113.215
688.432
130.648
675.086
144.678
661.462
155.466
647.792
163.334
634.229
168.664
620.874
171.843
607.788
173.236
595.01
173.17
582.559
171.933
570.446
169.772
558.674
166.899
547.242
163.492
536.146
159.698
525.379
155.64
514.934
151.417
504.803
147.107
494.978
142.773
485.453
138.458
476.222
134.195
467.281
130.004
458.628
125.894
450.26
121.868
442.178
117.924
434.38
114.057
426.866
110.258
419.633
106.523
412.678
102.845
405.997
99.221
399.584
95.651
393.433
92.1369
387.534
88.6826
381.878
85.2941
376.455
81.9785
371.254
78.7434
366.265
75.5962
361.477
72.5438
356.88
69.5921
352.465
66.7453
348.222
64.0059
344.144
61.3745
340.224
58.8497
336.454
56.4285
332.831
54.1058
329.349
51.8752
326.006
49.7289
322.798
47.658
319.723
45.6526
316.781
43.7022
313.972
41.7952
311.296
39.9196
308.754
38.0628
306.35
36.2118
304.085
34.353
301.964
32.4742
299.99
30.5573
298.166
28.6129
296.503
26.5234
294.98
24.7532
21.1399
595.776
-392.797
626.235
-435.336
646.979
-396.827
660.06
-331.739
667.656
-266.282
671.609
-210.279
673.143
-164.201
672.448
-124.898
668.072
-85.8186
657.274
-37.4138
640.262
22.2027
622.192
78.199
608.993
112.358
604.943
115.887
612.607
88.2662
632.163
35.3896
658.982
-28.6014
685.202
-84.6644
705.684
-121.791
719.622
-140.577
728.301
-146.418
733.315
-144.472
735.922
-138.341
736.989
-130.25
737.096
-121.457
736.637
-112.571
735.892
-103.781
735.061
-95.0087
734.284
-86.0384
733.656
-76.6247
733.239
-66.5905
733.072
-55.9132
733.142
-44.6788
733.232
-32.5863
732.699
-18.1346
730.602
0.917863
726.255
24.7779
719.437
51.4102
710.327
78.3465
699.367
103.492
687.091
125.491
674.002
143.737
660.506
158.175
646.896
169.076
633.371
176.859
620.054
181.981
607.017
184.88
594.299
185.954
581.92
185.55
569.886
183.968
558.196
181.462
546.845
178.249
535.829
174.509
525.137
170.39
514.762
166.015
504.695
161.484
494.927
156.875
485.453
152.247
476.266
147.646
467.362
143.099
458.739
138.627
450.395
134.237
442.331
129.932
434.546
125.709
427.04
121.562
419.813
117.486
412.861
113.474
406.182
109.524
399.77
105.633
393.619
101.802
387.72
98.0358
382.064
94.3384
376.642
90.7168
371.441
87.1787
366.453
83.7319
361.665
80.3839
357.068
77.1411
352.651
74.0088
348.406
70.9906
344.324
68.0881
340.397
65.301
336.62
62.627
332.986
60.062
329.492
57.6001
326.133
55.234
322.907
52.9551
319.811
50.7536
316.845
48.6189
314.008
46.5395
311.3
44.5032
308.722
42.4971
306.277
40.508
303.967
38.5221
301.795
36.5252
299.764
34.5046
297.88
32.4418
296.145
30.3481
294.567
28.1009
293.129
26.1912
22.3239
602.135
-433.55
630.351
-463.552
648.339
-414.814
658.638
-342.039
663.692
-271.336
665.497
-212.083
665.305
-164.01
663.055
-122.647
656.694
-79.4573
643.398
-24.1174
624.807
40.7936
607.315
95.6914
596.937
122.736
597.749
115.076
611.814
74.2009
637.432
9.77183
667.059
-58.2282
692.502
-110.107
710.637
-139.926
722.178
-152.118
728.927
-153.167
732.473
-148.017
733.929
-139.797
734.032
-130.353
733.275
-120.699
732.005
-111.301
730.479
-102.255
728.894
-93.424
727.398
-84.5424
726.098
-75.3243
725.071
-65.5632
724.373
-55.2152
723.989
-44.2946
723.641
-32.2381
722.559
-17.052
719.719
3.75769
714.476
30.0215
706.711
59.175
696.726
88.3318
685.057
115.161
672.289
138.26
658.929
157.097
645.359
171.745
631.838
182.598
618.525
190.173
605.51
194.997
592.837
197.554
580.523
198.268
568.57
197.502
556.973
195.564
545.723
192.713
534.808
189.165
524.217
185.1
513.939
180.668
503.964
175.99
494.282
171.166
484.886
166.271
475.771
161.363
466.931
156.486
458.364
151.666
450.069
146.922
442.047
142.26
434.298
137.681
426.822
133.185
419.621
128.764
412.691
124.415
406.032
120.134
399.637
115.918
393.502
111.768
387.619
107.686
381.978
103.677
376.57
99.7466
371.383
95.903
366.408
92.1539
361.633
88.5071
357.047
84.9697
352.641
81.5477
348.404
78.2457
344.328
75.0663
340.406
72.0103
336.631
69.0764
332.996
66.2614
329.498
63.5601
326.133
60.9658
322.896
58.4704
319.787
56.0643
316.804
53.737
313.946
51.4772
311.213
49.2725
308.606
47.1101
306.126
44.9764
303.777
42.8574
301.56
40.7386
299.48
38.6054
297.54
36.4447
295.744
34.2376
294.096
31.9964
292.603
29.5936
291.248
27.5462
23.4311
608.049
-471.941
633.346
-488.85
648.47
-429.938
656.119
-349.687
658.845
-274.062
658.671
-211.909
656.763
-162.101
652.741
-118.626
644.019
-70.7342
628.321
-8.41924
608.967
60.148
593.065
111.594
586.512
129.289
593.117
108.471
614.063
53.2557
644.588
-20.7525
674.858
-88.498
698.128
-133.377
713.51
-155.308
722.764
-161.371
727.846
-158.248
730.19
-150.361
730.731
-140.338
730.071
-129.693
728.62
-119.248
726.681
-109.361
724.495
-100.069
722.258
-91.1863
720.125
-82.4093
718.219
-73.4177
716.636
-63.9799
715.449
-54.0279
714.629
-43.4739
713.812
-31.4215
712.088
-15.3272
708.381
7.46541
702.124
36.278
693.337
67.963
682.455
99.2141
670.107
127.509
656.91
151.457
643.359
170.649
629.798
185.307
616.439
195.957
603.4
203.212
590.736
207.661
578.465
209.826
566.582
210.15
555.077
209.008
543.933
206.709
533.132
203.514
522.659
199.638
512.499
195.26
502.639
190.528
493.068
185.562
483.777
180.457
474.758
175.29
466.007
170.114
457.521
164.972
449.299
159.888
441.341
154.879
433.65
149.951
426.225
145.106
419.069
140.341
412.18
135.653
405.557
131.038
399.197
126.495
393.093
122.022
387.24
117.621
381.628
113.298
376.248
109.057
371.089
104.906
366.14
100.852
361.389
96.9044
356.827
93.0696
352.441
89.3548
348.224
85.7652
344.165
82.3044
340.257
78.9742
336.493
75.7744
332.867
72.7027
329.374
69.7547
326.009
66.9246
322.771
64.2046
319.655
61.5857
316.662
59.0578
313.789
56.6095
311.038
54.2287
308.408
51.9025
305.901
49.6173
303.518
47.3587
301.264
45.1121
299.14
42.8625
297.15
40.5949
295.299
38.2958
293.591
35.9463
292.028
33.5593
290.618
31.0033
289.344
28.8202
24.4632
612.447
-508.521
635.213
-511.616
647.575
-442.3
652.65
-354.762
653.238
-274.649
651.349
-210.02
647.894
-158.646
642.007
-112.738
630.64
-59.3676
612.687
9.53444
593.301
79.5339
579.921
124.974
578.178
131.031
591.424
95.2263
618.952
25.728
652.404
-54.2047
681.334
-117.428
701.605
-153.647
714.214
-167.917
721.444
-168.602
725.155
-161.959
726.558
-151.764
726.401
-140.18
725.161
-128.453
723.176
-117.263
720.71
-106.895
717.986
-97.3448
715.198
-88.3987
712.513
-79.7242
710.07
-70.9745
707.99
-61.8991
706.363
-52.4005
705.135
-42.2465
703.83
-30.1158
701.362
-12.8592
696.642
12.1855
689.25
43.6701
679.374
77.8391
667.596
110.993
654.621
140.484
641.077
165.001
627.424
184.302
613.955
198.777
600.829
209.082
588.121
215.92
575.851
219.931
564.012
221.665
552.582
221.58
541.538
220.052
530.854
217.393
520.509
213.86
510.48
209.666
500.753
204.987
491.312
199.969
482.146
194.728
473.246
189.357
464.607
183.929
456.224
178.497
448.097
173.099
440.226
167.759
432.613
162.493
425.259
157.305
418.166
152.199
411.336
147.172
404.767
142.222
398.456
137.349
392.4
132.551
386.591
127.83
381.022
123.19
375.683
118.637
370.564
114.176
365.653
109.817
360.939
105.566
356.411
101.432
352.058
97.4224
347.87
93.5424
343.839
89.7969
339.955
86.1884
336.211
82.7178
332.602
79.3837
329.122
76.1828
325.767
73.1099
322.533
70.1581
319.419
67.3189
316.422
64.5824
313.542
61.9379
310.778
59.3732
308.132
56.8756
305.603
54.4314
303.194
52.0264
300.907
49.6457
298.745
47.2739
296.712
44.8956
294.811
42.4954
293.047
40.0597
291.424
37.5694
289.945
35.0385
288.617
32.3316
287.422
30.0149
25.4217
616.48
-543.145
636.448
-531.584
645.752
-451.604
648.071
-357.08
646.523
-273.101
643.095
-206.592
638.308
-153.86
630.59
-105.019
616.597
-45.374
596.861
29.2714
578.269
98.1258
568.326
134.918
572.301
127.056
592.714
74.8134
625.631
-7.18853
659.638
-88.211
685.773
-143.563
702.752
-170.625
712.818
-177.983
718.356
-174.139
720.986
-164.589
721.678
-152.456
721.01
-139.512
719.354
-126.797
716.981
-114.889
714.12
-104.033
710.977
-94.2016
707.745
-85.166
704.597
-76.5765
701.693
-68.0696
699.177
-59.3832
697.159
-50.3821
695.543
-40.6301
693.701
-28.2734
690.369
-9.52726
684.499
18.0563
675.869
52.3003
664.869
88.8396
652.224
123.637
638.699
154.01
624.903
178.797
611.244
197.961
597.949
212.072
585.122
221.909
572.794
228.248
560.953
231.773
549.569
233.05
538.607
232.542
528.032
230.627
517.813
227.612
507.923
223.75
498.338
219.25
489.042
214.284
480.018
208.993
471.256
203.49
462.748
197.865
454.489
192.188
446.477
186.509
438.712
180.864
431.197
175.275
423.933
169.757
416.922
164.316
410.167
158.954
403.668
153.671
397.422
148.468
391.427
143.344
385.677
138.301
380.164
133.343
374.879
128.475
369.812
123.704
364.951
119.037
360.285
114.483
355.803
110.048
351.493
105.742
347.346
101.57
343.352
97.5371
339.501
93.6474
335.787
89.9022
332.204
86.3013
328.745
82.8423
325.407
79.5208
322.187
76.3307
319.081
73.2642
316.087
70.312
313.206
67.4637
310.437
64.7075
307.779
62.0308
305.234
59.4203
302.804
56.8617
300.49
54.34
298.297
51.8397
296.225
49.345
294.281
46.8399
292.468
44.3089
290.789
41.7381
289.25
39.1088
287.853
36.4358
286.604
33.5802
285.487
31.1322
26.3082
620.133
-575.652
637.008
-548.459
642.966
-457.563
642.342
-356.456
638.595
-269.354
633.685
-201.682
627.68
-147.854
618.199
-95.5385
601.892
-29.0664
581.182
49.981
564.34
114.968
558.748
140.51
569.211
116.594
596.663
47.3615
632.981
-43.5065
665.33
-120.56
687.845
-166.078
701.624
-184.404
709.499
-185.859
713.678