/*--------------------------------*- C++ -*----------------------------------*\
| =========                 |                                                 |
| \\      /  F ield         | OpenFOAM: The Open Source CFD Toolbox           |
|  \\    /   O peration     | Version:  4.1                                   |
|   \\  /    A nd           | Web:      www.OpenFOAM.org                      |
|    \\/     M anipulation  |                                                 |
\*---------------------------------------------------------------------------*/
FoamFile
{
    version     2.0;
    format      ascii;
    class       volVectorField;
    location    "200";
    object      U;
}
// * * * * * * * * * * * * * * * * * * * * * * * * * * * * * * * * * * * * * //

dimensions      [0 1 -1 0 0 0 0];

internalField   nonuniform List<vector> 
26785
(
(-2.66588e-15 0.0117837 3.33396)
(-2.6296e-15 0.00112598 3.23383)
(-2.56134e-15 -0.00299514 3.26842)
(-2.46851e-15 -0.00384284 3.34108)
(-2.37594e-15 -0.00320829 3.40953)
(-2.30117e-15 -0.00219145 3.45831)
(-2.182e-15 -0.00122849 3.48654)
(-2.04458e-15 -0.000416682 3.49832)
(-1.77907e-15 0.000305409 3.49732)
(-1.64133e-15 0.00107369 3.48542)
(-1.48759e-15 0.00202431 3.46223)
(-1.30123e-15 0.00322584 3.42511)
(-1.12387e-15 0.00462902 3.37024)
(-9.5364e-16 0.0060521 3.29483)
(-8.00377e-16 0.00722557 3.19981)
(-6.67489e-16 0.00788398 3.09092)
(-5.45333e-16 0.00787469 2.97717)
(-4.46029e-16 0.00719907 2.86827)
(-3.28176e-16 0.00600531 2.77236)
(-3.56269e-16 0.00455172 2.69456)
(-3.41114e-16 0.00308771 2.63678)
(-2.46655e-16 0.0017465 2.59867)
(-2.99494e-16 0.000594942 2.57828)
(-2.86333e-16 -0.000312554 2.57243)
(-2.71902e-16 -0.000940128 2.57713)
(-2.72332e-16 -0.00127697 2.58819)
(-2.51423e-16 -0.00133377 2.6018)
(-2.19215e-16 -0.00113428 2.61475)
(-2.88856e-16 -0.000708537 2.62446)
(-4.145e-16 -9.10817e-05 2.62893)
(-4.89046e-16 0.000675682 2.62668)
(-4.91095e-16 0.00153599 2.6167)
(-5.26808e-16 0.002417 2.59855)
(-3.85183e-16 0.00323232 2.5725)
(-5.46359e-16 0.00390944 2.53964)
(-6.56308e-16 0.00444265 2.50143)
(-7.11026e-16 0.00488927 2.45897)
(-7.67992e-16 0.00529373 2.41286)
(-7.93128e-16 0.00566398 2.36348)
(-8.79812e-16 0.00599735 2.31124)
(-6.91507e-16 0.00629101 2.25661)
(-6.57113e-16 0.00654347 2.20006)
(-6.28745e-16 0.00675424 2.14204)
(-9.0947e-16 0.00692337 2.08301)
(-9.61003e-16 0.00705125 2.0234)
(-1.24571e-15 0.0071387 1.96359)
(-1.37932e-15 0.00718707 1.90397)
(-1.43066e-15 0.00719835 1.84486)
(-1.46199e-15 0.00717517 1.78657)
(-1.57443e-15 0.00712072 1.72936)
(-1.33084e-15 0.00703854 1.67343)
(-1.24559e-15 0.00693243 1.61897)
(-1.26427e-15 0.00680624 1.5661)
(-1.30158e-15 0.00666372 1.51494)
(-1.35382e-15 0.00650847 1.46554)
(-1.30345e-15 0.00634383 1.41794)
(-1.55387e-15 0.00617282 1.37216)
(-1.69903e-15 0.00599816 1.32819)
(-1.73601e-15 0.00582221 1.28599)
(-1.75229e-15 0.00564697 1.24554)
(-1.7772e-15 0.00547407 1.20678)
(-1.82916e-15 0.00530477 1.16965)
(-1.77192e-15 0.00513995 1.13408)
(-2.07361e-15 0.00498015 1.10001)
(-2.19923e-15 0.00482557 1.06736)
(-2.25981e-15 0.00467616 1.03608)
(-2.3332e-15 0.00453161 1.0061)
(-2.40516e-15 0.00439153 0.977362)
(-2.51927e-15 0.00425543 0.949811)
(-2.54899e-15 0.00412281 0.923399)
(-2.97697e-15 0.00399325 0.898081)
(-3.20983e-15 0.00386641 0.873817)
(-3.34285e-15 0.00374207 0.850569)
(-3.45037e-15 0.00362015 0.8283)
(-3.63811e-15 0.00350068 0.806977)
(-3.42068e-15 0.00338377 0.786566)
(-3.45461e-15 0.00326962 0.767034)
(-3.59071e-15 0.00315847 0.748347)
(-3.69506e-15 0.00305056 0.73047)
(-3.80331e-15 0.00294613 0.71337)
(-3.79493e-15 0.00284536 0.697012)
(-4.19592e-15 0.00274838 0.681361)
(-4.4089e-15 0.00265526 0.666383)
(-4.42456e-15 0.00256598 0.652046)
(-4.83671e-15 0.00248047 0.638316)
(-5.00462e-15 0.00239857 0.625163)
(-5.11065e-15 0.00232007 0.612558)
(-5.22385e-15 0.00224469 0.600474)
(-5.3618e-15 0.00217215 0.588885)
(-5.51579e-15 0.0021021 0.57777)
(-5.6459e-15 0.00203417 0.567108)
(-5.76638e-15 0.00196799 0.556879)
(-5.86969e-15 0.00190315 0.547073)
(-6.01097e-15 0.00183919 0.537662)
(-6.05129e-15 0.0017757 0.528677)
(-6.52302e-15 0.00171213 0.519995)
(-6.74263e-15 0.0016476 0.511933)
(-6.89906e-15 0.00158246 0.503583)
(-7.01908e-15 0.00151079 0.497549)
(-7.23668e-15 0.00142065 0.486944)
(-2.74245e-15 0.0303954 3.49132)
(-2.68686e-15 0.00498651 3.4326)
(-2.69067e-15 -0.00631687 3.48064)
(-2.63798e-15 -0.00921937 3.55266)
(-2.59253e-15 -0.00782725 3.61358)
(-2.51738e-15 -0.00515051 3.65222)
(-2.37977e-15 -0.00247783 3.66944)
(-2.17399e-15 -0.000190529 3.66976)
(-2.03861e-15 0.00174937 3.6572)
(-1.89124e-15 0.00362567 3.63459)
(-1.70234e-15 0.00584726 3.60306)
(-1.50887e-15 0.00880561 3.56121)
(-1.31458e-15 0.0126375 3.50505)
(-1.09532e-15 0.0169658 3.42978)
(-9.82218e-16 0.0209023 3.33473)
(-8.75992e-16 0.0235014 3.2251)
(-6.21941e-16 0.024224 3.10951)
(-4.47585e-16 0.023026 2.99728)
(-3.54111e-16 0.0202559 2.89613)
(-2.3511e-16 0.0164828 2.81113)
(-2.48063e-16 0.012245 2.74526)
(-5.72042e-17 0.00796957 2.70051)
(-4.35579e-17 0.00405626 2.67562)
(-3.41858e-17 0.000863895 2.66666)
(1.96109e-17 -0.00139426 2.66843)
(1.29605e-17 -0.0026755 2.67589)
(-5.16809e-20 -0.00305674 2.68497)
(-3.83514e-18 -0.00266558 2.6927)
(5.21314e-18 -0.00163328 2.69704)
(-8.41298e-17 -7.83572e-05 2.69662)
(-1.11589e-16 0.00188668 2.6905)
(-1.24163e-16 0.0041366 2.6781)
(-1.68693e-16 0.00651154 2.65914)
(-1.69111e-16 0.00880614 2.63372)
(-3.00204e-16 0.010825 2.60251)
(-3.76402e-16 0.0125267 2.56635)
(-4.10956e-16 0.0140309 2.52581)
(-4.50371e-16 0.0154298 2.48122)
(-4.97619e-16 0.0167278 2.43282)
(-5.36747e-16 0.017906 2.38097)
(-6.39419e-16 0.0189487 2.3261)
(-4.89661e-16 0.0198467 2.26873)
(-5.04564e-16 0.0205962 2.20941)
(-3.90433e-16 0.0211971 2.14869)
(-3.9577e-16 0.0216519 2.08709)
(-4.14308e-16 0.0219652 2.02513)
(-7.5737e-16 0.022144 1.96326)
(-8.48111e-16 0.0221976 1.90189)
(-1.2e-15 0.0221368 1.84137)
(-1.06998e-15 0.021974 1.78199)
(-1.30213e-15 0.0217221 1.72399)
(-1.43493e-15 0.0213945 1.66756)
(-1.37409e-15 0.0210041 1.61285)
(-1.71696e-15 0.0205632 1.55994)
(-1.57299e-15 0.0200835 1.5089)
(-1.43546e-15 0.0195753 1.45977)
(-1.64398e-15 0.0190481 1.41253)
(-1.80915e-15 0.0185102 1.36718)
(-1.5546e-15 0.0179686 1.32369)
(-1.47251e-15 0.0174294 1.282)
(-1.41367e-15 0.0168975 1.24206)
(-1.62512e-15 0.0163765 1.2038)
(-1.78466e-15 0.0158692 1.16716)
(-1.58383e-15 0.015377 1.13205)
(-1.54154e-15 0.0149008 1.09842)
(-1.57906e-15 0.0144403 1.0662)
(-1.66956e-15 0.0139949 1.03532)
(-1.5947e-15 0.0135632 1.00571)
(-2.26045e-15 0.0131439 0.977338)
(-2.57844e-15 0.0127357 0.950137)
(-2.62537e-15 0.0123372 0.924065)
(-3.03575e-15 0.0119473 0.899079)
(-3.21279e-15 0.0115655 0.87514)
(-3.39393e-15 0.0111913 0.852209)
(-3.08796e-15 0.0108248 0.830251)
(-3.36596e-15 0.0104663 0.80923)
(-3.53135e-15 0.0101161 0.789112)
(-3.58714e-15 0.00977512 0.76986)
(-3.67367e-15 0.00944386 0.75144)
(-3.79937e-15 0.00912301 0.733817)
(-3.78409e-15 0.00881313 0.716954)
(-4.12769e-15 0.00851461 0.700817)
(-4.3508e-15 0.00822767 0.68537)
(-4.0847e-15 0.00795231 0.670581)
(-3.97185e-15 0.00768832 0.656415)
(-4.27145e-15 0.00743528 0.642842)
(-4.74636e-15 0.00719261 0.629833)
(-5.01297e-15 0.00695955 0.617359)
(-4.76751e-15 0.00673523 0.605396)
(-4.77724e-15 0.00651868 0.593919)
(-4.88758e-15 0.00630882 0.582909)
(-5.0559e-15 0.00610451 0.572345)
(-5.04181e-15 0.00590455 0.562216)
(-5.85484e-15 0.00570768 0.552495)
(-6.16791e-15 0.00551237 0.54321)
(-6.23268e-15 0.00531759 0.534239)
(-6.68942e-15 0.00511985 0.525899)
(-6.89651e-15 0.00492056 0.517275)
(-7.01887e-15 0.00471162 0.511003)
(-7.20727e-15 0.00442102 0.500022)
(-2.82344e-15 0.0417992 3.6439)
(-2.83878e-15 0.00386477 3.65545)
(-2.87755e-15 -0.011712 3.74275)
(-2.82579e-15 -0.0142297 3.82728)
(-2.76242e-15 -0.0106064 3.88473)
(-2.66552e-15 -0.00553823 3.91223)
(-2.50965e-15 -0.000820346 3.9148)
(-2.32029e-15 0.00311293 3.89845)
(-2.14366e-15 0.00635995 3.86769)
(-1.95157e-15 0.00933155 3.82568)
(-1.75095e-15 0.0126612 3.77415)
(-1.54093e-15 0.0170763 3.71259)
(-1.32641e-15 0.0229738 3.63786)
(-1.11299e-15 0.0298189 3.54578)
(-8.75426e-16 0.0360971 3.43684)
(-8.28437e-16 0.0402118 3.31708)
(-5.68096e-16 0.0412913 3.19514)
(-4.79183e-16 0.0392802 3.08005)
(-3.60131e-16 0.0347424 2.97938)
(-2.86257e-16 0.0284966 2.89818)
(-2.32369e-16 0.0212414 2.83938)
(7.33672e-17 0.0137974 2.80397)
(2.47619e-16 0.00712453 2.78821)
(2.13313e-16 0.00196311 2.78562)
(2.36792e-16 -0.00139417 2.78965)
(1.92721e-16 -0.00303572 2.79526)
(7.44349e-17 -0.00323847 2.79919)
(5.53199e-17 -0.00230799 2.79957)
(6.85184e-17 -0.000501688 2.79542)
(7.35981e-17 0.00198277 2.78625)
(6.15729e-17 0.00498421 2.77184)
(7.84155e-17 0.00834174 2.75213)
(2.24047e-17 0.0118555 2.72718)
(-9.40046e-17 0.015264 2.69725)
(-1.35805e-16 0.01832 2.66296)
(-1.52075e-16 0.0209915 2.62485)
(-1.84166e-16 0.0234585 2.58302)
(-2.28124e-16 0.025834 2.53749)
(-2.75283e-16 0.0280983 2.48825)
(-3.26236e-16 0.0301964 2.43544)
(-3.86676e-16 0.0320803 2.37938)
(-4.37481e-16 0.0337165 2.32053)
(-4.87917e-16 0.0350856 2.25943)
(-5.27594e-16 0.0361794 2.19668)
(-5.6886e-16 0.0369992 2.13289)
(-6.02637e-16 0.0375541 2.06863)
(-6.54145e-16 0.0378593 2.00445)
(-6.95075e-16 0.0379352 1.94081)
(-7.59924e-16 0.0378056 1.87812)
(-8.11724e-16 0.0374959 1.81669)
(-8.73876e-16 0.0370323 1.75679)
(-9.43186e-16 0.0364403 1.69861)
(-9.92472e-16 0.0357439 1.64229)
(-1.07868e-15 0.0349656 1.58791)
(-1.07473e-15 0.0341256 1.53552)
(-1.37047e-15 0.0332419 1.48515)
(-1.55124e-15 0.0323302 1.43679)
(-1.28978e-15 0.0314043 1.39039)
(-1.24851e-15 0.0304756 1.34593)
(-1.19035e-15 0.0295538 1.30333)
(-1.13826e-15 0.0286464 1.26254)
(-1.13025e-15 0.0277593 1.22348)
(-1.14333e-15 0.0268963 1.18608)
(-1.1347e-15 0.0260598 1.15026)
(-1.23416e-15 0.0252505 1.11596)
(-1.38185e-15 0.024468 1.08309)
(-1.07993e-15 0.0237109 1.05161)
(-1.02278e-15 0.0229771 1.02143)
(-1.1542e-15 0.0222644 0.992514)
(-1.3144e-15 0.0215705 0.964804)
(-1.43735e-15 0.0208933 0.938252)
(-1.64666e-15 0.0202312 0.912815)
(-1.57218e-15 0.0195831 0.888452)
(-1.35335e-15 0.0189485 0.865122)
(-1.41832e-15 0.0183275 0.842787)
(-1.59085e-15 0.0177204 0.821411)
(-1.78235e-15 0.0171281 0.800955)
(-1.96629e-15 0.0165517 0.781382)
(-2.13803e-15 0.015992 0.762656)
(-2.29524e-15 0.0154503 0.74474)
(-2.45061e-15 0.0149272 0.727595)
(-2.51356e-15 0.0144233 0.711187)
(-2.96084e-15 0.0139391 0.695479)
(-3.16207e-15 0.0134743 0.680437)
(-3.25698e-15 0.0130287 0.666027)
(-3.34901e-15 0.0126014 0.652217)
(-3.4486e-15 0.0121915 0.638978)
(-3.59006e-15 0.0117978 0.626282)
(-3.62167e-15 0.0114187 0.614102)
(-4.06919e-15 0.0110527 0.602417)
(-4.29397e-15 0.0106979 0.591204)
(-4.35431e-15 0.0103525 0.580444)
(-4.81205e-15 0.0100144 0.570126)
(-5.0447e-15 0.0096816 0.560221)
(-5.23687e-15 0.00935152 0.550758)
(-5.30494e-15 0.00902236 0.541616)
(-5.79532e-15 0.00868979 0.533111)
(-6.02204e-15 0.00834986 0.524321)
(-6.15062e-15 0.00802084 0.517912)
(-6.3446e-15 0.00749642 0.50669)
(-2.91398e-15 0.0469316 3.79273)
(-3.0121e-15 -0.0010236 3.8652)
(-3.02309e-15 -0.0183724 3.97921)
(-2.93638e-15 -0.0187975 4.06803)
(-2.87505e-15 -0.0120689 4.11937)
(-2.74808e-15 -0.00417604 4.13664)
(-2.57977e-15 0.00285943 4.12704)
(-2.41544e-15 0.00867357 4.097)
(-2.2572e-15 0.0134599 4.05102)
(-2.05457e-15 0.0177421 3.99229)
(-1.84163e-15 0.0223423 3.92253)
(-1.60748e-15 0.0282912 3.84117)
(-1.39044e-15 0.0361893 3.74501)
(-1.05068e-15 0.0452555 3.63093)
(-7.72039e-16 0.0533065 3.50306)
(-5.70659e-16 0.0582332 3.37013)
(-4.21157e-16 0.0589421 3.24173)
(-1.74775e-16 0.0553981 3.12672)
(-8.22537e-17 0.0484035 3.03186)
(2.9167e-18 0.0390443 2.96091)
(4.72092e-17 0.028345 2.91552)
(2.18991e-16 0.0177689 2.89349)
(2.98096e-16 0.00886774 2.88753)
(3.19289e-16 0.00254208 2.88942)
(3.33415e-16 -0.00110723 2.89287)
(3.4487e-16 -0.00246906 2.89416)
(3.35782e-16 -0.00207038 2.89153)
(3.30775e-16 -0.000373895 2.88432)
(3.32362e-16 0.00228127 2.87241)
(3.10364e-16 0.00566055 2.85587)
(3.69726e-16 0.00958602 2.83481)
(4.76943e-16 0.0138835 2.80936)
(4.77366e-16 0.0183301 2.77968)
(4.93335e-16 0.0226276 2.74605)
(3.30977e-16 0.0265082 2.70895)
(5.02757e-16 0.0299812 2.66868)
(3.59865e-16 0.0332923 2.62499)
(1.76353e-16 0.0365669 2.57774)
(3.53164e-16 0.0397585 2.52681)
(1.57046e-16 0.0427715 2.47227)
(-2.90643e-17 0.0455169 2.41439)
(2.15079e-18 0.0479259 2.3536)
(1.05249e-17 0.0499521 2.29047)
(-2.80197e-16 0.0515709 2.22563)
(-4.06013e-16 0.052777 2.15972)
(-5.31719e-16 0.0535814 2.09339)
(-4.28917e-16 0.0540083 2.02722)
(-1.96888e-16 0.0540913 1.96171)
(-1.31567e-16 0.0538695 1.89729)
(-4.73953e-16 0.0533847 1.8343)
(-5.62225e-16 0.0526786 1.773)
(-9.16476e-16 0.051791 1.71357)
(-8.46126e-16 0.0507587 1.65614)
(-5.92686e-16 0.0496152 1.60079)
(-5.59203e-16 0.04839 1.54755)
(-5.11913e-16 0.0471087 1.49642)
(-9.40161e-16 0.0457935 1.44738)
(-7.93437e-16 0.0444633 1.40038)
(-7.99176e-16 0.0431338 1.35538)
(-5.33609e-16 0.0418177 1.31229)
(-5.37993e-16 0.0405251 1.27105)
(-3.35406e-16 0.0392632 1.23157)
(-2.86314e-16 0.0380369 1.19378)
(-3.06521e-16 0.036849 1.1576)
(-4.52406e-16 0.0357 1.12296)
(-2.79477e-16 0.034589 1.08979)
(-2.54535e-16 0.0335139 1.05801)
(-6.65482e-16 0.0324719 1.02757)
(-8.27332e-16 0.0314596 0.998407)
(-9.99632e-16 0.030474 0.970476)
(-7.83353e-16 0.0295124 0.943725)
(-8.84827e-16 0.0285726 0.918109)
(-6.62962e-16 0.0276532 0.893585)
(-8.4295e-16 0.0267537 0.870112)
(-1.43809e-15 0.0258742 0.847649)
(-1.36918e-15 0.0250152 0.826157)
(-1.48277e-15 0.0241779 0.805597)
(-1.33384e-15 0.0233636 0.785928)
(-1.36978e-15 0.0225738 0.767113)
(-1.48351e-15 0.0218096 0.749111)
(-1.62092e-15 0.0210723 0.731885)
(-1.75199e-15 0.0203624 0.715397)
(-1.88557e-15 0.0196803 0.699611)
(-2.06716e-15 0.0190258 0.68449)
(-2.21973e-15 0.0183982 0.670002)
(-2.43131e-15 0.0177964 0.656114)
(-2.27145e-15 0.0172191 0.642797)
(-2.35749e-15 0.0166644 0.630022)
(-2.39879e-15 0.0161303 0.617765)
(-2.97367e-15 0.0156144 0.606003)
(-2.8623e-15 0.0151143 0.594715)
(-3.21639e-15 0.0146273 0.583881)
(-3.82403e-15 0.0141506 0.57349)
(-4.0964e-15 0.0136812 0.563516)
(-4.37842e-15 0.0132159 0.553987)
(-4.18179e-15 0.0127512 0.544781)
(-4.42479e-15 0.012285 0.536217)
(-3.93351e-15 0.0117999 0.527367)
(-3.96734e-15 0.0113635 0.520912)
(-4.24238e-15 0.0105868 0.509611)
(-3.02421e-15 0.0473889 3.93201)
(-3.1267e-15 -0.0085417 4.0501)
(-3.13765e-15 -0.0257314 4.17445)
(-3.1131e-15 -0.0229088 4.25734)
(-2.99871e-15 -0.0126125 4.29818)
(-2.91356e-15 -0.00171231 4.30434)
(-2.75156e-15 0.00777013 4.28358)
(-2.54658e-15 0.0156114 4.24208)
(-2.34345e-15 0.0221098 4.18415)
(-2.12626e-15 0.0279083 4.11276)
(-1.90818e-15 0.0340594 4.02911)
(-1.66436e-15 0.0419182 3.93158)
(-1.38112e-15 0.0521191 3.81591)
(-1.08618e-15 0.0633046 3.68099)
(-7.67589e-16 0.0724943 3.53594)
(-6.24565e-16 0.0772785 3.39241)
(-4.61443e-16 0.0765829 3.26104)
(-2.84305e-16 0.0705877 3.15018)
(-1.49605e-16 0.0604513 3.06517)
(-3.69914e-17 0.0475189 3.00785)
(3.3959e-17 0.0333485 2.97745)
(2.1405e-16 0.020165 2.96723)
(3.01912e-16 0.00988454 2.96716)
(3.48211e-16 0.00322642 2.96906)
(3.62925e-16 -0.000106309 2.96831)
(3.93248e-16 -0.000841778 2.96309)
(2.84844e-16 0.000293378 2.95308)
(3.22213e-16 0.00274909 2.9386)
(3.60651e-16 0.00616218 2.92005)
(3.58024e-16 0.0103004 2.89774)
(3.45892e-16 0.0149935 2.87189)
(3.38781e-16 0.0200693 2.84265)
(2.97724e-16 0.0252946 2.8101)
(4.1076e-16 0.0303508 2.77442)
(3.663e-16 0.0349732 2.73592)
(3.38599e-16 0.0392251 2.69457)
(3.37107e-16 0.0433994 2.64979)
(3.31389e-16 0.0476058 2.60131)
(3.40724e-16 0.0517576 2.54894)
(3.39574e-16 0.0557135 2.49275)
(2.98684e-16 0.0593407 2.43306)
(3.02536e-16 0.0625336 2.37038)
(6.04998e-17 0.0652183 2.30531)
(-7.51002e-17 0.0673534 2.23857)
(-1.53818e-16 0.0689273 2.17086)
(-2.52952e-16 0.0699547 2.10285)
(-3.31192e-16 0.0704704 2.03515)
(-3.90941e-16 0.0705235 1.96829)
(-3.54393e-16 0.070171 1.9027)
(-6.47428e-16 0.0694726 1.8387)
(-6.83906e-16 0.0684874 1.77654)
(-9.76984e-16 0.0672706 1.71641)
(-1.08727e-15 0.0658726 1.6584)
(-1.06029e-15 0.0643381 1.60257)
(-1.0877e-15 0.0627057 1.54895)
(-8.16423e-16 0.0610089 1.49751)
(-7.57425e-16 0.059276 1.44822)
(-6.47843e-16 0.0575305 1.40103)
(-9.37965e-16 0.0557917 1.35585)
(-9.16847e-16 0.0540752 1.31263)
(-1.16805e-15 0.0523927 1.27127)
(-1.08885e-15 0.0507527 1.2317)
(-9.16812e-16 0.0491607 1.19382)
(-8.60395e-16 0.0476192 1.15757)
(-6.77948e-16 0.0461284 1.12287)
(-1.22391e-15 0.0446868 1.08965)
(-1.27863e-15 0.0432913 1.05783)
(-1.53107e-15 0.0419382 1.02736)
(-1.53563e-15 0.0406235 0.998193)
(-1.84994e-15 0.0393432 0.970264)
(-1.91859e-15 0.0380942 0.943528)
(-2.0076e-15 0.036874 0.917939)
(-1.63537e-15 0.035681 0.893454)
(-1.85371e-15 0.0345147 0.870028)
(-2.0887e-15 0.0333754 0.847621)
(-2.15868e-15 0.0322639 0.826189)
(-2.64767e-15 0.0311817 0.805691)
(-2.44173e-15 0.0301304 0.786086)
(-2.42684e-15 0.0291117 0.767333)
(-2.15109e-15 0.0281271 0.749392)
(-1.93774e-15 0.0271778 0.732222)
(-2.57968e-15 0.0262644 0.715785)
(-2.7801e-15 0.0253872 0.700044)
(-2.7508e-15 0.0245456 0.684963)
(-3.06042e-15 0.0237389 0.670508)
(-3.16464e-15 0.0229653 0.656649)
(-3.19948e-15 0.022223 0.643354)
(-3.19387e-15 0.0215096 0.630599)
(-3.26457e-15 0.0208223 0.618357)
(-3.00511e-15 0.0201581 0.606606)
(-2.99052e-15 0.0195139 0.595328)
(-2.96754e-15 0.0188863 0.584502)
(-3.42025e-15 0.0182716 0.57412)
(-3.6357e-15 0.0176659 0.564154)
(-3.86337e-15 0.0170655 0.554634)
(-3.73004e-15 0.0164649 0.545438)
(-3.50045e-15 0.0158651 0.536886)
(-3.32502e-15 0.0152336 0.528051)
(-4.24586e-15 0.0146913 0.521609)
(-3.65152e-15 0.0136587 0.510339)
(-3.15612e-15 0.0421828 4.07332)
(-3.26434e-15 -0.0177007 4.20883)
(-3.26211e-15 -0.0326307 4.32565)
(-3.22209e-15 -0.025987 4.39544)
(-3.1033e-15 -0.0121551 4.42373)
(-2.9814e-15 0.00163629 4.41855)
(-2.84438e-15 0.0135022 4.38721)
(-2.59608e-15 0.0233594 4.33556)
(-2.36088e-15 0.0315997 4.26782)
(-2.19679e-15 0.0390203 4.18672)
(-2.01327e-15 0.0469936 4.0925)
(-1.68854e-15 0.0571938 3.98171)
(-1.3556e-15 0.0700348 3.84876)
(-1.04639e-15 0.0831706 3.69676)
(-7.55725e-16 0.0928485 3.53942)
(-5.29452e-16 0.0965881 3.39063)
(-3.26272e-16 0.0935491 3.26143)
(-2.77641e-16 0.0843161 3.15932)
(-2.2074e-16 0.0704885 3.08787)
(-1.42049e-17 0.0537175 3.04656)
(1.90875e-16 0.0364139 3.03076)
(2.71948e-16 0.0214732 3.02918)
(3.72119e-16 0.0107558 3.0308)
(4.83481e-16 0.00448034 3.02914)
(4.0642e-16 0.00186793 3.02189)
(3.73839e-16 0.00190731 3.00908)
(3.67091e-16 0.00376065 2.99153)
(3.2607e-16 0.00686247 2.97015)
(3.2638e-16 0.0108728 2.94562)
(2.16185e-16 0.0155904 2.91838)
(1.97154e-16 0.0208698 2.88864)
(1.36142e-16 0.0265522 2.85651)
(1.14845e-16 0.0324021 2.822)
(9.02377e-17 0.0380922 2.78513)
(1.68738e-16 0.0433796 2.74603)
(3.31527e-16 0.0483952 2.70435)
(3.99212e-16 0.0534687 2.65917)
(4.15895e-16 0.0586695 2.61001)
(4.09544e-16 0.0638495 2.55663)
(4.48207e-16 0.0688069 2.49911)
(3.02359e-16 0.0733567 2.43786)
(5.16386e-17 0.0773537 2.3735)
(2.68961e-17 0.0806978 2.30676)
(-2.17659e-16 0.0833344 2.23843)
(-3.16878e-16 0.0852505 2.16929)
(-3.51462e-16 0.0864682 2.10004)
(-3.97014e-16 0.0870369 2.03131)
(-4.57176e-16 0.0870239 1.96362)
(-5.01872e-16 0.0865059 1.89738)
(-5.69466e-16 0.0855624 1.83291)
(-6.22595e-16 0.0842704 1.77043)
(-7.00995e-16 0.082701 1.71008)
(-7.88838e-16 0.0809179 1.65197)
(-8.68613e-16 0.0789769 1.59611)
(-9.51606e-16 0.076926 1.54252)
(-9.78364e-16 0.0748055 1.49116)
(-9.8205e-16 0.0726495 1.44199)
(-8.84895e-16 0.0704857 1.39493)
(-1.14119e-15 0.0683366 1.3499)
(-1.17747e-15 0.06622 1.30683)
(-1.24594e-15 0.0641491 1.26564)
(-1.02246e-15 0.062133 1.22622)
(-8.99422e-16 0.0601773 1.1885)
(-8.44203e-16 0.0582842 1.15241)
(-8.05308e-16 0.0564533 1.11786)
(-1.1755e-15 0.0546822 1.08479)
(-1.52631e-15 0.052967 1.05314)
(-1.98914e-15 0.0513031 1.02283)
(-2.04024e-15 0.0496857 0.993831)
(-2.38522e-15 0.0481104 0.966075)
(-2.47923e-15 0.0465737 0.939518)
(-2.53365e-15 0.0450729 0.914114)
(-2.56059e-15 0.0436066 0.889816)
(-2.75679e-15 0.0421742 0.866579)
(-2.27458e-15 0.0407763 0.844361)
(-2.17952e-15 0.0394142 0.823117)
(-2.37912e-15 0.0380895 0.802802)
(-2.20552e-15 0.0368041 0.783375)
(-2.20315e-15 0.0355601 0.764792)
(-2.2454e-15 0.0343588 0.747012)
(-2.2667e-15 0.0332016 0.729993)
(-2.33253e-15 0.032089 0.713697)
(-2.22289e-15 0.031021 0.698087)
(-1.55731e-15 0.0299967 0.683126)
(-1.66941e-15 0.0290148 0.668783)
(-2.481e-15 0.0280732 0.655024)
(-2.76633e-15 0.0271694 0.641823)
(-2.86975e-15 0.0263004 0.629153)
(-2.93628e-15 0.0254627 0.616991)
(-2.96565e-15 0.0246528 0.605314)
(-2.98747e-15 0.0238666 0.594105)
(-2.92011e-15 0.0231 0.583347)
(-3.28118e-15 0.0223486 0.573029)
(-3.4946e-15 0.0216077 0.563126)
(-3.34568e-15 0.0208728 0.553668)
(-3.02562e-15 0.0201366 0.544536)
(-2.98498e-15 0.0194036 0.536046)
(-3.10276e-15 0.018626 0.527281)
(-2.75367e-15 0.0179763 0.520893)
(-1.76115e-15 0.0166904 0.50973)
(-3.2596e-15 0.034147 4.17393)
(-3.3708e-15 -0.026741 4.32181)
(-3.36384e-15 -0.0386931 4.43365)
(-3.31375e-15 -0.0281972 4.4935)
(-3.17709e-15 -0.0109259 4.51098)
(-3.0644e-15 0.00568388 4.49496)
(-2.91006e-15 0.0198792 4.45304)
(-2.71048e-15 0.0316958 4.39137)
(-2.50704e-15 0.0416295 4.31439)
(-2.32221e-15 0.0507152 4.22451)
(-2.13339e-15 0.0607704 4.12071)
(-1.83773e-15 0.0737165 3.99728)
(-1.50562e-15 0.0893879 3.84839)
(-1.15994e-15 0.104097 3.68332)
(-8.26984e-16 0.113518 3.51916)
(-6.45989e-16 0.115326 3.37094)
(-5.05891e-16 0.109101 3.24939)
(-2.75484e-16 0.096012 3.16068)
(-1.19943e-16 0.0781127 3.10621)
(1.25016e-16 0.0576046 3.08267)
(1.8419e-16 0.0379422 3.07974)
(1.96417e-16 0.0223134 3.08301)
(3.11609e-16 0.0120477 3.08264)
(3.56513e-16 0.00668131 3.07495)
(3.3884e-16 0.00500133 3.06003)
(3.36811e-16 0.00582556 3.03933)
(2.62503e-16 0.00829714 3.01444)
(1.04232e-16 0.0118916 2.98657)
(1.44005e-16 0.0163223 2.95653)
(9.68097e-17 0.0214342 2.92479)
(8.14071e-17 0.0271157 2.89153)
(8.65048e-17 0.0332285 2.85683)
(8.74421e-17 0.0395428 2.8206)
(9.40938e-17 0.0457366 2.78279)
(8.8957e-17 0.0516109 2.74335)
(1.42501e-16 0.0573793 2.70162)
(2.00016e-16 0.0633989 2.65629)
(2.24348e-16 0.0696716 2.60672)
(2.35821e-16 0.0759624 2.55253)
(3.27141e-16 0.081989 2.49388)
(1.60304e-16 0.0875032 2.43126)
(1.66834e-16 0.0923172 2.36544)
(-2.96848e-17 0.0963083 2.29728)
(-1.22358e-16 0.0994156 2.22769)
(-1.69646e-16 0.101632 2.1575)
(-2.14643e-16 0.102994 2.08743)
(-3.1948e-16 0.103569 2.01813)
(-2.13686e-16 0.103448 1.95008)
(-7.52734e-17 0.102729 1.88368)
(2.74917e-16 0.10151 1.81921)
(6.67666e-16 0.0998875 1.75685)
(1.11837e-15 0.0979475 1.69673)
(1.04821e-15 0.0957667 1.63891)
(7.94649e-16 0.0934113 1.58341)
(5.50339e-16 0.0909375 1.5302)
(3.35858e-16 0.0883922 1.47925)
(1.18707e-16 0.0858145 1.43048)
(1.01566e-16 0.0832357 1.38383)
(-2.45604e-16 0.0806812 1.33921)
(-4.51733e-16 0.0781702 1.29653)
(-5.72111e-16 0.075717 1.25571)
(-6.08652e-16 0.0733309 1.21666)
(-6.97125e-16 0.0710174 1.17929)
(-4.28105e-16 0.068778 1.14354)
(-4.37615e-16 0.0666116 1.10932)
(-1.92547e-16 0.0645149 1.07657)
(-4.89183e-16 0.0624832 1.04523)
(-9.36369e-16 0.0605111 1.01524)
(-8.1697e-16 0.0585932 0.986541)
(-9.868e-16 0.0567249 0.959094)
(-8.74033e-16 0.0549023 0.932844)
(-1.0842e-15 0.053123 0.907745)
(-1.13432e-15 0.0513856 0.883749)
(-1.11962e-15 0.04969 0.86081)
(-1.02317e-15 0.048037 0.838883)
(-9.12653e-16 0.0464282 0.817921)
(-5.24921e-16 0.0448655 0.797879)
(-2.60082e-16 0.0433511 0.778713)
(-3.27768e-16 0.041887 0.760378)
(-6.0562e-16 0.0404747 0.742832)
(-4.70073e-16 0.0391154 0.726034)
(-5.98973e-16 0.0378094 0.709944)
(-6.12207e-16 0.0365562 0.694526)
(-4.34328e-18 0.0353547 0.679744)
(8.21502e-17 0.0342029 0.665566)
(-9.49206e-17 0.0330981 0.651962)
(-3.09597e-16 0.0320373 0.638905)
(-6.22211e-16 0.0310167 0.626369)
(-5.17301e-16 0.0300322 0.614333)
(-6.47678e-16 0.0290795 0.602776)
(-8.53033e-16 0.0281539 0.591682)
(-9.63475e-16 0.0272505 0.581032)
(-1.52237e-15 0.0263641 0.570821)
(-1.79508e-15 0.0254892 0.561022)
(-2.12652e-15 0.0246208 0.551667)
(-1.65849e-15 0.0237498 0.542639)
(-1.46202e-15 0.0228837 0.534249)
(-8.24266e-16 0.0219608 0.525593)
(-1.01374e-15 0.0212011 0.519289)
(-2.37081e-16 0.0196668 0.508287)
(-3.35204e-15 0.0242109 4.26676)
(-3.47722e-15 -0.0364095 4.42171)
(-3.49318e-15 -0.0444003 4.52632)
(-3.38801e-15 -0.0296184 4.57488)
(-3.27417e-15 -0.00877561 4.58001)
(-3.11961e-15 0.0106591 4.55147)
(-2.91925e-15 0.0271195 4.49749)
(-2.7457e-15 0.0407862 4.42478)
(-2.5525e-15 0.0523093 4.338)
(-2.31101e-15 0.0630832 4.23892)
(-2.06008e-15 0.0754739 4.12464)
(-1.78102e-15 0.0914645 3.98708)
(-1.46792e-15 0.109842 3.82289)
(-1.14763e-15 0.125469 3.64809)
(-8.79414e-16 0.133757 3.48204)
(-5.53202e-16 0.132748 3.33978)
(-3.32864e-16 0.12261 3.23095)
(-1.60375e-16 0.105205 3.16)
(-1.43836e-17 0.0830172 3.12564)
(9.92724e-17 0.0593419 3.11996)
(1.78789e-16 0.0384608 3.12654)
(1.91438e-16 0.0232561 3.13051)
(2.78233e-16 0.0141617 3.12513)
(3.54979e-16 0.0100279 3.10986)
(3.27219e-16 0.00934396 3.08679)
(3.04329e-16 0.0108807 3.05835)
(1.66322e-16 0.0138371 3.02651)
(1.75175e-16 0.0177665 2.99262)
(1.65088e-16 0.0224514 2.95749)
(1.37777e-16 0.0277893 2.92156)
(1.11997e-16 0.0337061 2.88501)
(9.38213e-17 0.0400862 2.84784)
(8.33854e-17 0.0467101 2.80994)
(8.60744e-17 0.0532731 2.7712)
(7.97163e-17 0.059644 2.7314)
(1.76679e-16 0.0661402 2.6896)
(2.26848e-16 0.0731401 2.64414)
(2.62052e-16 0.0805536 2.59413)
(2.80301e-16 0.0880316 2.53916)
(3.68972e-16 0.0951892 2.4794)
(2.1458e-16 0.101702 2.41549)
(1.04137e-16 0.107336 2.34835)
(-1.43246e-16 0.11195 2.27899)
(-2.26273e-16 0.115486 2.20842)
(-2.38771e-16 0.117951 2.1375)
(-2.44679e-16 0.119404 2.06701)
(-2.65889e-16 0.119938 1.99754)
(-3.20488e-16 0.119666 1.92955)
(-1.53487e-16 0.118711 1.8634)
(1.97109e-16 0.117191 1.79933)
(3.25002e-16 0.115221 1.73748)
(5.93872e-16 0.112899 1.67795)
(7.95325e-16 0.110315 1.62076)
(8.80666e-16 0.107544 1.56592)
(8.96751e-16 0.10465 1.51338)
(9.64189e-16 0.101686 1.46309)
(6.01353e-16 0.0986936 1.41497)
(7.81991e-16 0.0957088 1.36895)
(7.07281e-16 0.0927584 1.32494)
(8.52204e-16 0.0898631 1.28284)
(8.2717e-16 0.0870375 1.24257)
(6.86845e-16 0.0842909 1.20404)
(5.18287e-16 0.0816283 1.16718)
(4.15619e-16 0.0790506 1.13191)
(3.00352e-16 0.0765556 1.09816)
(3.13963e-16 0.0741393 1.06586)
(3.71121e-17 0.0717962 1.03496)
(-4.34345e-16 0.0695203 1.0054)
(-5.54574e-16 0.067306 0.977129)
(-6.75776e-16 0.0651485 0.950097)
(-4.25897e-16 0.0630439 0.924257)
(-4.48738e-16 0.0609901 0.899558)
(-5.49285e-16 0.0589861 0.875954)
(-7.25122e-16 0.057032 0.853397)
(-5.46682e-16 0.0551291 0.831839)
(-6.06168e-16 0.0532793 0.811232)
(-3.79815e-16 0.0514848 0.791531)
(-1.45687e-18 0.0497478 0.772688)
(6.74158e-17 0.0480705 0.75466)
(7.96829e-17 0.0464541 0.737403)
(-2.08942e-16 0.0448996 0.720876)
(-7.33424e-16 0.0434069 0.705041)
(-5.43208e-16 0.0419752 0.68986)
(-4.25719e-16 0.0406026 0.6753)
(-3.1568e-16 0.0392867 0.661329)
(-2.37782e-16 0.0380242 0.647919)
(-2.35723e-16 0.0368112 0.635043)
(-2.739e-16 0.0356434 0.622679)
(-3.95755e-16 0.034516 0.610805)
(-1.67628e-16 0.0334239 0.599402)
(-1.36995e-16 0.0323618 0.588455)
(-4.82632e-16 0.031324 0.577949)
(-1.11942e-15 0.0303047 0.567875)
(-1.12916e-15 0.0292973 0.558212)
(-9.89243e-16 0.0282967 0.548991)
(-8.25736e-16 0.0272917 0.540095)
(-5.94101e-16 0.026293 0.531834)
(-7.2097e-16 0.0252263 0.523316)
(-6.41296e-16 0.024354 0.517118)
(-3.30543e-16 0.0225772 0.506315)
(-3.51691e-15 0.0131715 4.35397)
(-3.58986e-15 -0.0455076 4.5127)
(-3.58186e-15 -0.048894 4.60796)
(-3.45406e-15 -0.0297232 4.64332)
(-3.33187e-15 -0.00536207 4.63424)
(-3.18398e-15 0.016794 4.59152)
(-2.9961e-15 0.0353693 4.52427)
(-2.76258e-15 0.0507068 4.43992)
(-2.5536e-15 0.0636931 4.3432)
(-2.25045e-15 0.0762378 4.2348)
(-1.93666e-15 0.0912717 4.10928)
(-1.61605e-15 0.110522 3.95619)
(-1.28939e-15 0.131151 3.7784)
(-9.89031e-16 0.146793 3.59764)
(-7.32894e-16 0.152962 3.43447)
(-5.06062e-16 0.148253 3.30311)
(-2.87651e-16 0.133567 3.21167)
(-1.82823e-16 0.111543 3.16242)
(-1.79481e-16 0.0852207 3.15018)
(7.34673e-18 0.0594033 3.15994)
(1.46121e-16 0.0386273 3.17134)
(1.65947e-16 0.0248222 3.17205)
(3.05082e-16 0.0173805 3.15944)
(1.57644e-16 0.0146117 3.13582)
(1.47245e-16 0.014877 3.10465)
(1.90841e-16 0.0170057 3.06888)
(1.77399e-16 0.0203024 3.0306)
(7.42423e-17 0.024417 2.99116)
(9.37474e-18 0.0292064 2.95133)
(2.22027e-18 0.0346219 2.91151)
(-1.23942e-16 0.0406262 2.87184)
(-1.85655e-16 0.0471271 2.83229)
(-2.45811e-16 0.0539181 2.79274)
(-3.60802e-16 0.0607239 2.753)
(-4.22597e-16 0.0675064 2.71277)
(-2.94009e-16 0.0747087 2.67077)
(-1.84239e-16 0.0827238 2.625)
(-8.07278e-17 0.0913421 2.57441)
(3.17805e-17 0.100073 2.51851)
(1.56198e-16 0.108407 2.45756)
(2.38822e-16 0.115932 2.39235)
(3.51591e-16 0.122368 2.32399)
(1.42248e-16 0.127563 2.2536)
(4.58903e-17 0.131469 2.18229)
(3.73253e-18 0.134119 2.11096)
(-4.40252e-17 0.135602 2.04037)
(-9.01338e-17 0.136041 1.97109)
(-1.55208e-16 0.135576 1.90353)
(-2.01644e-16 0.134353 1.83798)
(-1.84649e-16 0.132511 1.77464)
(-1.502e-16 0.130179 1.71362)
(-6.54356e-17 0.12747 1.65496)
(5.11201e-17 0.124483 1.59868)
(1.91736e-16 0.121302 1.54474)
(3.16278e-16 0.117996 1.49309)
(5.43377e-16 0.114622 1.44367)
(3.54611e-16 0.111228 1.3964)
(4.49026e-16 0.10785 1.35118)
(3.45877e-16 0.104518 1.30793)
(2.3572e-16 0.101251 1.26656)
(1.07209e-16 0.0980657 1.22698)
(2.11683e-16 0.0949705 1.18912)
(3.19929e-16 0.0919696 1.15288)
(4.82204e-16 0.0890632 1.11821)
(2.52431e-16 0.0862482 1.08504)
(2.51168e-16 0.0835199 1.0533)
(4.36992e-17 0.080872 1.02294)
(-3.74671e-16 0.0782984 0.993908)
(-5.20601e-16 0.0757933 0.966153)
(-6.6809e-16 0.0733519 0.939626)
(-4.16107e-16 0.0709709 0.914276)
(-3.97787e-16 0.0686483 0.890056)
(-4.31438e-16 0.0663837 0.866915)
(-7.70932e-16 0.0641776 0.844805)
(-1.32719e-15 0.0620317 0.823677)
(-1.34321e-15 0.0599482 0.803481)
(-6.98756e-16 0.0579294 0.784171)
(-5.99275e-16 0.0559777 0.7657)
(-2.90887e-16 0.054095 0.748023)
(-1.95398e-16 0.0522825 0.731096)
(-1.81697e-16 0.0505405 0.714879)
(-6.78382e-16 0.0488687 0.699333)