/*--------------------------------*- C++ -*----------------------------------*\
| =========                 |                                                 |
| \\      /  F ield         | OpenFOAM: The Open Source CFD Toolbox           |
|  \\    /   O peration     | Version:  4.1                                   |
|   \\  /    A nd           | Web:      www.OpenFOAM.org                      |
|    \\/     M anipulation  |                                                 |
\*---------------------------------------------------------------------------*/
FoamFile
{
    version     2.0;
    format      ascii;
    class       volScalarField;
    location    "1600";
    object      k;
}
// * * * * * * * * * * * * * * * * * * * * * * * * * * * * * * * * * * * * * //

dimensions      [0 2 -2 0 0 0 0];

internalField   nonuniform List<scalar> 
6820
(
0.257082
0.434211
0.59852
0.709382
0.778145
0.818049
0.838548
0.845896
0.844371
0.836964
0.825768
0.812248
0.797427
0.782016
0.7665
0.751203
0.736339
0.722039
0.708382
0.695404
0.683119
0.67152
0.660589
0.650301
0.640624
0.631527
0.622973
0.614935
0.607352
0.60031
0.593207
0.58871
0.574501
0.811277
1.44613
1.51874
1.38792
1.22323
1.07762
0.95922
0.864569
0.788642
0.727157
0.676842
0.635256
0.600578
0.571431
0.546763
0.525757
0.507776
0.49231
0.478953
0.467376
0.457309
0.448531
0.440857
0.434136
0.428238
0.423056
0.418498
0.414489
0.410961
0.407881
0.405151
0.402938
0.400683
0.368869
0.66416
0.797428
0.829397
0.816589
0.786285
0.750411
0.713991
0.679044
0.646311
0.616001
0.588103
0.562514
0.539088
0.517663
0.498078
0.480173
0.4638
0.44882
0.435107
0.422544
0.411025
0.400457
0.390751
0.381831
0.373626
0.366073
0.359115
0.352701
0.346787
0.341327
0.336302
0.331651
0.240027
0.336287
0.412169
0.460222
0.487105
0.500012
0.504036
0.502508
0.497533
0.490423
0.482012
0.472846
0.463295
0.45361
0.443967
0.434484
0.425241
0.416294
0.407675
0.399404
0.391489
0.383933
0.37673
0.369875
0.363355
0.357161
0.351278
0.345693
0.340392
0.335363
0.330591
0.326065
0.321765
0.214145
0.250649
0.284542
0.31208
0.332947
0.348027
0.358469
0.365345
0.369528
0.371681
0.372296
0.371744
0.370308
0.368202
0.365595
0.362616
0.359368
0.355933
0.352374
0.348742
0.345077
0.341411
0.337769
0.33417
0.330629
0.327157
0.323764
0.320456
0.317236
0.314109
0.311076
0.308139
0.305297
0.20564
0.221937
0.238617
0.25366
0.26644
0.276904
0.285272
0.29185
0.296934
0.300784
0.303614
0.305602
0.306896
0.307615
0.307861
0.307715
0.307247
0.306513
0.305564
0.304438
0.303171
0.301792
0.300324
0.298789
0.297203
0.295583
0.293939
0.292282
0.290622
0.288966
0.28732
0.28569
0.284081
0.202357
0.210378
0.219404
0.228106
0.235957
0.242783
0.248605
0.253514
0.257621
0.261026
0.263824
0.266096
0.267914
0.269339
0.270425
0.271218
0.271758
0.272079
0.272212
0.272182
0.272013
0.271724
0.271333
0.270855
0.270303
0.269689
0.269023
0.268314
0.267571
0.266799
0.266006
0.265197
0.264377
0.201008
0.2051
0.210232
0.215526
0.22054
0.225078
0.229098
0.232621
0.235689
0.238346
0.240635
0.242597
0.244268
0.245681
0.246865
0.247846
0.248647
0.249289
0.249788
0.250162
0.250425
0.25059
0.250667
0.250668
0.250602
0.250476
0.250298
0.250074
0.249811
0.249514
0.249187
0.248836
0.248464
0.200424
0.202508
0.205459
0.208754
0.21204
0.21513
0.217953
0.220495
0.222768
0.224789
0.226579
0.228159
0.229548
0.230765
0.231826
0.232746
0.23354
0.23422
0.234797
0.235281
0.235681
0.236006
0.236263
0.236458
0.236599
0.236691
0.236738
0.236746
0.236719
0.23666
0.236574
0.236463
0.236331
0.200163
0.201193
0.202864
0.204904
0.207067
0.20919
0.211193
0.213044
0.214736
0.216272
0.217659
0.218908
0.220029
0.221031
0.221926
0.222722
0.223428
0.224051
0.224599
0.225079
0.225496
0.225856
0.226164
0.226425
0.226643
0.226822
0.226965
0.227076
0.227157
0.227213
0.227244
0.227255
0.227246
0.200044
0.20052
0.201431
0.202661
0.20406
0.205505
0.206921
0.208268
0.209528
0.210694
0.211766
0.212747
0.213641
0.214454
0.215192
0.215859
0.21646
0.217002
0.217488
0.217924
0.218312
0.218657
0.218963
0.219231
0.219467
0.219671
0.219848
0.219999
0.220126
0.220232
0.220318
0.220386
0.220439
0.199989
0.200177
0.20064
0.201347
0.20222
0.203178
0.204159
0.205125
0.206054
0.206932
0.207754
0.208519
0.209226
0.209879
0.210478
0.211028
0.21153
0.211989
0.212406
0.212786
0.21313
0.213441
0.213722
0.213975
0.214201
0.214404
0.214584
0.214744
0.214885
0.215008
0.215116
0.21521
0.215291
0.199965
0.200004
0.200209
0.200585
0.201099
0.201706
0.202361
0.203034
0.203702
0.204351
0.204971
0.205558
0.206111
0.206627
0.207107
0.207553
0.207966
0.208347
0.208698
0.209021
0.209317
0.209589
0.209837
0.210063
0.21027
0.210457
0.210627
0.210781
0.21092
0.211045
0.211158
0.211259
0.211349
0.199954
0.199918
0.199979
0.20015
0.200426
0.200783
0.201198
0.201645
0.202107
0.20257
0.203025
0.203465
0.203886
0.204286
0.204664
0.205019
0.205352
0.205662
0.205951
0.20622
0.206469
0.2067
0.206913
0.20711
0.207291
0.207458
0.207611
0.207752
0.207881
0.207999
0.208107
0.208206
0.208296
0.199949
0.199877
0.199858
0.199907
0.20003
0.200217
0.200456
0.200733
0.201034
0.201348
0.201667
0.201984
0.202294
0.202594
0.202883
0.203158
0.203419
0.203665
0.203898
0.204116
0.204321
0.204512
0.20469
0.204857
0.205011
0.205155
0.205289
0.205413
0.205528
0.205634
0.205733
0.205824
0.205908
0.199947
0.199857
0.199796
0.199776
0.199803
0.199877
0.199994
0.200145
0.200323
0.20052
0.200729
0.200944
0.20116
0.201375
0.201586
0.201791
0.201988
0.202178
0.202358
0.20253
0.202693
0.202846
0.202991
0.203127
0.203256
0.203376
0.203488
0.203594
0.203693
0.203785
0.203872
0.203953
0.204029
0.199947
0.199847
0.199764
0.199706
0.199676
0.199679
0.199713
0.199776
0.199863
0.19997
0.200092
0.200224
0.200363
0.200506
0.200651
0.200794
0.200936
0.201074
0.201208
0.201337
0.201461
0.201579
0.201692
0.2018
0.201902
0.201999
0.202091
0.202177
0.202259
0.202337
0.20241
0.202479
0.202544
0.199946
0.199843
0.199749
0.199669
0.199608
0.199567
0.199548
0.19955
0.199573
0.199614
0.199669
0.199737
0.199814
0.199898
0.199986
0.200078
0.20017
0.200264
0.200356
0.200447
0.200536
0.200622
0.200705
0.200786
0.200863
0.200938
0.201009
0.201077
0.201142
0.201205
0.201264
0.201321
0.201375
0.199946
0.199841
0.199742
0.199651
0.199571
0.199505
0.199453
0.199417
0.199396
0.199389
0.199396
0.199415
0.199443
0.19948
0.199523
0.199572
0.199624
0.199678
0.199735
0.199792
0.199849
0.199907
0.199964
0.20002
0.200074
0.200128
0.20018
0.20023
0.200279
0.200326
0.200372
0.200416
0.200459
0.199946
0.19984
0.199739
0.199642
0.199553
0.199471
0.1994
0.19934
0.19929
0.199252
0.199225
0.199209
0.199201
0.199202
0.199209
0.199223
0.199242
0.199265
0.199291
0.19932
0.199351
0.199383
0.199416
0.19945
0.199485
0.199519
0.199554
0.199588
0.199622
0.199655
0.199688
0.199721
0.199753
0.199946
0.19984
0.199737
0.199638
0.199543
0.199454
0.199372
0.199297
0.19923
0.199172
0.199122
0.199081
0.199048
0.199022
0.199003
0.198991
0.198984
0.198982
0.198984
0.198989
0.198998
0.19901
0.199023
0.199039
0.199056
0.199074
0.199093
0.199113
0.199134
0.199155
0.199177
0.199199
0.199221
0.199946
0.19984
0.199736
0.199635
0.199538
0.199445
0.199356
0.199273
0.199196
0.199125
0.199061
0.199004
0.198954
0.198911
0.198873
0.198842
0.198817
0.198796
0.19878
0.198768
0.19876
0.198755
0.198753
0.198754
0.198757
0.198763
0.19877
0.198778
0.198788
0.198799
0.198811
0.198825
0.198839
0.199946
0.19984
0.199736
0.199634
0.199536
0.19944
0.199349
0.199261
0.199178
0.1991
0.199028
0.198962
0.198901
0.198846
0.198798
0.198754
0.198716
0.198683
0.198655
0.198631
0.198611
0.198595
0.198583
0.198573
0.198567
0.198562
0.198561
0.198561
0.198563
0.198567
0.198572
0.198578
0.198586
0.199946
0.19984
0.199735
0.199634
0.199534
0.199438
0.199345
0.199255
0.19917
0.199089
0.199013
0.198942
0.198876
0.198816
0.198761
0.198711
0.198667
0.198628
0.198593
0.198563
0.198537
0.198514
0.198496
0.198481
0.198468
0.198459
0.198452
0.198447
0.198445
0.198444
0.198446
0.198448
0.198452
0.199946
0.19984
0.199735
0.199633
0.199534
0.199437
0.199344
0.199254
0.199168
0.199087
0.19901
0.198939
0.198873
0.198812
0.198756
0.198706
0.198661
0.198621
0.198586
0.198555
0.198528
0.198505
0.198485
0.198469
0.198456
0.198446
0.198438
0.198433
0.198429
0.198428
0.198428
0.19843
0.198433
0.199946
0.19984
0.199735
0.199634
0.199534
0.199438
0.199346
0.199257
0.199174
0.199095
0.199022
0.198954
0.198892
0.198836
0.198785
0.19874
0.1987
0.198665
0.198635
0.198609
0.198587
0.198569
0.198554
0.198542
0.198533
0.198527
0.198523
0.198521
0.19852
0.198522
0.198524
0.198529
0.198534
0.199946
0.19984
0.199736
0.199635
0.199537
0.199442
0.199353
0.199269
0.19919
0.199118
0.199053
0.198995
0.198943
0.198898
0.198858
0.198825
0.198797
0.198774
0.198756
0.198741
0.19873
0.198723
0.198718
0.198716
0.198716
0.198718
0.198722
0.198728
0.198734
0.198742
0.19875
0.19876
0.19877
0.199946
0.19984
0.199737
0.199637
0.199542
0.199453
0.19937
0.199295
0.199228
0.19917
0.199121
0.199079
0.199046
0.19902
0.199001
0.198988
0.19898
0.198977
0.198978
0.198982
0.198989
0.198998
0.19901
0.199023
0.199037
0.199052
0.199068
0.199085
0.199102
0.199119
0.199136
0.199153
0.199171
0.199946
0.199841
0.19974
0.199645
0.199557
0.199478
0.19941
0.199354
0.199309
0.199277
0.199255
0.199244
0.199241
0.199247
0.199259
0.199277
0.199299
0.199325
0.199353
0.199384
0.199416
0.199448
0.199481
0.199514
0.199547
0.199579
0.199611
0.199642
0.199672
0.199701
0.199729
0.199756
0.199782
0.199947
0.199844
0.199749
0.199664
0.199592
0.199537
0.199499
0.19948
0.199477
0.19949
0.199516
0.199553
0.199599
0.199652
0.19971
0.199772
0.199836
0.199901
0.199965
0.20003
0.200092
0.200154
0.200213
0.20027
0.200324
0.200376
0.200426
0.200473
0.200518
0.20056
0.200599
0.200637
0.200672
0.199948
0.199852
0.19977
0.199711
0.199677
0.199673
0.199697
0.199746
0.199818
0.199907
0.20001
0.200122
0.200239
0.20036
0.200481
0.2006
0.200717
0.20083
0.200939
0.201043
0.201141
0.201234
0.201322
0.201405
0.201482
0.201554
0.201622
0.201685
0.201743
0.201797
0.201848
0.201894
0.201937
0.199951
0.199872
0.199828
0.199831
0.199884
0.199985
0.200128
0.200302
0.2005
0.200711
0.200928
0.201146
0.201361
0.201569
0.201768
0.201958
0.202136
0.202304
0.20246
0.202605
0.20274
0.202865
0.20298
0.203087
0.203184
0.203274
0.203356
0.203431
0.2035
0.203562
0.203619
0.203671
0.203718
0.19996
0.199932
0.199988
0.200141
0.200383
0.200695
0.201055
0.20144
0.201833
0.202222
0.202597
0.202954
0.203288
0.203598
0.203885
0.204149
0.20439
0.204611
0.204811
0.204994
0.205159
0.205309
0.205445
0.205567
0.205677
0.205777
0.205866
0.205946
0.206017
0.20608
0.206137
0.206186
0.20623
0.19999
0.200113
0.200438
0.200945
0.201582
0.202288
0.203012
0.20372
0.20439
0.205011
0.205578
0.206091
0.206552
0.206965
0.207333
0.207661
0.207953
0.208212
0.208442
0.208646
0.208826
0.208985
0.209126
0.209249
0.209357
0.209451
0.209533
0.209603
0.209664
0.209715
0.209757
0.209792
0.20982
0.200097
0.200698
0.201729
0.20303
0.20443
0.205804
0.207078
0.208222
0.20923
0.210107
0.210866
0.211521
0.212084
0.212568
0.212984
0.213341
0.213648
0.21391
0.214135
0.214327
0.21449
0.214628
0.214743
0.214839
0.214917
0.214979
0.215028
0.215064
0.215089
0.215104
0.215111
0.215109
0.2151
0.200521
0.202675
0.205525
0.20847
0.211189
0.21355
0.215527
0.217152
0.218476
0.219552
0.220424
0.221131
0.221704
0.222168
0.222543
0.222845
0.223087
0.223277
0.223425
0.223537
0.223618
0.223672
0.223703
0.223713
0.223707
0.223684
0.223649
0.223601
0.223542
0.223475
0.223398
0.223315
0.223225
0.202177
0.209422
0.217079
0.223316
0.228003
0.231437
0.233925
0.235719
0.237011
0.237936
0.238593
0.239054
0.239367
0.239569
0.239685
0.239733
0.239727
0.239676
0.239588
0.239469
0.239324
0.239157
0.238971
0.238768
0.23855
0.23832
0.23808
0.23783
0.237573
0.237308
0.237039
0.236764
0.236486
0.208503
0.227596
0.245316
0.25869
0.267554
0.272837
0.275658
0.27695
0.277338
0.277195
0.276744
0.276116
0.275385
0.274596
0.273774
0.272932
0.27208
0.271221
0.270359
0.269495
0.268631
0.267768
0.266908
0.266051
0.265198
0.264351
0.263511
0.262677
0.261853
0.261037
0.260232
0.259437
0.258653
0.248308
0.315061
0.348161
0.362157
0.367118
0.367958
0.366701
0.364185
0.360865
0.357053
0.352965
0.348753
0.344525
0.340356
0.336297
0.332382
0.328633
0.32506
0.321669
0.31846
0.315431
0.312577
0.309891
0.307365
0.304994
0.302768
0.30068
0.298722
0.296886
0.295167
0.293555
0.292046
0.290632
0.205354
0.221127
0.238043
0.254121
0.268995
0.282971
0.296258
0.308938
0.321054
0.332632
0.343696
0.354264
0.36435
0.37397
0.38314
0.391874
0.400187
0.408094
0.415611
0.422753
0.429534
0.435971
0.442077
0.447868
0.453358
0.45856
0.463488
0.468155
0.472574
0.476757
0.480716
0.48446
0.488007
0.617994
0.695153
0.817536
0.966607
1.13135
1.29938
1.46212
1.61252
1.74479
1.85487
1.94115
2.00459
2.04817
2.07588
2.09186
2.09968
2.10206
2.10084
2.09715
2.09161
2.08459
2.07632
2.06701
2.05682
2.04591
2.03438
2.02228
2.00959
1.99626
1.98218
1.96723
1.95125
1.93408
1.91557
1.89555
1.87388
1.85043
1.82509
1.79779
1.76847
1.73709
1.70369
1.66831
1.63104
1.59201
1.55138
1.50938
1.46623
1.42222
1.37766
1.33286
1.28818
1.24398
1.2006
1.15839
1.11769
1.0788
1.042
1.00752
0.975562
0.946266
0.919742
0.896053
0.875224
0.857242
0.842067
0.829626
0.819826
0.812554
0.807679
0.805057
0.804534
0.805949
0.809133
0.813915
0.820116
0.827556
0.836054
0.845424
0.855484
0.86605
0.876944
0.887991
0.899023
0.909882
0.920419
0.930496
0.93999
0.948788
0.956792
0.96392
0.970097
0.975268
0.979377
0.982409
0.984295
0.985137
0.984678
0.983732
0.980483
0.399152
0.404141
0.417439
0.441507
0.477028
0.524478
0.583772
0.654236
0.734589
0.822985
0.917031
1.01387
1.11037
1.20338
1.29007
1.36818
1.43625
1.49364
1.54051
1.57761
1.60603
1.62702
1.64176
1.6513
1.65651
1.65806
1.65649
1.6522
1.64549
1.63658
1.62565
1.61279
1.59808
1.58155
1.56324
1.54314
1.52127
1.49763
1.47225
1.44515
1.4164
1.38606
1.35425
1.3211
1.28675
1.2514
1.21525
1.17854
1.14153
1.10448
1.06767
1.03138
0.995908
0.96152
0.928478
0.897023
0.86737
0.839703
0.814173
0.790895
0.769951
0.751389
0.735227
0.721457
0.710047
0.700944
0.69408
0.689373
0.686727
0.68604
0.687199
0.690087
0.69458
0.700554
0.707875
0.716408
0.726014
0.736548
0.747862
0.759804
0.77222
0.784956
0.797857
0.810772
0.823554
0.836062
0.848163
0.859732
0.870658
0.880837
0.89018
0.898606
0.90605
0.912451
0.91778
0.921965
0.92509
0.926922
0.928093
0.927891
0.326703
0.321604
0.317077
0.313602
0.311902
0.312733
0.316623
0.324219
0.336406
0.354065
0.378023
0.408957
0.447267
0.492942
0.545454
0.603709
0.666089
0.730588
0.795029
0.857308
0.915617
0.968598
1.0154
1.05566
1.08941
1.11695
1.13875
1.15534
1.16724
1.17495
1.1789
1.17946
1.17693
1.17158
1.16363
1.15328
1.1407
1.12604
1.10944
1.09106
1.07104
1.04952
1.02667
1.00267
0.977695
0.951946
0.925633
0.898973
0.872194
0.845524
0.819195
0.793432
0.768453
0.744465
0.721656
0.700196
0.68023
0.66188
0.64524
0.63038
0.617344
0.606154
0.596813
0.589307
0.583606
0.579672
0.577455
0.576898
0.577937
0.580503
0.584523
0.58992
0.596611
0.604513
0.613535
0.623583
0.634556
0.64635
0.65885
0.671937
0.685489
0.699374
0.713462
0.727618
0.741709
0.755603
0.769173
0.782297
0.794862
0.806762
0.8179
0.82819
0.837557
0.84593
0.85327
0.8595
0.86468
0.868604
0.871723
0.874364
0.317033
0.311838
0.306763
0.301844
0.297175
0.292878
0.289097
0.285975
0.283649
0.282362
0.28242
0.284189
0.288094
0.294598
0.30417
0.317245
0.334158
0.355084
0.379975
0.408523
0.44015
0.474045
0.509232
0.544662
0.579317
0.612289
0.642848
0.670457
0.694781
0.715652
0.733042
0.747021
0.757726
0.76533
0.770028
0.772019
0.771503
0.768676
0.763731
0.756856
0.748238
0.738062
0.726516
0.713789
0.700072
0.685561
0.670449
0.654933
0.639208
0.623465
0.60789
0.59266
0.577943
0.563893
0.550649
0.538334
0.527052
0.516889
0.507913
0.500174
0.493706
0.488527
0.484646
0.482059
0.480754
0.480716
0.481919
0.484338
0.487941
0.492693
0.498557
0.505491
0.513452
0.522393
0.53226
0.542996
0.554537
0.566812
0.57974
0.593235
0.607201
0.621534
0.636124
0.650858
0.665616
0.68028
0.694728
0.708844
0.722515
0.735632
0.748095
0.759809
0.770693
0.780667
0.789679
0.797645
0.804603
0.81037
0.815222
0.820437
0.302099
0.298519
0.294964
0.291424
0.287901
0.284413
0.280991
0.277675
0.274504
0.271524
0.268796
0.266398
0.264427
0.263004
0.262274
0.262407
0.263591
0.266031
0.269925
0.275453
0.282752
0.291893
0.302859
0.31554
0.329722
0.345103
0.361311
0.37793
0.394534
0.410711
0.426091
0.440363
0.45328
0.464663
0.474399
0.482429
0.488744
0.493373
0.496374
0.497833
0.497852
0.496546
0.494044
0.490482
0.486
0.480745
0.474866
0.46851
0.461824
0.454953
0.448036
0.441204
0.434582
0.428284
0.422415
0.417066
0.412317
0.408235
0.404877
0.402286
0.400497
0.399535
0.399419
0.400158
0.401762
0.404231
0.407567
0.411765
0.41682
0.422724
0.429466
0.437035
0.445414
0.454586
0.464527
0.47521
0.4866
0.498656
0.511328
0.524556
0.538271
0.552396
0.566843
0.581519
0.596321
0.611144
0.625878
0.640412
0.654637
0.668445
0.681732
0.694399
0.706357
0.717518
0.727819
0.737168
0.745582
0.752898
0.759226
0.76669
0.28223
0.280114
0.277971
0.275793
0.273572
0.27131
0.269017
0.266706
0.264394
0.262097
0.259833
0.257623
0.255492
0.253468
0.251588
0.249895
0.248442
0.24729
0.246511
0.246182
0.246385
0.247202
0.248706
0.250958
0.253996
0.257832
0.262443
0.267774
0.273733
0.2802
0.287031
0.294064
0.301133
0.308077
0.314741
0.320993
0.326719
0.331833
0.336271
0.339997
0.342997
0.345279
0.346867
0.347805
0.348147
0.34796
0.347318
0.3463
0.34499
0.343475
0.34184
0.340169
0.338543
0.337038
0.335727
0.334674
0.333939
0.333572
0.33362
0.334121
0.335108
0.336607
0.338644
0.341236
0.344402
0.348154
0.352507
0.357469
0.363051
0.369261
0.376105
0.383588
0.391715
0.400486
0.4099
0.41995
0.430626
0.441909
0.453774
0.466186
0.479101
0.492464
0.506211
0.52027
0.534556
0.54898
0.563446
0.577853
0.592097
0.606075
0.619682
0.632819
0.64539
0.657302
0.66848
0.67883
0.688344
0.696877
0.704392
0.713726
0.263408
0.26227
0.26109
0.259861
0.258578
0.257238
0.255845
0.254405
0.252925
0.251415
0.249882
0.248335
0.246784
0.245237
0.243706
0.242204
0.240744
0.239345
0.23803
0.236823
0.235754
0.234856
0.234164
0.233715
0.233543
0.233679
0.234149
0.234971
0.236149
0.23768
0.239545
0.241712
0.24414
0.246777
0.249565
0.252441
0.255342
0.258208
0.260984
0.263621
0.266081
0.268335
0.270364
0.272162
0.273729
0.275079
0.27623
0.27721
0.278052
0.278793
0.279474
0.280137
0.280827
0.281586
0.282456
0.283477
0.284688
0.286124
0.287815
0.28979
0.292077
0.294697
0.297673
0.301023
0.304765
0.308916
0.313492
0.318508
0.323979
0.32992
0.336346
0.34327
0.350706
0.358668
0.367165
0.376208
0.385801
0.395943
0.406627
0.41784
0.429558
0.44175
0.454372
0.467372
0.480688
0.494246
0.507968
0.521765
0.535544
0.549209
0.562661
0.575801
0.588532
0.600756
0.612394
0.623345
0.633583
0.64298
0.651367
0.662155
0.248006
0.247447
0.246847
0.246201
0.245506
0.244758
0.243958
0.243109
0.242215
0.24128
0.24031
0.239309
0.238282
0.237234
0.236169
0.235092
0.234007
0.232922
0.231843
0.230779
0.22974
0.228739
0.22779
0.226909
0.226113
0.225421
0.224851
0.22442
0.224143
0.224032
0.224095
0.224337
0.224757
0.225349
0.226101
0.227
0.228026
0.229159
0.230376
0.231655
0.232976
0.234318
0.235666
0.237009
0.238337
0.239647
0.240941
0.242223
0.243503
0.244793
0.24611
0.247471
0.248897
0.250409
0.252027
0.253774
0.255671
0.257737
0.259993
0.262455
0.265142
0.268068
0.27125
0.274702
0.278436
0.282469
0.286813
0.291482
0.296492
0.301857
0.307594
0.31372
0.320253
0.327211
0.334611
0.34247
0.350803
0.359623
0.368935
0.378742
0.389038
0.399809
0.411033
0.422678
0.4347
0.447046
0.459656
0.472456
0.485369
0.498309
0.511185
0.523905
0.536375
0.548498
0.56019
0.57135
0.581934
0.591831
0.600764
0.612565
0.236152
0.235915
0.235644
0.235336
0.234987
0.234595
0.234158
0.23368
0.23316
0.232602
0.232009
0.231385
0.230731
0.230052
0.229349
0.228626
0.227884
0.227125
0.226354
0.225572
0.224785
0.223996
0.223212
0.22244
0.221688
0.220965
0.22028
0.219645
0.219071
0.218566
0.218142
0.217808
0.21757
0.217434
0.217404
0.217482
0.217666
0.217955
0.218345
0.218831
0.219407
0.220067
0.220805
0.221617
0.222498
0.223447
0.224462
0.225544
0.226698
0.227926
0.229236
0.230636
0.232133
0.233739
0.235463
0.237316
0.239309
0.241451
0.243753
0.246225
0.248876
0.251716
0.254752
0.257994
0.26145
0.265131
0.269046
0.273205
0.27762
0.282305
0.287274
0.292543
0.29813
0.304054
0.310335
0.316994
0.32405
0.331522
0.339428
0.347778
0.35658
0.365837
0.375541
0.385678
0.396225
0.407146
0.4184
0.429932
0.441681
0.453575
0.465537
0.477484
0.48933
0.500983
0.51236
0.523361
0.533933
0.543977
0.553134
0.565499
0.227214
0.227152
0.227061
0.226942
0.226791
0.226606
0.226387
0.226132
0.225844
0.225523
0.225172
0.224793
0.224388
0.22396
0.223509
0.223038
0.222548
0.222041
0.221518
0.22098
0.22043
0.219869
0.219301
0.218727
0.218153
0.217582
0.21702
0.216473
0.215948
0.215451
0.214989
0.214571
0.214202
0.213891
0.213643
0.213464
0.213359
0.213333
0.213388
0.213526
0.213751
0.214062
0.214461
0.21495
0.215528
0.216197
0.216959
0.217815
0.218768
0.219822
0.220981
0.222247
0.223627
0.225125
0.226746
0.228494
0.230376
0.232395
0.234555
0.236862
0.239319
0.24193
0.244699
0.24763
0.250727
0.253995
0.25744
0.261069
0.264889
0.268911
0.273145
0.277606
0.28231
0.287274
0.292517
0.298061
0.303927
0.310137
0.316712
0.323671
0.331031
0.338802
0.346991
0.355599
0.364617
0.374028
0.383807
0.393919
0.404319
0.414953
0.425759
0.436668
0.447603
0.458484
0.469231
0.479752
0.489987
0.499851
0.508931
0.521428
0.220482
0.22051
0.220517
0.220502
0.220462
0.220396
0.220303
0.220183
0.220036
0.219862
0.219664
0.219443
0.2192
0.218937
0.218656
0.218358
0.218043
0.217715
0.217372
0.217017
0.21665
0.216272
0.215885
0.215491
0.21509
0.214687
0.214284
0.213884
0.213491
0.21311
0.212745
0.212402
0.212086
0.211804
0.21156
0.211362
0.211214
0.211122
0.211091
0.211127
0.211234
0.211416
0.211678
0.212023
0.212456
0.212979
0.213596
0.21431
0.215126
0.216046
0.217073
0.218212
0.219464
0.220834
0.222322
0.223932
0.225666
0.227524
0.229508
0.231618
0.233855
0.23622
0.238713
0.241334
0.244083
0.246962
0.249974
0.253121
0.256408
0.259841
0.263429
0.267183
0.271115
0.27524
0.279576
0.284143
0.28896
0.294052
0.299438
0.305143
0.311186
0.317586
0.324357
0.331511
0.33905
0.346972
0.355268
0.363917
0.372893
0.382158
0.391666
0.401364
0.411191
0.421076
0.43095
0.440732
0.450358
0.459761
0.468494
0.480727
0.215369
0.215442
0.215499
0.21554
0.215561
0.215563
0.215543
0.215503
0.215441
0.215358
0.215256
0.215136
0.214998
0.214844
0.214676
0.214494
0.2143
0.214095
0.21388
0.213655
0.213421
0.21318
0.212932
0.212678
0.212419
0.212157
0.211894
0.211632
0.211373
0.211121
0.210879
0.21065
0.210438
0.210249
0.210087
0.209956
0.209863
0.209812
0.209808
0.209858
0.209966
0.210138
0.210378
0.210692
0.211085
0.21156
0.212124
0.212778
0.213529
0.214378
0.215331
0.216388
0.217553
0.218827
0.220212
0.221709
0.223317
0.225036
0.226865
0.228803
0.230847
0.232996
0.235247
0.237598
0.240048
0.242594
0.245236
0.247974
0.25081
0.253748
0.256793
0.259952
0.263236
0.266657
0.27023
0.273971
0.277899
0.282035
0.286402
0.29102
0.295913
0.301102
0.306606
0.312442
0.318622
0.325154
0.332039
0.339272
0.34684
0.35472
0.362884
0.371292
0.379899
0.38865
0.397486
0.406339
0.415149
0.423863
0.432029
0.443657
0.211442
0.211535
0.211616
0.211684
0.211737
0.211776
0.211799
0.211805
0.211794
0.211768
0.211726
0.21167
0.2116
0.211518
0.211425
0.211322
0.21121
0.211091
0.210964
0.210831
0.210693
0.210551
0.210405
0.210256
0.210105
0.209954
0.209803
0.209654
0.20951
0.209372
0.209242
0.209124
0.20902
0.208935
0.208871
0.208834
0.208827
0.208854
0.208922
0.209035
0.209197
0.209415
0.209693
0.210035
0.210448
0.210936
0.211503
0.212155
0.212894
0.213724
0.214649
0.21567
0.21679
0.21801
0.21933
0.22075
0.222269
0.223885
0.225595
0.227398
0.229288
0.231264
0.233319
0.235452
0.237656
0.23993
0.242269
0.244673
0.24714
0.249672
0.252273
0.254946
0.257698
0.260541
0.263485
0.266545
0.269737
0.27308
0.276593
0.280297
0.284215
0.288368
0.292777
0.297463
0.302442
0.307728
0.313331
0.319255
0.325498
0.332053
0.338901
0.34602
0.353377
0.360934
0.368645
0.376453
0.384308
0.392171
0.399605
0.410354
0.208391
0.20849
0.208579
0.208659
0.208728
0.208785
0.20883
0.208863
0.208883
0.208891
0.208886
0.208871
0.208846
0.208811
0.208768
0.208719
0.208663
0.208602
0.208538
0.20847
0.2084
0.208329
0.208257
0.208186
0.208115
0.208048
0.207983
0.207924
0.20787
0.207825
0.20779
0.207767
0.207759
0.207769
0.207799
0.207854
0.207936
0.208051
0.208201
0.208392
0.208628
0.208914
0.209254
0.209654
0.210117
0.210648
0.211252
0.211932
0.212693
0.213537
0.214467
0.215485
0.216593
0.21779
0.219077
0.220453
0.221915
0.223461
0.225087
0.22679
0.228565
0.230407
0.23231
0.23427
0.23628
0.238336
0.240433
0.242567
0.244738
0.246943
0.249184
0.251463
0.253787
0.256161
0.258595
0.261101
0.263693
0.266386
0.269198
0.272148
0.275256
0.278544
0.282031
0.285739
0.289687
0.293891
0.298367
0.303126
0.308172
0.313508
0.319128
0.325019
0.331164
0.337535
0.344101
0.350819
0.357648
0.364561
0.371153
0.380827
0.205999
0.206095
0.206184
0.206265
0.206339
0.206405
0.206461
0.206507
0.206544
0.206572
0.206591
0.206602
0.206605
0.206601
0.206592
0.206578
0.206561
0.206541
0.20652
0.206498
0.206476
0.206456
0.206438
0.206424
0.206413
0.206408
0.20641
0.206418
0.206436
0.206464
0.206505
0.20656
0.206631
0.206722
0.206834
0.20697
0.207134
0.20733
0.20756
0.207829
0.208141
0.2085
0.208909
0.209374
0.209898
0.210486
0.211141
0.211867
0.212666
0.213543
0.214498
0.215533
0.216649
0.217846
0.219122
0.220476
0.221906
0.223408
0.224977
0.22661
0.228299
0.23004
0.231827
0.233651
0.235509
0.237392
0.239296
0.241216
0.243148
0.245091
0.247044
0.249007
0.250985
0.252982
0.255006
0.257065
0.259172
0.261339
0.263582
0.265918
0.268364
0.270939
0.273664
0.276557
0.279638
0.282927
0.286438
0.290187
0.294185
0.298439
0.302951
0.307718
0.312733
0.31798
0.323438
0.329078
0.334868
0.340794
0.346492
0.354972
0.204111
0.204199
0.204282
0.20436
0.204433
0.204499
0.204559
0.204611
0.204657
0.204696
0.204728
0.204754
0.204775
0.204792
0.204805
0.204815
0.204824
0.204832
0.204841
0.204852
0.204865
0.204881
0.204903
0.20493
0.204963
0.205005
0.205055
0.205116
0.205188
0.205273
0.205374
0.20549
0.205626
0.205782
0.205962
0.206167
0.206401
0.206667
0.206969
0.207308
0.20769
0.208117
0.208594
0.209123
0.209709
0.210356
0.211066
0.211842
0.212687
0.213603
0.214592
0.215654
0.21679
0.217998
0.219277
0.220626
0.222039
0.223514
0.225045
0.226627
0.228254
0.229919
0.231615
0.233335
0.235072
0.236819
0.238569
0.240317
0.242059
0.243791
0.245512
0.247222
0.248922
0.250616
0.25231
0.25401
0.255727
0.257471
0.259255
0.261094
0.263003
0.265
0.267101
0.269325
0.271691
0.274216
0.276919
0.279813
0.282914
0.286231
0.289773
0.293543
0.297541
0.301759
0.306187
0.310805
0.315593
0.320543
0.325343
0.332583
0.202616
0.202694
0.202768
0.202839
0.202907
0.20297
0.203028
0.203081
0.20313
0.203174
0.203213
0.203248
0.20328
0.203309
0.203337
0.203363
0.203389
0.203417
0.203447
0.20348
0.203517
0.20356
0.203609
0.203666
0.203732
0.203808
0.203895
0.203995
0.204108
0.204237
0.204383
0.204548
0.204734
0.204943
0.205177
0.205439
0.20573
0.206055
0.206416
0.206816
0.207258
0.207746
0.208282
0.20887
0.209513
0.210214
0.210976
0.211801
0.212691
0.213648
0.214672
0.215765
0.216924
0.218149
0.219438
0.220787
0.222193
0.223652
0.225157
0.226703
0.228282
0.229888
0.231513
0.23315
0.23479
0.236427
0.238053
0.239663
0.241251
0.242813
0.244347
0.245852
0.247329
0.248779
0.250208
0.25162
0.253023
0.254427
0.255843
0.257282
0.258759
0.260288
0.261884
0.263565
0.265347
0.267246
0.269279
0.271463
0.27381
0.276335
0.279047
0.281954
0.28506
0.288364
0.291864
0.295548
0.299404
0.303429
0.307364
0.31338
0.201434
0.2015
0.201565
0.201627
0.201686
0.201743
0.201798
0.201849
0.201896
0.201941
0.201983
0.202023
0.202061
0.202097
0.202133
0.20217
0.202208
0.202248
0.202292
0.202341
0.202395
0.202456
0.202525
0.202604
0.202693
0.202793
0.202907
0.203035
0.20318
0.203341
0.203522
0.203724
0.203948
0.204198
0.204475
0.204781
0.205118
0.205491
0.2059
0.206349
0.206841
0.207379
0.207966
0.208603
0.209295
0.210044
0.210851
0.211719
0.212649
0.213643
0.214699
0.215819
0.217001
0.218243
0.219542
0.220895
0.222298
0.223744
0.225229
0.226746
0.228287
0.229845
0.231412
0.23298
0.234542
0.236088
0.237612
0.239108
0.24057
0.241994
0.243376
0.244714
0.24601
0.247263
0.248477
0.249657
0.250808
0.251939
0.253059
0.254178
0.255307
0.256461
0.257651
0.258893
0.260202
0.261593
0.26308
0.264679
0.266405
0.268269
0.270284
0.272458
0.274801
0.277314
0.279999
0.282853
0.285868
0.289045
0.292179
0.297031
0.200507
0.200561
0.200614
0.200666
0.200717
0.200766
0.200815
0.200861
0.200906
0.200949
0.200991
0.201032
0.201072
0.201113
0.201154
0.201196
0.201242
0.20129
0.201343
0.201402
0.201468
0.201541
0.201624
0.201717
0.201823
0.201941
0.202073
0.202222
0.202388
0.202574
0.20278
0.203008
0.203262
0.203542
0.20385
0.20419
0.204563
0.204972
0.205419
0.205906
0.206438
0.207015
0.207642
0.208319
0.20905
0.209837
0.210681
0.211584
0.212546
0.213569
0.214652
0.215794
0.216994
0.218249
0.219556
0.220911
0.222308
0.223744
0.22521
0.226701
0.228208
0.229724
0.231241
0.23275
0.234243
0.235712
0.23715
0.23855
0.239907
0.241215
0.242471
0.243673
0.244819
0.245912
0.246952
0.247943
0.248892
0.249803
0.250685
0.251547
0.252399
0.253251
0.254116
0.255007
0.255935
0.256916
0.257961
0.259086
0.260303
0.261624
0.263062
0.264627
0.266326
0.268167
0.270154
0.272286
0.274562
0.276985
0.279396
0.283178
0.199789
0.199831
0.199873
0.199914
0.199956
0.199998
0.20004
0.200081
0.200121
0.200161
0.200201
0.200241
0.200282
0.200323
0.200367
0.200413
0.200462
0.200515
0.200574
0.200639
0.200712
0.200793
0.200885
0.200988
0.201103
0.201233
0.201378
0.201541
0.201722
0.201923
0.202147
0.202394
0.202668
0.202969
0.2033
0.203664
0.204062
0.204497
0.204972
0.205488
0.206048
0.206655
0.207311
0.208017
0.208777
0.209592
0.210463
0.211391
0.212377
0.213421
0.214522
0.215678
0.216889
0.21815
0.219459
0.22081
0.222199
0.22362
0.225066
0.22653
0.228003
0.229479
0.230949
0.232404
0.233835
0.235236
0.236599
0.237915
0.239181
0.240391
0.24154
0.242627
0.24365
0.244609
0.245507
0.246345