/*--------------------------------*- C++ -*----------------------------------*\
| =========                 |                                                 |
| \\      /  F ield         | OpenFOAM: The Open Source CFD Toolbox           |
|  \\    /   O peration     | Version:  4.1                                   |
|   \\  /    A nd           | Web:      www.OpenFOAM.org                      |
|    \\/     M anipulation  |                                                 |
\*---------------------------------------------------------------------------*/
FoamFile
{
    version     2.0;
    format      ascii;
    class       volScalarField;
    location    "1600";
    object      nut;
}
// * * * * * * * * * * * * * * * * * * * * * * * * * * * * * * * * * * * * * //

dimensions      [0 2 -1 0 0 0 0];

internalField   nonuniform List<scalar> 
6820
(
3.5437e-05
5.0672e-05
6.21565e-05
6.89859e-05
7.29393e-05
7.51484e-05
7.62608e-05
7.66561e-05
7.65742e-05
7.61754e-05
7.5569e-05
7.48309e-05
7.40141e-05
7.31562e-05
7.22833e-05
7.14134e-05
7.0559e-05
6.97284e-05
6.89269e-05
6.81576e-05
6.74223e-05
6.67216e-05
6.60554e-05
6.54229e-05
6.48232e-05
6.4255e-05
6.37169e-05
6.32075e-05
6.27238e-05
6.22717e-05
6.18131e-05
6.15234e-05
6.06196e-05
0.00135033
0.000930454
0.000725657
0.000569941
0.000453328
0.000372218
0.000316223
0.000276488
0.000247303
0.000225195
0.000208006
0.000194348
0.000183294
0.000174213
0.000166657
0.000160305
0.000154915
0.000150308
0.000146344
0.000142913
0.000139929
0.000137323
0.000135038
0.000133028
0.000131254
0.000129683
0.000128289
0.000127049
0.000125939
0.000124948
0.000124041
0.000123269
0.000122384
0.0034439
0.00180034
0.00133708
0.00108081
0.000912409
0.000791563
0.000700948
0.00063099
0.000575611
0.000530789
0.000493806
0.000462783
0.000436392
0.00041367
0.000393906
0.000376563
0.000361229
0.000347582
0.000335368
0.000324381
0.000314454
0.00030545
0.000297254
0.00028977
0.000282918
0.000276627
0.000270837
0.000265496
0.000260558
0.000255984
0.000251732
0.000247784
0.000244056
0.00637392
0.00310291
0.00217847
0.00173334
0.00146616
0.00128428
0.00115082
0.00104807
0.000966257
0.000899457
0.000843822
0.00079673
0.000756324
0.000721254
0.000690513
0.000663333
0.00063912
0.000617405
0.000597815
0.000580049
0.000563862
0.00054905
0.000535444
0.000522902
0.000511305
0.00050055
0.000490547
0.000481223
0.000472508
0.000464344
0.000456677
0.000449464
0.00044264
0.00899737
0.00527271
0.00366202
0.00284163
0.00235737
0.00203856
0.00181195
0.00164188
0.00150906
0.00140219
0.00131419
0.00124038
0.00117752
0.00112331
0.00107604
0.00103445
0.00099755
0.000964584
0.000934945
0.000908145
0.00088379
0.000861555
0.000841172
0.000822415
0.000805095
0.00078905
0.000774142
0.000760252
0.000747274
0.000735119
0.000723703
0.000712957
0.000702797
0.0103765
0.00752965
0.00561349
0.00443387
0.0036773
0.00316202
0.00279169
0.00251363
0.0022974
0.00212446
0.001983
0.00186512
0.00176535
0.00167982
0.00160567
0.00154077
0.00148348
0.00143254
0.00138694
0.00134589
0.00130874
0.00127495
0.00124409
0.0012158
0.00118976
0.00116572
0.00114345
0.00112276
0.00110349
0.00108549
0.00106864
0.00105282
0.00103792
0.0109773
0.00922098
0.00752197
0.0062241
0.00528073
0.00458893
0.00406896
0.0036676
0.00335004
0.00309329
0.00288184
0.00270491
0.00255483
0.00242601
0.0023143
0.00221656
0.00213035
0.00205377
0.00198533
0.0019238
0.0018682
0.00181773
0.00177172
0.00172962
0.00169094
0.0016553
0.00162236
0.00159182
0.00156343
0.00153697
0.00151225
0.0014891
0.00146737
0.0112223
0.01026
0.00902119
0.00786209
0.00689742
0.00612296
0.00550365
0.00500431
0.00459663
0.00425932
0.00397663
0.00373691
0.00353147
0.0033537
0.00319855
0.00306211
0.00294127
0.0028336
0.0027371
0.00265018
0.00257152
0.00250003
0.00243479
0.00237505
0.00232015
0.00226956
0.00222279
0.00217943
0.00213915
0.00210162
0.00206659
0.00203382
0.00200309
0.0113196
0.0108286
0.0100355
0.0091472
0.00830321
0.00755759
0.00691829
0.00637539
0.00591434
0.00552103
0.00518335
0.0048914
0.0046372
0.00441434
0.00421772
0.00404321
0.00388746
0.00374774
0.0036218
0.00350781
0.0034042
0.00330968
0.00322315
0.00314369
0.0030705
0.00300289
0.00294028
0.00288215
0.00282807
0.00277763
0.00273051
0.0026864
0.00264503
0.0113579
0.0111187
0.0106546
0.0100468
0.00939296
0.00875749
0.00817148
0.00764509
0.00717794
0.0067652
0.00640062
0.00607796
0.00579148
0.00553617
0.00530775
0.00510255
0.00491749
0.00474996
0.00459776
0.004459
0.0043321
0.00421568
0.00410858
0.00400978
0.00391841
0.0038337
0.003755
0.00368173
0.00361337
0.00354948
0.00348965
0.00343356
0.00338087
0.0113728
0.01126
0.0110057
0.0106242
0.0101642
0.00967403
0.00918759
0.0087244
0.00829365
0.0078983
0.00753798
0.00721062
0.00691349
0.00664366
0.00639828
0.00617471
0.00597059
0.00578378
0.0056124
0.00545482
0.00530958
0.00517542
0.00505121
0.00493597
0.00482885
0.00472907
0.00463597
0.00454895
0.00446747
0.00439106
0.00431931
0.00425185
0.00418833
0.0113787
0.0113266
0.011194
0.0109703
0.0106711
0.0103231
0.00995189
0.00957698
0.00921101
0.0088614
0.00853191
0.008224
0.00793771
0.00767228
0.00742651
0.00719905
0.00698846
0.00679335
0.00661238
0.00644433
0.00628806
0.00614254
0.00600684
0.00588009
0.00576156
0.00565053
0.0055464
0.00544861
0.00535665
0.00527008
0.00518847
0.00511148
0.00503875
0.0113809
0.0113572
0.0112906
0.0111664
0.010984
0.0107537
0.0104904
0.0102084
0.00991919
0.00963123
0.00935017
0.00907955
0.00882138
0.00857663
0.00834557
0.00812802
0.00792353
0.0077315
0.00755122
0.00738197
0.00722303
0.00707369
0.00693328
0.00680117
0.00667676
0.0065595
0.00644888
0.00634443
0.00624573
0.00615237
0.00606399
0.00598027
0.0059009
0.0113818
0.0113708
0.0113383
0.0112723
0.0111671
0.0110237
0.0108485
0.0106497
0.0104355
0.0102131
0.00998805
0.00976448
0.00954535
0.00933266
0.00912765
0.00893107
0.00874325
0.00856428
0.00839405
0.00823233
0.00807883
0.00793318
0.00779501
0.00766394
0.00753957
0.00742154
0.00730948
0.00720304
0.00710189
0.00700573
0.00691426
0.00682721
0.00674434
0.0113822
0.0113768
0.0113611
0.0113273
0.0112692
0.0111846
0.0110744
0.0109422
0.0107927
0.0106308
0.0104607
0.0102863
0.0101104
0.00993552
0.00976319
0.0095947
0.00943091
0.00927239
0.00911949
0.00897238
0.00883111
0.00869566
0.00856591
0.00844173
0.00832294
0.00820935
0.00810074
0.00799691
0.00789764
0.00780273
0.00771198
0.00762518
0.00754216
0.0113823
0.0113794
0.0113717
0.0113547
0.0113238
0.011276
0.0112101
0.0111268
0.0110279
0.0109162
0.0107945
0.0106655
0.0105317
0.0103951
0.0102574
0.0101201
0.00998406
0.00985026
0.00971926
0.0095915
0.00946731
0.00934687
0.00923031
0.00911769
0.009009
0.00890421
0.00880326
0.00870607
0.00861255
0.00852258
0.00843605
0.00835286
0.00827287
0.0113824
0.0113805
0.0113765
0.0113679
0.0113519
0.0113259
0.0112881
0.0112379
0.0111757
0.0111025
0.0110197
0.010929
0.0108321
0.0107305
0.0106258
0.010519
0.0104112
0.0103034
0.0101961
0.01009
0.00998549
0.00988292
0.00978255
0.00968458
0.00958913
0.00949631
0.00940616
0.00931871
0.00923396
0.00915189
0.00907247
0.00899566
0.0089214
0.0113824
0.0113809
0.0113786
0.0113741
0.0113658
0.0113519
0.011331
0.0113021
0.0112646
0.0112187
0.011165
0.0111041
0.0110372
0.0109652
0.0108891
0.0108098
0.0107282
0.0106451
0.010561
0.0104765
0.0103922
0.0103084
0.0102255
0.0101436
0.0100631
0.00998398
0.00990651
0.00983075
0.00975677
0.00968462
0.00961433
0.00954591
0.00947937
0.0113824
0.0113811
0.0113795
0.0113769
0.0113724
0.0113651
0.0113537
0.0113375
0.0113158
0.0112882
0.0112548
0.0112157
0.0111715
0.0111227
0.0110698
0.0110135
0.0109543
0.0108929
0.0108297
0.0107652
0.0107
0.0106342
0.0105683
0.0105025
0.010437
0.0103722
0.010308
0.0102447
0.0101824
0.0101212
0.0100611
0.0100022
0.00994459
0.0113824
0.0113812
0.0113798
0.0113781
0.0113755
0.0113714
0.0113653
0.0113563
0.011344
0.011328
0.011308
0.0112839
0.0112559
0.0112241
0.0111889
0.0111505
0.0111093
0.0110657
0.0110202
0.0109729
0.0109243
0.0108746
0.0108242
0.0107732
0.010722
0.0106706
0.0106193
0.0105682
0.0105175
0.0104672
0.0104175
0.0103684
0.01032
0.0113824
0.0113812
0.01138
0.0113786
0.0113768
0.0113744
0.0113709
0.0113659
0.011359
0.0113499
0.0113382
0.0113238
0.0113067
0.0112868
0.0112641
0.011239
0.0112114
0.0111816
0.0111499
0.0111165
0.0110816
0.0110454
0.0110081
0.0109699
0.0109311
0.0108917
0.0108519
0.010812
0.0107719
0.0107318
0.0106918
0.010652
0.0106125
0.0113824
0.0113812
0.01138
0.0113788
0.0113774
0.0113757
0.0113735
0.0113706
0.0113666
0.0113614
0.0113547
0.0113463
0.011336
0.0113238
0.0113097
0.0112937
0.0112758
0.0112561
0.0112347
0.0112117
0.0111873
0.0111616
0.0111348
0.0111069
0.0110782
0.0110487
0.0110186
0.010988
0.010957
0.0109257
0.0108942
0.0108625
0.0108308
0.0113824
0.0113812
0.01138
0.0113789
0.0113776
0.0113763
0.0113747
0.0113728
0.0113703
0.0113672
0.0113632
0.0113582
0.0113521
0.0113447
0.011336
0.0113259
0.0113143
0.0113014
0.0112871
0.0112715
0.0112546
0.0112365
0.0112174
0.0111972
0.0111761
0.0111541
0.0111315
0.0111081
0.0110842
0.0110598
0.011035
0.0110099
0.0109845
0.0113824
0.0113812
0.01138
0.0113789
0.0113777
0.0113765
0.0113752
0.0113737
0.011372
0.0113699
0.0113673
0.0113642
0.0113603
0.0113555
0.0113499
0.0113432
0.0113355
0.0113267
0.0113167
0.0113057
0.0112936
0.0112805
0.0112663
0.0112512
0.0112351
0.0112182
0.0112006
0.0111822
0.0111632
0.0111436
0.0111235
0.0111029
0.011082
0.0113824
0.0113812
0.01138
0.0113789
0.0113777
0.0113766
0.0113753
0.011374
0.0113726
0.0113709
0.0113689
0.0113665
0.0113635
0.0113599
0.0113556
0.0113504
0.0113444
0.0113375
0.0113297
0.0113208
0.011311
0.0113002
0.0112885
0.0112759
0.0112624
0.011248
0.0112329
0.0112171
0.0112006
0.0111835
0.0111658
0.0111476
0.011129
0.0113824
0.0113812
0.01138
0.0113789
0.0113777
0.0113765
0.0113753
0.011374
0.0113725
0.0113707
0.0113686
0.0113661
0.011363
0.0113593
0.0113548
0.0113496
0.0113434
0.0113364
0.0113284
0.0113194
0.0113095
0.0112986
0.0112868
0.0112741
0.0112606
0.0112462
0.0112311
0.0112152
0.0111987
0.0111816
0.011164
0.0111458
0.0111272
0.0113824
0.0113812
0.01138
0.0113789
0.0113777
0.0113764
0.011375
0.0113734
0.0113715
0.0113691
0.0113662
0.0113626
0.0113583
0.011353
0.0113468
0.0113395
0.0113312
0.0113218
0.0113113
0.0112998
0.0112872
0.0112735
0.0112589
0.0112434
0.0112271
0.0112099
0.011192
0.0111734
0.0111542
0.0111344
0.0111142
0.0110935
0.0110725
0.0113824
0.0113812
0.01138
0.0113788
0.0113775
0.011376
0.0113742
0.0113718
0.0113688
0.0113648
0.0113599
0.0113537
0.0113462
0.0113373
0.011327
0.0113153
0.0113021
0.0112875
0.0112715
0.0112543
0.0112359
0.0112164
0.0111959
0.0111744
0.0111521
0.011129
0.0111053
0.011081
0.0110562
0.011031
0.0110054
0.0109795
0.0109535
0.0113824
0.0113812
0.01138
0.0113787
0.011377
0.0113748
0.0113718
0.0113676
0.0113618
0.0113543
0.0113449
0.0113333
0.0113196
0.0113037
0.0112857
0.0112656
0.0112436
0.0112198
0.0111944
0.0111675
0.0111393
0.01111
0.0110797
0.0110486
0.0110167
0.0109843
0.0109514
0.0109182
0.0108847
0.010851
0.0108173
0.0107836
0.0107499
0.0113824
0.0113813
0.0113799
0.0113781
0.0113755
0.0113714
0.0113652
0.0113564
0.0113446
0.0113295
0.0113109
0.0112888
0.0112634
0.0112347
0.0112031
0.0111689
0.0111323
0.0110938
0.0110535
0.0110117
0.0109688
0.010925
0.0108805
0.0108355
0.0107902
0.0107447
0.0106992
0.0106538
0.0106086
0.0105637
0.0105192
0.0104751
0.0104314
0.0113825
0.0113812
0.0113794
0.0113761
0.0113704
0.0113611
0.0113472
0.0113279
0.0113028
0.011272
0.0112356
0.011194
0.0111477
0.0110974
0.0110436
0.0109871
0.0109282
0.0108677
0.0108058
0.0107431
0.0106799
0.0106166
0.0105533
0.0104902
0.0104277
0.0103658
0.0103047
0.0102444
0.0101851
0.0101268
0.0100696
0.0100135
0.00995844
0.0113825
0.0113808
0.011377
0.0113691
0.0113545
0.0113315
0.0112988
0.011256
0.0112036
0.0111424
0.0110735
0.0109982
0.0109178
0.0108335
0.0107465
0.0106576
0.0105676
0.0104773
0.0103873
0.0102978
0.0102094
0.0101224
0.0100368
0.00995291
0.00987085
0.00979069
0.00971249
0.00963627
0.00956206
0.00948984
0.00941961
0.00935134
0.00928499
0.0113825
0.0113787
0.0113679
0.0113447
0.0113054
0.011248
0.0111728
0.0110816
0.0109771
0.0108621
0.0107396
0.0106119
0.0104814
0.0103497
0.0102183
0.0100882
0.00996015
0.00983483
0.00971263
0.00959381
0.00947855
0.00936694
0.00925902
0.00915476
0.00905413
0.00895705
0.00886343
0.00877318
0.00868617
0.0086023
0.00852145
0.0084435
0.00836834
0.011382
0.0113691
0.0113325
0.0112633
0.0111587
0.0110222
0.0108601
0.0106799
0.0104883
0.010291
0.0100925
0.00989597
0.00970363
0.00951703
0.00933708
0.0091643
0.0089989
0.00884087
0.00869011
0.00854639
0.00840945
0.00827899
0.00815471
0.00803627
0.00792338
0.00781573
0.00771302
0.00761497
0.00752133
0.00743183
0.00734625
0.00726436
0.00718596
0.0113786
0.0113249
0.0111997
0.0110009
0.0107442
0.0104511
0.0101407
0.00982717
0.00952002
0.00922488
0.00894479
0.00868111
0.00843415
0.00820345
0.00798818
0.00778733
0.00759987
0.00742474
0.00726098
0.00710764
0.00696388
0.00682892
0.00670203
0.00658259
0.00646999
0.0063637
0.00626325
0.0061682
0.00607814
0.00599272
0.00591161
0.00583451
0.00576114
0.0113536
0.011126
0.0107259
0.0102229
0.00968832
0.00916705
0.00868064
0.00823688
0.00783646
0.00747677
0.00715407
0.00686443
0.00660375
0.00636828
0.00615475
0.0059604
0.00578286
0.00562011
0.00547044
0.00533237
0.00520463
0.00508614
0.00497596
0.00487325
0.0047773
0.00468748
0.00460323
0.00452407
0.00444956
0.0043793
0.00431297
0.00425023
0.00419083
0.0111683
0.0102731
0.00924316
0.00829367
0.00748992
0.00682636
0.00627847
0.00582284
0.00544041
0.00511624
0.00483928
0.00459995
0.00439098
0.00420686
0.00404337
0.00389717
0.00376565
0.00364667
0.00353852
0.00343977
0.00334924
0.00326594
0.00318905
0.00311784
0.00305171
0.00299013
0.00293266
0.0028789
0.0028285
0.00278115
0.0027366
0.0026946
0.00265493
0.00982658
0.0072389
0.00577405
0.00486951
0.00424873
0.00378755
0.00342701
0.00314024
0.00290887
0.00271813
0.00255776
0.00242093
0.00230279
0.00219976
0.00210909
0.00202868
0.00195685
0.0018923
0.00183394
0.00178091
0.00173249
0.0016881
0.00164724
0.0016095
0.00157452
0.001542
0.00151169
0.00148336
0.00145683
0.00143192
0.00140848
0.0013864
0.00136553
0.00414167
0.00254161
0.00204418
0.00174836
0.00154034
0.00137827
0.00124767
0.00114134
0.00105376
0.000980907
0.000919641
0.000867559
0.000822819
0.000784018
0.000750077
0.000720159
0.000693609
0.000669901
0.000648615
0.00062941
0.000612004
0.000596166
0.0005817
0.000568443
0.000556257
0.000545023
0.00053464
0.000525019
0.000516084
0.000507768
0.000500014
0.00049277
0.000485984
0.000119434
0.000124352
0.000129424
0.000134072
0.000138235
0.000142037
0.000145562
0.000148849
0.000151924
0.000154806
0.000157512
0.000160054
0.000162444
0.000164691
0.000166805
0.000168794
0.000170666
0.000172428
0.000174087
0.000175649
0.000177119
0.000178503
0.000179806
0.000181034
0.00018219
0.000183279
0.000184304
0.00018527
0.00018618
0.000187038
0.000187846
0.000188607
0.000189325
6.59361e-05
7.81664e-05
9.79942e-05
0.000124221
0.000156128
0.000192452
0.00023196
0.000273336
0.00031524
0.000356454
0.000396075
0.000433625
0.000469039
0.000502568
0.000534631
0.000565675
0.000596085
0.000626132
0.000655964
0.000685638
0.000715156
0.000744499
0.000773659
0.000802647
0.000831497
0.000860254
0.000888972
0.000917701
0.000946484
0.000975357
0.00100435
0.00103347
0.00106274
0.00109216
0.00112176
0.00115152
0.00118146
0.00121159
0.00124193
0.00127249
0.0013033
0.00133439
0.0013658
0.0013976
0.00142984
0.00146262
0.00149602
0.00153016
0.00156517
0.00160118
0.00163837
0.00167692
0.00171701
0.00175888
0.00180273
0.00184882
0.00189739
0.00194868
0.00200292
0.00206034
0.00212114
0.00218548
0.0022535
0.00232529
0.00240088
0.00248026
0.00256338
0.0026501
0.00274026
0.00283362
0.00292989
0.00302878
0.00312993
0.00323297
0.00333752
0.00344317
0.00354954
0.0036562
0.00376278
0.00386887
0.00397409
0.00407807
0.00418046
0.00428092
0.00437914
0.00447484
0.00456774
0.00465763
0.00474428
0.00482753
0.00490722
0.00498322
0.00505545
0.00512382
0.00518832
0.00524881
0.00530563
0.00535828
0.00540641
0.00547058
0.000121878
0.000121683
0.000123484
0.000128411
0.000136231
0.000146975
0.000160748
0.000177657
0.000197754
0.000221026
0.000247364
0.000276535
0.000308179
0.000341818
0.000376893
0.000412815
0.000449019
0.000485023
0.000520469
0.000555145
0.000588971
0.000621973
0.000654244
0.000685907
0.000717087
0.000747896
0.00077843
0.000808766
0.000838971
0.000869102
0.000899211
0.000929343
0.00095954
0.00098984
0.00102028
0.00105088
0.00108168
0.0011127
0.00114399
0.00117557
0.00120748
0.00123978
0.00127251
0.00130575
0.00133958
0.00137409
0.00140938
0.00144558
0.00148284
0.00152129
0.00156113
0.00160254
0.00164573
0.00169092
0.00173833
0.00178821
0.00184079
0.0018963
0.00195495
0.00201693
0.00208239
0.00215147
0.00222422
0.00230069
0.00238084
0.00246462
0.00255188
0.00264247
0.00273614
0.00283264
0.00293167
0.0030329
0.00313598
0.00324057
0.0033463
0.00345281
0.00355974
0.00366674
0.00377345
0.00387954
0.00398466
0.00408849
0.00419072
0.00429104
0.00438918
0.00448487
0.00457786
0.00466794
0.00475491
0.00483858
0.00491882
0.00499548
0.00506848
0.00513772
0.00520319
0.00526473
0.00532267
0.00537653
0.00542579
0.00549178
0.00024004
0.000235413
0.000230583
0.000226136
0.000222686
0.000220732
0.000220472
0.000222042
0.000225686
0.000231694
0.000240347
0.000251885
0.000266462
0.000284131
0.000304827
0.000328371
0.000354483
0.00038281
0.000412943
0.000444456
0.00047693
0.00050998
0.000543279
0.000576575
0.000609689
0.000642521
0.000675033
0.000707236
0.000739173
0.000770904
0.000802497
0.000834019
0.000865535
0.000897103
0.000928779
0.000960617
0.000992666
0.00102498
0.00105761
0.00109061
0.00112405
0.00115799
0.0011925
0.00122768
0.00126362
0.00130043
0.00133823
0.00137717
0.0014174
0.00145909
0.00150243
0.00154762
0.00159486
0.00164438
0.0016964
0.00175113
0.00180879
0.00186957
0.00193362
0.0020011
0.00207208
0.00214662
0.00222472
0.00230633
0.00239134
0.00247963
0.00257099
0.0026652
0.00276199
0.00286109
0.00296216
0.0030649
0.00316897
0.00327406
0.00337984
0.00348601
0.00359226
0.0036983
0.00380385
0.00390863
0.00401235
0.00411474
0.00421555
0.00431452
0.0044114
0.00450596
0.00459797
0.00468723
0.00477355
0.00485676
0.0049367
0.00501325
0.0050863
0.00515574
0.00522156
0.00528359
0.00534213
0.00539673
0.00544668
0.00551392
0.000435153
0.0004269
0.000418786
0.000410907
0.000403392
0.000396333
0.000389801
0.000383892
0.000378684
0.00037423
0.000370652
0.000368155
0.00036703
0.000367629
0.000370335
0.000375513
0.000383466
0.000394389
0.00040835
0.000425285
0.000445012
0.000467261
0.000491707
0.000518003
0.000545808
0.000574805
0.000604719
0.000635321
0.000666432
0.000697921
0.000729703
0.000761728
0.000793982
0.000826469
0.000859216
0.000892262
0.000925653
0.000959447
0.000993706
0.0010285
0.0010639
0.0011
0.00113689
0.00117468
0.00121347
0.0012534
0.00129461
0.00133725
0.0013815
0.00142752
0.00147551
0.00152566
0.00157818
0.00163325
0.00169108
0.00175183
0.00181567
0.00188272
0.00195308
0.00202679
0.00210386
0.00218425
0.00226788
0.00235462
0.00244428
0.00253666
0.00263151
0.00272856
0.00282753
0.00292811
0.00303001
0.00313291
0.00323653
0.0033406
0.00344485
0.00354905
0.00365297
0.00375639
0.0038591
0.00396089
0.00406157
0.00416092
0.00425875
0.00435485
0.00444902
0.00454105
0.00463076
0.00471795
0.00480245
0.00488408
0.00496271
0.00503818
0.0051104
0.00517922
0.00524464
0.00530646
0.00536496
0.00541971
0.00546983
0.00553763
0.000691646
0.000679401
0.000667526
0.000656168
0.000645415
0.000635255
0.000625639
0.000616504
0.000607838
0.000599597
0.000591729
0.000584209
0.000577059
0.000570353
0.000564229
0.000558887
0.000554589
0.000551646
0.000550394
0.00055117
0.000554277
0.000559952
0.000568348
0.000579519
0.000593427
0.000609956
0.000628931
0.000650138
0.000673352
0.000698349
0.00072492
0.000752882
0.000782082
0.000812398
0.000843739
0.000876047
0.000909289
0.000943459
0.000978572
0.00101466
0.00105179
0.00109002
0.00112944
0.00117015
0.00121226
0.0012559
0.00130122
0.00134836
0.00139747
0.00144873
0.00150229
0.00155833
0.00161701
0.00167847
0.00174284
0.00181023
0.00188073
0.00195436
0.00203113
0.002111
0.00219389
0.00227965
0.00236813
0.00245912
0.00255236
0.00264761
0.00274458
0.00284297
0.00294249
0.00304285
0.00314376
0.00324496
0.00334621
0.0034473
0.00354804
0.00364826
0.00374782
0.0038466
0.00394446
0.00404129
0.00413697
0.00423137
0.00432436
0.00441579
0.00450551
0.00459337
0.00467919
0.00476282
0.00484409
0.00492283
0.0049989
0.00507215
0.00514246
0.00520968
0.00527378
0.00533456
0.00539224
0.00544643
0.00549609
0.0055636
0.00102161
0.00100381
0.00098666
0.000970299
0.000954831
0.000940253
0.000926505
0.000913499
0.000901156
0.000889402
0.000878157
0.000867356
0.000856954
0.000846934
0.000837309
0.00082812
0.000819442
0.000811383
0.000804088
0.00079773
0.000792515
0.000788668
0.000786426
0.000786025
0.00078768
0.000791578
0.000797864
0.000806633
0.000817931
0.000831756
0.000848066
0.000866791
0.000887841
0.000911116
0.000936516
0.000963952
0.000993343
0.00102463
0.00105777
0.00109274
0.00112954
0.00116819
0.00120874
0.00125123
0.00129574
0.00134236
0.00139119
0.00144233
0.0014959
0.00155201
0.00161077
0.00167229
0.00173665
0.00180394
0.00187418
0.00194741
0.00202361
0.00210273
0.00218467
0.00226931
0.00235646
0.00244593
0.00253747
0.00263082
0.00272569
0.00282177
0.00291877
0.00301637
0.00311429
0.00321224
0.00330997
0.00340727
0.00350394
0.00359984
0.00369485
0.00378889
0.00388189
0.00397382
0.00406465
0.00415435
0.00424289
0.00433023
0.00441631
0.00450107
0.00458439
0.00466619
0.00474633
0.00482468
0.00490109
0.0049754
0.00504748
0.00511715
0.00518429
0.00524875
0.00531045
0.00536919
0.00542514
0.00547793
0.00552638
0.0055926
0.00144365
0.00141789
0.00139319
0.00136963
0.00134731
0.00132623
0.00130632
0.00128749
0.00126965
0.00125271
0.00123659
0.00122121
0.00120651
0.00119248
0.0011791
0.00116639
0.00115438
0.00114311
0.00113266
0.00112309
0.0011145
0.00110699
0.00110066
0.00109566
0.00109211
0.00109017
0.00108999
0.00109172
0.00109549
0.00110146
0.00110972
0.00112039
0.00113355
0.00114924
0.0011675
0.00118837
0.00121185
0.00123795
0.00126666
0.00129799
0.00133194
0.00136852
0.00140776
0.00144968
0.00149431
0.0015417
0.00159188
0.00164492
0.00170086
0.00175975
0.00182161
0.00188648
0.00195437
0.00202526
0.00209911
0.00217585
0.00225537
0.00233753
0.00242216
0.00250904
0.00259794
0.00268858
0.00278066
0.00287387
0.00296788
0.00306236
0.003157
0.00325147
0.00334549
0.00343879
0.00353114
0.00362237
0.00371232
0.00380091
0.00388808
0.00397382
0.00405816
0.00414115
0.00422283
0.00430329
0.00438258
0.00446074
0.00453783
0.00461383
0.00468873
0.00476248
0.00483501
0.00490622
0.00497598
0.00504417
0.00511063
0.00517521
0.00523776
0.00529812
0.00535618
0.00541173
0.00546488
0.00551529
0.00556166
0.00562542
0.0019696
0.0019333
0.00189856
0.00186542
0.00183393
0.00180407
0.00177578
0.00174896
0.00172351
0.00169935
0.00167637
0.0016545
0.00163369
0.0016139
0.00159514
0.00157741
0.00156074
0.00154518
0.00153077
0.00151758
0.00150565
0.00149506
0.00148586
0.00147812
0.00147191
0.00146729
0.00146435
0.00146316
0.00146384
0.00146646
0.00147114
0.00147799
0.00148712
0.00149863
0.00151262
0.00152921
0.00154848
0.00157052
0.00159539
0.00162317
0.00165393
0.0016877
0.00172455
0.00176452
0.00180764
0.00185394
0.00190346
0.00195621
0.00201219
0.00207141
0.00213385
0.00219947
0.0022682
0.00233997
0.00241465
0.0024921
0.00257215
0.00265458
0.00273914
0.00282557
0.00291355
0.00300277
0.00309288
0.00318353
0.00327436
0.00336502
0.00345515
0.00354445
0.0036326
0.00371937
0.00380453
0.00388793
0.00396946
0.00404906
0.00412673
0.00420252
0.00427653
0.00434886
0.00441967
0.00448911
0.00455733
0.00462448
0.00469068
0.00475603
0.00482058
0.00488437
0.00494739
0.00500959
0.00507088
0.00513117
0.00519031
0.00524817
0.00530458
0.00535938
0.00541243
0.00546351
0.00551267
0.00555958
0.00560287
0.00566284
0.00259992
0.00255104
0.00250422
0.00245949
0.00241686
0.00237627
0.00233766
0.00230094
0.002266
0.00223275
0.00220108
0.00217093
0.00214222
0.00211494
0.00208908
0.00206464
0.00204165
0.00202018
0.00200026
0.00198195
0.00196532
0.00195041
0.00193728
0.00192597
0.00191653
0.001909
0.00190341
0.00189982
0.00189826
0.00189879
0.00190146
0.00190634
0.0019135
0.00192302
0.00193499
0.0019495
0.00196665
0.00198652
0.00200922
0.00203484
0.00206346
0.00209517
0.00213004
0.00216813
0.00220949
0.00225417
0.0023022
0.00235358
0.0024083
0.00246635
0.00252768
0.0025922
0.00265983
0.00273042
0.00280381
0.00287982
0.0029582
0.0030387
0.00312103
0.00320486
0.00328986
0.00337565
0.00346186
0.0035481
0.00363399
0.00371916
0.00380324
0.0038859
0.00396684
0.0040458
0.00412259
0.00419704
0.00426907
0.00433865
0.00440581
0.00447064
0.00453328
0.0045939
0.00465272
0.00470996
0.00476586
0.00482066
0.00487456
0.00492775
0.00498039
0.0050326
0.00508443
0.00513592
0.00518704
0.00523773
0.00528789
0.00533739
0.00538609
0.00543381
0.0054804
0.00552564
0.00556951
0.00561171
0.00565086
0.00570554
0.00332331
0.00326083
0.00320088
0.00314345
0.0030885
0.003036
0.00298585
0.00293796
0.00289224
0.00284859
0.00280692
0.00276714
0.00272921
0.00269307
0.00265874
0.00262622
0.00259553
0.00256673
0.00253988
0.00251502
0.00249222
0.00247155
0.00245304
0.00243676
0.00242273
0.00241099
0.00240158
0.00239451
0.00238981
0.00238751
0.00238763
0.00239019
0.00239525
0.00240284
0.00241301
0.00242583
0.00244134
0.00245964
0.00248078
0.00250484
0.0025319
0.00256202
0.00259529
0.00263174
0.00267145
0.00271443
0.00276072
0.00281031
0.00286319
0.00291933
0.00297865
0.00304106
0.00310643
0.00317461
0.0032454
0.00331858
0.00339388
0.00347102
0.00354967
0.00362949
0.00371009
0.0037911
0.00387211
0.00395272
0.00403253
0.00411114
0.0041882
0.00426334
0.00433628
0.00440674
0.00447454
0.00453951
0.00460159
0.00466074
0.00471703
0.00477055
0.00482147
0.00487001
0.00491642
0.00496098
0.005004
0.00504577
0.00508659
0.00512674
0.00516646
0.00520595
0.00524538
0.00528484
0.0053244
0.00536405
0.00540375
0.00544341
0.00548291
0.00552208
0.0055608
0.00559881
0.00563608
0.0056723
0.00570617
0.00575397
0.00411874
0.00404299
0.0039701
0.00390002
0.00383272
0.00376813
0.00370619
0.0036468
0.00358988
0.00353535
0.00348311
0.00343309
0.00338524
0.00333953
0.00329595
0.00325451
0.00321525
0.0031782
0.00314343
0.00311099
0.00308095
0.00305337
0.00302831
0.00300582
0.00298593
0.00296869
0.00295413
0.00294227
0.00293312
0.0029267
0.00292303
0.00292212
0.00292398
0.00292864
0.00293611
0.00294643
0.00295962
0.00297573
0.00299479
0.00301686
0.00304197
0.00307017
0.0031015
0.003136
0.0031737
0.00321462
0.00325875
0.00330608
0.00335658
0.0034102
0.00346683
0.00352638
0.0035887
0.0036536
0.00372087
0.00379027
0.00386152
0.00393431
0.00400829
0.00408309
0.00415835
0.00423365
0.00430858
0.00438274
0.0044557
0.00452708
0.00459651
0.00466363
0.00472815
0.0047898
0.00484838
0.00490375
0.00495583
0.0050046
0.00505011
0.00509248
0.00513188
0.00516853
0.00520273
0.00523476
0.00526498
0.00529374
0.00532139
0.00534828
0.00537472
0.00540102
0.0054274
0.00545407
0.00548116
0.00550876
0.00553689
0.00556553
0.00559459
0.00562396
0.00565352
0.00568303
0.00571244
0.00574145
0.00576892
0.00580824
0.00495881
0.00487148
0.00478712
0.00470569
0.00462714
0.00455145
0.00447853
0.00440832
0.00434076
0.00427577
0.00421328
0.00415323
0.00409558
0.00404032
0.00398743
0.00393693
0.00388885
0.00384325
0.00380017
0.00375968
0.00372185
0.00368673
0.0036544
0.00362491
0.0035983
0.00357462
0.0035539
0.00353617
0.00352145
0.00350976
0.0035011
0.00349548
0.00349292
0.00349341
0.00349697
0.00350359
0.00351331
0.00352612
0.00354204
0.00356109
0.00358328
0.00360864
0.00363716
0.00366886
0.00370374
0.00374179
0.00378298
0.00382727
0.00387461
0.00392491
0.00397807
0.00403394
0.00409237
0.00415315
0.00421606
0.00428082
0.00434715
0.00441472
0.00448319
0.00455217
0.00462127
0.0046901
0.00475824
0.00482528
0.00489081
0.00495444
0.00501579
0.00507454
0.00513038
0.00518306
0.00523237
0.00527819
0.00532042
0.00535906
0.00539414
0.00542579
0.00545417
0.0054795
0.00550207
0.00552219
0.00554021
0.00555652
0.00557149
0.00558551
0.00559897
0.00561222
0.00562556
0.00563928
0.00565361
0.00566869
0.00568465
0.00570153
0.00571932
0.00573796
0.00575735
0.00577732
0.0057978
0.00581849
0.00583854
0.00586786
0.0058133
0.00571722
0.00562398
0.00553357
0.00544597
0.00536115
0.00527907
0.0051997
0.00512298
0.00504887
0.00497732
0.00490829
0.00484177
0.00477774
0.00471622
0.00465722
0.00460078
0.00454696
0.00449582
0.00444741
0.00440182
0.00435911
0.00431934
0.00428259
0.0042489
0.00421833
0.00419091
0.00416668
0.00414567
0.00412789
0.00411337
0.0041021
0.00409411
0.00408939
0.00408793
0.00408975
0.00409484
0.00410319
0.00411481
0.00412969
0.00414782
0.00416919
0.00419378
0.00422159
0.00425258
0.00428671
0.00432392
0.00436416
0.00440734
0.00445334
0.00450204
0.00455328
0.00460687
0.00466259
0.0047202
0.00477941
0.00483992
0.0049014
0.00496349
0.00502582
0.00508799
0.00514961
0.00521026
0.00526953
0.00532705
0.00538241
0.00543527
0.0054853
0.00553221
0.00557577
0.00561577
0.0056521
0.00568466
0.00571346
0.00573852
0.00575995
0.00577791
0.00579263
0.00580435
0.0058134
0.00582011
0.00582485
0.00582803
0.00583005
0.00583131
0.00583219
0.00583308
0.0058343
0.00583614
0.00583884
0.0058426
0.00584753
0.0058537
0.00586112
0.00586975
0.00587947
0.00589023
0.00590176
0.00591358
0.00593159
0.00665248
0.00655123
0.0064525
0.00635629
0.00626261
0.00617146
0.00608283
0.00599671
0.0059131
0.00583196
0.00575329
0.00567707
0.0056033
0.005532
0.00546319
0.00539691
0.0053332
0.00527212
0.00521375
0.00515816
0.00510542
0.0050556
0.00500879
0.00496505
0.00492444
0.00488702
0.00485285
0.00482197
0.0047944
0.00477019
0.00474935
0.0047319
0.00471784
0.00470719
0.00469995
0.00469611
0.00469566
0.0046986
0.00470491
0.00471457
0.00472757
0.00474387
0.00476345
0.00478625
0.00481223
0.00484133
0.00487347
0.00490856
0.00494648
0.00498711
0.00503029
0.00507583
0.00512354
0.00517318
0.00522448
0.00527716
0.0053309
0.00538535
0.00544017
0.00549498
0.00554939
0.00560301
0.00565544
0.00570629
0.00575518
0.00580174
0.00584563
0.00588656
0.00592425
0.00595848
0.00598907
0.00601591
0.00603892
0.00605809
0.00607346
0.00608514