/*--------------------------------*- C++ -*----------------------------------*\
| =========                 |                                                 |
| \\      /  F ield         | OpenFOAM: The Open Source CFD Toolbox           |
|  \\    /   O peration     | Version:  4.1                                   |
|   \\  /    A nd           | Web:      www.OpenFOAM.org                      |
|    \\/     M anipulation  |                                                 |
\*---------------------------------------------------------------------------*/
FoamFile
{
    version     2.0;
    format      ascii;
    class       volScalarField;
    location    "1600";
    object      omega;
}
// * * * * * * * * * * * * * * * * * * * * * * * * * * * * * * * * * * * * * //

dimensions      [0 0 -1 0 0 0 0];

internalField   nonuniform List<scalar> 
6820
(
7254.63
8569.06
9629.25
10283
10668.4
10885.8
10995.8
11035
11026.8
10987.3
10927.3
10854.4
10774
10689.7
10604.1
10519.1
10435.8
10355
10277.3
10202.9
10131.9
10064.5
10000.5
9939.95
9882.63
9828.44
9777.21
9728.82
9682.95
9640.16
9596.79
9568.88
9477.15
600.799
1554.22
2092.91
2435.19
2698.34
2895.12
3033.36
3126.97
3188.97
3229.01
3253.95
3268.66
3276.58
3280.07
3280.76
3279.74
3277.76
3275.34
3272.8
3270.35
3268.14
3266.24
3264.69
3263.5
3262.68
3262.22
3262.14
3262.44
3263.17
3264.4
3266.28
3268.77
3273.99
107.108
368.908
596.394
767.386
894.981
993.333
1070.57
1131.54
1179.69
1217.64
1247.46
1270.8
1289.01
1303.18
1314.18
1322.69
1329.28
1334.36
1338.29
1341.35
1343.74
1345.64
1347.19
1348.49
1349.62
1350.65
1351.64
1352.62
1353.64
1354.72
1355.92
1357.24
1358.91
37.6577
108.378
189.201
265.511
332.231
389.334
437.981
479.461
514.908
545.244
571.225
593.484
612.561
628.919
642.952
655.001
665.355
674.265
681.942
688.568
694.299
699.267
703.585
707.349
710.643
713.537
716.093
718.364
720.396
722.229
723.904
725.453
726.924
23.8008
47.5371
77.7008
109.824
141.237
170.722
197.836
222.517
244.873
265.071
283.289
299.702
314.481
327.785
339.76
350.541
360.251
369.002
376.893
384.016
390.452
396.273
401.546
406.327
410.67
414.622
418.223
421.513
424.524
427.29
429.84
432.199
434.402
19.8177
29.4751
42.5078
57.2096
72.4553
87.5719
102.186
116.107
129.248
141.581
153.108
163.851
173.844
183.124
191.733
199.715
207.112
213.965
220.315
226.198
231.652
236.709
241.4
245.755
249.801
253.562
257.063
260.324
263.365
266.206
268.865
271.357
273.703
18.4341
22.8152
29.1685
36.6489
44.6826
52.9063
61.0978
69.1227
76.9009
84.3846
91.547
98.3752
104.866
111.021
116.85
122.36
127.565
132.478
137.112
141.482
145.601
149.485
153.146
156.598
159.853
162.924
165.822
168.559
171.144
173.588
175.901
178.092
180.171
17.9115
19.9902
23.3042
27.4134
31.9742
36.7598
41.6266
46.4842
51.2743
55.9588
60.5124
64.9192
69.1691
73.2569
77.1804
80.9399
84.5373
87.976
91.2601
94.3943
97.3841
100.235
102.952
105.542
108.011
110.363
112.605
114.743
116.781
118.724
120.579
122.349
124.04
17.7059
18.7013
20.4733
22.8216
25.5371
28.4654
31.5038
34.5853
37.6657
40.7151
43.7129
46.6449
49.5015
52.2761
54.9646
57.5647
60.0753
62.4964
64.8287
67.0734
69.2324
71.3077
73.3016
75.2168
77.0557
78.821
80.5156
82.1422
83.7035
85.2021
86.6409
88.0222
89.3489
17.6233
18.0951
19.0401
20.3949
22.0449
23.887
25.8451
27.8668
29.9161
31.9683
34.006
36.0167
37.9918
39.9249
41.8117
43.6492
45.4353
47.169
48.8497
50.4774
52.0524
53.5752
55.0468
56.4683
57.8406
59.1652
60.4433
61.6764
62.8658
64.0131
65.1195
66.1864
67.2154
17.5896
17.8082
18.3025
19.0753
20.0762
21.243
22.5218
23.8719
25.2637
26.6759
28.0932
29.5047
30.9021
32.2796
33.6327
34.9585
36.2544
37.5191
38.7514
39.9506
41.1166
42.2492
43.3486
44.4151
45.4491
46.4513
47.4222
48.3626
49.2731
50.1545
51.0076
51.8331
52.6318
17.5758
17.6732
17.924
18.3539
18.9503
19.682
20.5146
21.4186
22.3704
23.3521
24.3502
25.3549
26.3585
27.3555
28.3414
29.3132
30.2685
31.2053
32.1225
33.0191
33.8944
34.748
35.5798
36.3896
37.1776
37.944
38.6888
39.4125
40.1155
40.798
41.4605
42.1033
42.727
17.5702
17.6104
17.7324
17.9633
18.3084
18.7568
19.2901
19.889
20.5362
21.2175
21.9216
22.6397
23.3649
24.0918
24.8164
25.5355
26.2466
26.9478
27.6377
28.3151
28.9792
29.6293
30.2651
30.8863
31.4928
32.0843
32.6611
33.223
33.7703
34.3031
34.8216
35.326
35.8164
17.5678
17.5817
17.6374
17.7559
17.9479
18.2137
18.5461
18.9343
19.3672
19.8343
20.3268
20.8373
21.3597
21.8894
22.4224
22.9557
23.4869
24.014
24.5354
25.05
25.5568
26.0551
26.5443
27.024
27.4938
27.9535
28.403
28.8423
29.2712
29.6899
30.0983
30.4965
30.8846
17.5669
17.5687
17.5913
17.6483
17.7501
17.9012
18.1009
18.3448
18.6268
18.9402
19.2785
19.6362
20.0084
20.3909
20.7804
21.1739
21.5694
21.9647
22.3585
22.7494
23.1364
23.5188
23.8959
24.2671
24.6321
24.9904
25.342
25.6865
26.0239
26.3541
26.677
26.9927
27.301
17.5665
17.563
17.5695
17.5941
17.6444
17.7258
17.8404
17.9877
18.1651
18.369
18.5955
18.8405
19.1005
19.3722
19.6527
19.9397
20.2311
20.5251
20.8203
21.1156
21.4097
21.702
21.9918
22.2784
22.5614
22.8404
23.1151
23.3853
23.6507
23.9112
24.1667
24.4171
24.6624
17.5663
17.5605
17.5594
17.5675
17.5897
17.6303
17.6923
17.7769
17.8837
18.0113
18.1577
18.3205
18.4972
18.6856
18.8834
19.0888
19.2999
19.5153
19.7338
19.9541
20.1754
20.3967
20.6176
20.8373
21.0553
21.2713
21.4849
21.6959
21.9039
22.1087
22.3103
22.5085
22.7032
17.5662
17.5595
17.5549
17.5548
17.5621
17.5799
17.6107
17.6561
17.7169
17.7929
17.8836
17.9876
18.1036
18.2302
18.3657
18.5089
18.6583
18.8128
18.9713
19.1329
19.2967
19.4619
19.628
19.7943
19.9605
20.126
20.2906
20.4539
20.6157
20.7757
20.9337
21.0897
21.2435
17.5662
17.559
17.5529
17.5489
17.5487
17.5542
17.5672
17.5891
17.6211
17.6636
17.7166
17.7799
17.8528
17.9345
18.0241
18.1207
18.2233
18.3311
18.4432
18.559
18.6776
18.7985
18.9211
19.045
19.1696
19.2947
19.4198
19.5447
19.6691
19.7927
19.9155
20.0372
20.1576
17.5662
17.5588
17.552
17.5462
17.5424
17.5415
17.5447
17.5532
17.5679
17.5894
17.6181
17.6542
17.6975
17.7477
17.8043
17.8668
17.9347
18.0074
18.0842
18.1648
18.2484
18.3347
18.4232
18.5135
18.6053
18.698
18.7916
18.8857
18.98
19.0743
19.1685
19.2624
19.3558
17.5662
17.5588
17.5516
17.5451
17.5395
17.5354
17.5335
17.5346
17.5394
17.5483
17.562
17.5807
17.6044
17.6332
17.667
17.7055
17.7484
17.7954
17.8462
17.9004
17.9576
18.0175
18.0797
18.144
18.2101
18.2776
18.3463
18.416
18.4865
18.5575
18.629
18.7006
18.7724
17.5662
17.5587
17.5515
17.5445
17.5381
17.5325
17.5281
17.5253
17.5246
17.5265
17.5312
17.5392
17.5506
17.5656
17.5843
17.6065
17.6322
17.6612
17.6934
17.7286
17.7666
17.807
17.8498
17.8946
17.9413
17.9896
18.0394
18.0905
18.1426
18.1956
18.2494
18.3038
18.3587
17.5662
17.5587
17.5514
17.5443
17.5376
17.5313
17.5256
17.5209
17.5174
17.5153
17.5151
17.517
17.5211
17.5277
17.5369
17.5487
17.5632
17.5804
17.6002
17.6225
17.6471
17.6741
17.7031
17.7342
17.7671
17.8017
17.8378
17.8753
17.914
17.9539
17.9947
18.0363
18.0788
17.5662
17.5587
17.5514
17.5442
17.5373
17.5307
17.5245
17.5189
17.514
17.5101
17.5074
17.506
17.5063
17.5083
17.5122
17.5181
17.5261
17.5363
17.5486
17.563
17.5795
17.5981
17.6186
17.6409
17.665
17.6907
17.718
17.7467
17.7767
17.8079
17.8402
17.8735
17.9077
17.5662
17.5587
17.5514
17.5442
17.5372
17.5306
17.5242
17.5183
17.513
17.5084
17.5048
17.5022
17.501
17.5012
17.503
17.5065
17.5117
17.5189
17.5279
17.5389
17.5517
17.5664
17.5829
17.6012
17.6212
17.6427
17.6657
17.6902
17.716
17.743
17.7711
17.8002
17.8303
17.5662
17.5587
17.5514
17.5442
17.5373
17.5307
17.5244
17.5187
17.5136
17.5094
17.5062
17.5041
17.5034
17.5042
17.5067
17.5108
17.5168
17.5246
17.5343
17.5459
17.5593
17.5746
17.5917
17.6104
17.6308
17.6528
17.6762
17.701
17.727
17.7543
17.7826
17.8119
17.8422
17.5662
17.5587
17.5514
17.5443
17.5376
17.5312
17.5255
17.5205
17.5166
17.5139
17.5127
17.5131
17.5153
17.5194
17.5256
17.5338
17.5442
17.5568
17.5714
17.5881
17.6068
17.6274
17.6498
17.674
17.6998
17.7271
17.7558
17.7858
17.817
17.8493
17.8826
17.9167
17.9517
17.5662
17.5587
17.5515
17.5446
17.5383
17.5328
17.5283
17.5254
17.5242
17.5251
17.5284
17.5344
17.543
17.5544
17.5687
17.5858
17.6056
17.6281
17.6531
17.6805
17.71
17.7417
17.7753
17.8106
17.8475
17.8859
17.9255
17.9663
18.0082
18.0509
18.0944
18.1386
18.1834
17.5662
17.5588
17.5518
17.5455
17.5403
17.5368
17.5355
17.5371
17.542
17.5507
17.5634
17.5803
17.6014
17.6267
17.656
17.689
17.7256
17.7655
17.8084
17.854
17.902
17.9521
18.0042
18.0579
18.1131
18.1695
18.227
18.2853
18.3443
18.4039
18.4638
18.5241
18.5847
17.5663
17.5591
17.5527
17.548
17.5458
17.5473
17.5535
17.5653
17.5834
17.6079
17.6392
17.677
17.7211
17.771
17.8263
17.8865
17.9509
18.0192
18.0908
18.1652
18.2419
18.3207
18.4011
18.4827
18.5654
18.6488
18.7328
18.817
18.9014
18.9857
19.0699
19.1538
19.2372
17.5663
17.5598
17.5555
17.5552
17.5611
17.5751
17.5988
17.6332
17.6786
17.7349
17.8015
17.8776
17.9624
18.0547
18.1535
18.2578
18.3668
18.4796
18.5954
18.7136
18.8335
18.9548
19.0768
19.1992
19.3218
19.4441
19.566
19.6872
19.8076
19.927
20.0452
20.1623
20.278
17.5666
17.5622
17.5642
17.5767
17.6039
17.6486
17.7124
17.7951
17.896
18.0132
18.145
18.289
18.4433
18.606
18.7753
18.9497
19.1279
19.3087
19.4912
19.6746
19.8581
20.0413
20.2237
20.4047
20.5843
20.762
20.9376
21.111
21.282
21.4506
21.6165
21.7799
21.9406
17.5674
17.5706
17.5924
17.6417
17.7245
17.8427
17.995
18.1778
18.3868
18.6172
18.8646
19.125
19.3951
19.6719
19.953
20.2365
20.5208
20.8047
21.0871
21.3673
21.6446
21.9185
22.1886
22.4546
22.7164
22.9737
23.2264
23.4745
23.7178
23.9564
24.1903
24.4195
24.644
17.5706
17.6016
17.687
17.8408
18.065
18.3527
18.6933
19.0751
19.4875
19.9213
20.3693
20.8257
21.2861
21.7468
22.2054
22.6598
23.1087
23.5511
23.9862
24.4133
24.8323
25.2429
25.6448
26.0381
26.4227
26.7987
27.1661
27.5252
27.8759
28.2185
28.553
28.8797
29.1987
17.5854
17.7219
18.012
18.4558
19.0269
19.692
20.4205
21.1884
21.9779
22.7761
23.5742
24.3656
25.1458
25.912
26.6624
27.3959
28.112
28.8105
29.4913
30.1545
30.8004
31.4293
32.0415
32.6374
33.2175
33.7821
34.3317
34.8666
35.3873
35.8943
36.3878
36.8684
37.3363
17.6614
18.2163
19.1616
20.3924
21.7983
23.2954
24.8285
26.3634
27.8795
29.3646
30.811
32.2141
33.5724
34.8867
36.158
37.3876
38.5772
39.7282
40.8423
41.9207
42.9651
43.9767
44.9567
45.9064
46.827
47.7196
48.5851
49.4247
50.2393
51.0297
51.7969
52.5418
53.2651
18.1027
20.3856
23.4854
26.9261
30.4414
33.9035
37.2583
40.4819
43.5648
46.506
49.3035
51.9688
54.5134
56.9473
59.2787
61.5147
63.6615
65.7246
67.7086
69.6179
71.4564
73.2276
74.9348
76.5812
78.1694
79.7022
81.1821
82.6115
83.9925
85.3274
86.618
87.8662
89.0741
21.2182
31.4407
42.4859
53.1245
62.9728
72.0352
80.437
88.1941
95.3421
101.98
108.198
114.053
119.587
124.83
129.807
134.537
139.039
143.329
147.42
151.324
155.055
158.621
162.033
165.3
168.431
171.434
174.315
177.082
179.742
182.299
184.76
187.13
189.415
59.9537
123.961
170.318
207.141
238.336
266.971
293.908
319.086
342.453
364.003
383.807
401.994
418.713
434.118
448.35
461.54
473.801
485.236
495.932
505.967
515.407
524.312
532.733
540.714
548.296
555.514
562.397
568.973
575.268
581.301
587.094
592.662
598.027
1719.4
1778.23
1839.24
1895.41
1945.93
1992.23
2035.28
2075.52
2113.26
2148.7
2182.04
2213.4
2242.93
2270.74
2296.93
2321.61
2344.85
2366.74
2387.37
2406.81
2425.12
2442.37
2458.63
2473.95
2488.38
2501.98
2514.8
2526.87
2538.26
2548.98
2559.1
2568.62
2577.62
9372.63
8893.24
8342.7
7781.37
7246.31
6751.7
6303.32
5899.39
5534.8
5203.67
4900.95
4622.87
4366.73
4130.55
3912.72
3711.81
3526.44
3355.27
3197.04
3050.6
2914.87
2788.88
2671.73
2562.55
2460.52
2364.86
2274.85
2189.81
2109.13
2032.26
1958.72
1888.06
1819.91
1753.92
1689.8
1627.31
1566.22
1506.36
1447.58
1389.77
1332.85
1276.76
1221.49
1167.03
1113.41
1060.69
1008.93
958.221
908.672
860.4
813.529
768.186
724.501
682.593
642.574
604.541
568.572
534.722
503.027
473.494
446.112
420.841
397.627
376.394
357.054
339.507
323.645
309.356
296.524
285.035
274.773
265.629
257.497
250.275
243.868
238.186
233.145
228.667
224.681
221.12
217.924
215.039
212.415
210.007
207.776
205.688
203.71
201.817
199.986
198.195
196.429
194.673
192.914
191.142
189.35
187.527
185.678
183.768
181.957
179.228
3275.01
3321.26
3380.51
3438.22
3501.61
3568.48
3631.59
3682.58
3714.67
3723.48
3707.22
3666.33
3603
3520.53
3422.9
3314.27
3198.63
3079.53
2959.85
2841.8
2726.85
2615.9
2509.4
2407.47
2310.05
2216.97
2127.99
2042.86
1961.32
1883.07
1807.86
1735.41
1665.46
1597.79
1532.17
1468.43
1406.4
1345.94
1286.94
1229.32
1173.02
1118
1064.24
1011.75
960.562
910.712
862.258
815.271
769.828
726.011
683.905
643.591
605.147
568.638
534.12
501.631
471.194
442.811
416.467
392.128
369.743
349.245
330.555
313.583
298.233
284.403
271.987
260.882
250.984
242.191
234.405
227.534
221.487
216.182
211.54
207.486
203.951
200.873
198.19
195.849
193.798
191.992
190.387
188.945
187.633
186.418
185.275
184.178
183.107
182.045
180.974
179.884
178.762
177.599
176.388
175.121
173.802
172.401
171.052
168.96
1361.03
1366.13
1375.11
1386.78
1400.63
1416.8
1436.11
1460.17
1490.59
1528.16
1572.82
1623.59
1678.54
1734.91
1789.39
1838.5
1879.04
1908.49
1925.27
1928.89
1919.81
1899.29
1869.02
1830.92
1786.83
1738.39
1686.95
1633.59
1579.12
1524.12
1469.04
1414.18
1359.77
1305.96
1252.86
1200.56
1149.13
1098.59
1049.01
1000.41
952.838
906.333
860.942
816.721
773.728
732.027
691.684
652.768
615.347
579.486
545.246
512.679
481.831
452.733
425.406
399.854
376.069
354.029
333.694
315.017
297.934
282.376
268.264
255.518
244.05
233.774
224.605
216.456
209.246
202.896
197.33
192.476
188.267
184.637
181.528
178.882
176.645
174.769
173.206
171.911
170.845
169.968
169.245
168.644
168.134
167.69
167.285
166.9
166.514
166.111
165.678
165.2
164.669
164.075
163.413
162.673
161.86
160.95
160.047
158.574
728.555
730.471
732.505
734.579
736.689
738.968
741.652
744.935
749.039
754.515
761.954
771.927
784.933
801.344
821.337
844.829
871.415
900.339
930.512
960.585
989.075
1014.52
1035.64
1051.47
1061.39
1065.21
1063.05
1055.3
1042.54
1025.4
1004.58
980.692
954.337
926.024
896.198
865.238
833.469
801.166
768.569
735.884
703.295
670.964
639.037
607.648
576.918
546.961
517.877
489.76
462.692
436.747
411.986
388.461
366.209
345.257
325.62
307.297
290.279
274.543
260.058
246.782
234.667
223.659
213.7
204.729
196.686
189.507
183.134
177.507
172.568
168.263
164.54
161.349
158.643
156.377
154.509
152.997
151.804
150.893
150.227
149.773
149.499
149.374
149.369
149.456
149.61
149.807
150.025
150.244
150.447
150.618
150.743
150.81
150.809
150.731
150.569
150.316
149.974
149.523
149.04
148.157
436.782
439.385
441.876
444.131
446.072
447.715
449.127
450.403
451.607
452.844
454.255
455.997
458.232
461.125
464.837
469.516
475.291
482.249
490.421
499.761
510.128
521.281
532.877
544.486
555.623
565.783
574.484
581.307
585.925
588.117
587.777
584.903
579.581
571.965
562.258
550.689
537.501
522.94
507.244
490.639
473.338
455.54
437.426
419.163
400.904
382.788
364.938
347.467
330.471
314.036
298.234
283.125
268.757
255.164
242.372
230.393
219.233
208.884
199.336
190.566
182.551
175.261
168.664
162.725
157.408
152.678
148.499
144.836
141.655
138.924
136.609
134.681
133.11
131.867
130.925
130.257
129.835
129.636
129.632
129.799
130.112
130.548
131.081
131.691
132.354
133.049
133.758
134.461
135.142
135.785
136.376
136.904
137.358
137.728
138.007
138.187
138.269
138.237
138.139
137.805
276.261
279.051
281.729
284.235
286.514
288.55
290.356
291.961
293.394
294.689
295.884
297.021
298.139
299.277
300.472
301.762
303.184
304.776
306.572
308.603
310.891
313.443
316.249
319.275
322.461
325.718
328.932
331.965
334.665
336.878
338.453
339.256
339.175
338.131
336.077
332.997
328.909
323.856
317.906
311.142
303.661
295.567
286.967
277.971
268.686
259.215
249.656
240.097
230.624
221.31
212.221
203.415
194.94
186.835
179.133
171.856
165.021
158.638
152.709
147.235
142.208
137.619
133.457
129.707
126.354
123.382
120.772
118.51
116.576
114.954
113.628
112.579
111.792
111.251
110.938
110.837
110.932
111.205
111.639
112.216
112.918
113.727
114.623
115.588
116.603
117.651
118.712
119.77
120.809
121.814
122.771
123.666
124.49
125.23
125.88
126.431
126.88
127.215
127.46
127.62
182.46
184.972
187.405
189.731
191.921
193.962
195.852
197.598
199.209
200.696
202.073
203.352
204.543
205.653
206.689
207.653
208.549
209.38
210.151
210.867
211.533
212.158
212.749
213.31
213.845
214.35
214.818
215.231
215.565
215.787
215.86
215.738
215.377
214.732
213.76
212.426
210.704
208.578
206.042
203.1
199.77
196.076
192.053
187.739
183.181
178.426
173.524
168.525
163.477
158.428
153.421
148.497
143.692
139.037
134.56
130.284
126.227
122.404
118.826
115.498
112.426
109.611
107.051
104.745
102.688
100.875
99.3007
97.9582
96.8407
95.9409
95.2513
94.7639
94.4708
94.3637
94.4337
94.6716
95.0678
95.6118
96.2925
97.0978
98.015
99.0305
100.13
101.298
102.52
103.779
105.06
106.348
107.626
108.88
110.096
111.261
112.363
113.39
114.334
115.184
115.937
116.581
117.117
117.708
125.917
127.992
130.018
131.982
133.869
135.67
137.381
139.002
140.536
141.984
143.351
144.641
145.855
146.994
148.055
149.037
149.934
150.742
151.455
152.071
152.585
152.996
153.305
153.511
153.619
153.631
153.551
153.38
153.12
152.77
152.327
151.785
151.136
150.37
149.476
148.442
147.258
145.913
144.401
142.718
140.862
138.838
136.654
134.319
131.85
129.264
126.581
123.823
121.014
118.177
115.336
112.514
109.733
107.014
104.374
101.831
99.3997
97.0917
94.9176
92.8859
91.003
89.2737
87.7014
86.2883
85.0353
83.9428
83.0102
82.2363
81.6196
81.1581
80.8494
80.6908
80.6793
80.8115
81.0837
81.4915
82.0299
82.6935
83.4756
84.369
85.3652
86.4549
87.6276
88.872
90.1757
91.5258
92.9087
94.3104
95.7169
97.1141
98.4883
99.8263
101.115
102.344
103.501
104.576
105.563
106.453
107.224
108.173
90.8303
92.4783
94.0986
95.6846
97.2283
98.7239
100.168
101.558
102.895
104.178
105.407
106.583
107.706
108.775
109.785
110.734
111.617
112.428
113.162
113.813
114.376
114.846
115.22
115.495
115.672
115.749
115.729
115.614
115.406
115.108
114.724
114.255
113.703
113.069
112.354
111.558
110.679
109.717
108.672
107.542
106.329
105.035
103.662
102.216
100.701
99.1258
97.4989
95.8305
94.1316
92.4142
90.6904
88.9728
87.2739
85.6057
83.9797
82.4067
80.8967
79.4586
78.1003
76.8287
75.6496
74.5681
73.5882
72.7132
71.9458
71.2879
70.7412
70.3067
69.9852
69.7772
69.6829
69.7022
69.8349
70.0803
70.4377
70.9056
71.4824
72.1658
72.9525
73.8388
74.8197
75.8895
77.0411
78.2667
79.5569
80.9018
82.2904
83.7108
85.1508
86.5976
88.0384
89.4603
90.8507
92.1975
93.4895
94.7151
95.867
96.936
97.8849
99.1141
68.3699
69.6607
70.9371
72.1953
73.4308
74.6399
75.8198
76.9691
78.086
79.1699
80.2203
81.2366
82.2175
83.1614
84.0658
84.9276
85.7429
86.5073
87.2161
87.8643
88.4472
88.9602
89.3994
89.7615
90.0442
90.2457
90.3656
90.4039
90.3618
90.2408
90.0431
89.7713
89.428
89.0159
88.5379
87.9965
87.3942
86.7334
86.0164
85.2455
84.4231
83.5519
82.635
81.6758
80.6784
79.6473
78.5878
77.5057
76.4071
75.2989
74.1882
73.0823
71.9885
70.9142
69.8668
68.8531
67.8797
66.9528
66.078
65.2606
64.505
63.8154
63.1953
62.648
62.1762
61.7822
61.4681
61.2357
61.0867
61.0225
61.0443
61.1533
61.3506
61.6369
62.013
62.4794
63.0362
63.6831
64.4193
65.2434
66.1532
67.1458
68.2169
69.3616
70.5738
71.8462
73.1706
74.5375
75.937
77.3582
78.7896
80.2195
81.6361
83.0273
84.382
85.6882
86.9375
88.1215
89.1895
90.6205
53.5314
54.5412
55.5444
56.5385
57.521
58.4895
59.442
60.377
61.2932
62.1897
63.0655
63.9199
64.7517
65.5593
66.3408
67.0938
67.8155
68.5025
69.1512
69.758
70.319
70.8305
71.2889
71.6912
72.0346
72.3171
72.5371
72.6936
72.7863
72.8156
72.7823
72.6877
72.5334
72.3217
72.0547
71.7349
71.3651
70.9479
70.486
69.9824
69.4399
68.8614
68.2502
67.6094
66.9425
66.2532
65.5453
64.823
64.0907
63.3529
62.6143
61.8798
61.1543
60.4428
59.75
59.0807
58.4395
57.8307
57.2583
56.7261
56.2376
55.7959
55.4041
55.0646
54.7799
54.5522
54.3834
54.2754
54.23
54.2488
54.3334
54.4853
54.7062
54.9974
55.3604
55.7965
56.307
56.8926
57.5541
58.2916
59.1048
59.9927
60.9535
61.9846
63.0823
64.242
65.4582
66.724
68.0317
69.3727
70.7376
72.1162
73.4979
74.8717
76.227
77.5522
78.838
80.0775
81.21
82.7665
43.4316
44.2252
45.0165
45.8041
46.5862
47.3614
48.1282
48.8855
49.6321
50.3672
51.09
51.7996
52.495
53.175
53.8382
54.4826
55.1063
55.7069
56.2817
56.8279
57.3429
57.8235
58.2672
58.6712
59.0331
59.351
59.623
59.8478
60.0245
60.1526
60.2322
60.2634
60.2472
60.1845
60.0769
59.926
59.7337
59.5022
59.2338
58.9308
58.596
58.2319
57.8413
57.4272
56.9923
56.5399
56.0731
55.5953
55.1097
54.6199
54.1294
53.6418
53.1606
52.6894
52.2318
51.7912
51.3709
50.974
50.6035
50.2623
49.9531
49.6781
49.4398
49.2403
49.0813
48.9649
48.8927
48.8663
48.8873
48.9572
49.0777
49.2503
49.4766
49.7583
50.0969
50.4942
50.9517
51.471
52.0535
52.7001
53.4119
54.189
55.0313
55.9379
56.9073
57.9369
59.0233
60.1623
61.3484
62.5753
63.8357
65.1215
66.4238
67.7331
69.0398
70.3334
71.6046
72.8477
73.9961
75.6081
36.3721
36.9996
37.6274
38.2545
38.8797
39.502
40.1204
40.7341
41.342
41.9436
42.5382
43.1249
43.703
44.2715
44.8294
45.3752
45.9075
46.4246
46.9245
47.4054
47.8651
48.3014
48.7122
49.0955
49.4493
49.7718
50.0615
50.3169
50.5371
50.7212
50.8688
50.9796
51.0539
51.0919
51.0946
51.0627
50.9975
50.9005
50.7732
50.6176
50.4356
50.2292
50.0008
49.7527
49.4872
49.2071
48.9147
48.6129
48.3044
47.9918
47.678
47.3658
47.058
46.7573
46.4663
46.1877
45.924
45.6777
45.4509
45.2459
45.0646
44.909
44.7808
44.6817
44.6131
44.5766
44.5735
44.6052
44.6729
44.7781
44.9221
45.1063
45.3322
45.6013
45.9152
46.2756
46.6842
47.1426
47.6526
48.2157
48.8332
49.5064
50.236
51.0223
51.8651
52.7636
53.7162
54.7204
55.7729
56.8696
58.0052
59.1737
60.3682
61.5811
62.8042
64.0284
65.245
66.4499
67.5741
69.1811
31.3253
31.8245
32.3253
32.8271
33.3292
33.8308
34.3311
34.8296
35.3255
35.8183
36.3073
36.7921
37.2719
37.746
38.2136
38.6737
39.1253
39.567
39.9976
40.4156
40.8194
41.2075
41.5783
41.9303
42.2618
42.5714
42.858
43.1201
43.3569
43.5675
43.7513
43.9078
44.0369
44.1385
44.213
44.2609
44.2827
44.2793
44.2519
44.2017
44.1302
44.0387
43.9292
43.8033
43.663
43.5103
43.3473
43.176
42.9988
42.8178
42.6352
42.4532
42.274
42.0999
41.9328
41.7749
41.6281
41.4942
41.375
41.2723
41.1874
41.122
41.0773
41.0547
41.0552
41.08
41.1303
41.207
41.3112
41.4439
41.6064
41.7997
42.0252
42.2841
42.5779
42.908
43.2762
43.6839
44.133
44.625
45.1616
45.7443
46.3744
47.0529
47.7805
48.5574
49.3834
50.2573
51.1776
52.1418
53.1467
54.1881
55.261
56.3597
57.4776
58.6075
59.7418
60.8776
61.9469
63.5005
27.652
28.0506
28.4518
28.8549
29.2595
29.6651
30.0711
30.4771
30.8824
31.2867
31.6895
32.0903
32.4886
32.8839
33.2754
33.6626
34.0446
34.4206
34.7894
35.1502
35.5018
35.8431
36.1728
36.4898
36.7929
37.0811
37.3532
37.6082
37.8454
38.0639
38.2632
38.4427
38.6021
38.7413
38.8603
38.9592
39.0384
39.0984
39.1398
39.1635
39.1704
39.1617
39.1386
39.1024
39.0546
38.9967
38.9304
38.8573
38.7791
38.6976
38.6146
38.5318
38.451
38.3738
38.3019
38.2369
38.1804
38.1338
38.0984
38.0756
38.0665
38.0722
38.0939
38.1323
38.1884
38.2631
38.3571
38.4712
38.6063
38.7631
38.9425
39.1454
39.3729
39.626
39.9059
40.2139
40.5513
40.9198
41.3207
41.7558
42.2265
42.7345
43.2814
43.8684
44.4967
45.1672
45.8803
46.6362
47.4343
48.2736
49.1522
50.0676
51.0167
51.9952
52.9985
54.021
55.0564
56.1034
57.0969
58.5616
24.9423
25.2612
25.583
25.9075
26.2342
26.5628
26.8928
27.2239
27.5557
27.8879
28.2199
28.5516
28.8825
29.2121
29.54
29.8657
30.1885
30.5079
30.8232
31.1335
31.4382
31.7362
32.0269
32.3093
32.5825
32.8457
33.098
33.3388
33.5673
33.7828
33.9849
34.173
34.3469
34.5063
34.651
34.7812
34.8969
34.9985
35.0863
35.1608
35.2228
35.2729
35.3121
35.3414
35.3618
35.3745
35.3807
35.3818
35.379
35.3738
35.3674
35.3613
35.3569
35.3555
35.3583
35.3666
35.3816
35.4045
35.4362
35.4778
35.53
35.5938
35.6699
35.759
35.8617
35.9785
36.1102
36.2571
36.4199
36.5992
36.7955
37.0096
37.2422
37.4943
37.7666
38.0603
38.3765
38.7165
39.0815
39.4731
39.8927
40.3417
40.8218
41.3343
41.8806
42.4618
43.0791
43.7329
44.4236
45.151
45.9145
46.7127
47.5439
48.4054
49.2941
50.2057
51.1357
52.0839
52.9898
54.3429
22.9261
23.1809
23.4388
23.6998
23.9636
24.2297
24.498
24.7681
25.0398
25.3127
25.5866
25.8612
26.1361
26.4111
26.6858
26.9597
27.2326
27.5038
27.773
28.0395
28.3029
28.5624
28.8174
29.0674
29.3116
29.5495
29.7804
30.0038
30.219
30.4256
30.6232
30.8113
30.9897
31.1581
31.3165
31.4646
31.6027
31.7308
31.8491
31.9581
32.0582
32.1499
32.2338
32.3107
32.3813
32.4466
32.5074
32.5648
32.6197
32.6733
32.7265
32.7804
32.8362
32.8948
32.9572
33.0243
33.0971
33.1764
33.263
33.3576
33.4607
33.5731
33.6952
33.8274
33.9702
34.124
34.289
34.4657
34.6544
34.8555
35.0694
35.2965
35.5374
35.7927
36.0632
36.3496
36.6528
36.9739
37.3139
37.6741
38.0557
38.4601
38.8886
39.3427
39.8237
40.3329
40.8714
41.4402
42.0402
42.6716
43.3347
44.0289
44.7536
45.5072
46.2877
47.0926
47.9183
48.7659
49.5802
50.8106
21.4201
21.6228
21.8289
22.0382
22.2506
22.4657
22.6834
22.9035
23.1257
23.3498
23.5756
23.8029
24.0313
24.2607
24.4909
24.7214
24.9521
25.1826
25.4124
25.6413
25.8688
26.0945
26.3179
26.5386
26.7562
26.97
27.1798
27.385
27.5853
27.7802
27.9695
28.1528
28.3299
28.5006
28.6647
28.8223
28.9733
29.1178
29.256
29.3881
29.5144
29.6353
29.7512
29.8628
29.9705
30.075
30.1771
30.2775
30.377
30.4763
30.5763
30.6777
30.7815
30.8883
30.9988
31.1139
31.2341
31.3601
31.4924
31.6314
31.7777
31.9316
32.0933
32.2632
32.4414
32.6282
32.8237
33.0281
33.2415
33.4642
33.6964
33.9383
34.1903
34.4527
34.7262
35.0112
35.3085
35.6189
35.9431
36.2822
36.6373
37.0095
37.3999
37.81
38.2408
38.6937
39.1698
39.6703
40.1961
40.748
41.3266
41.932
42.5642
43.2224
43.9059
44.6129
45.3411
46.0924
46.8171
47.9233
20.2966
20.4568
20.6205
20.7875
20.9578
21.1311
21.3072
21.4861
21.6675
21.8512
22.0372
22.2251
22.4149
22.6064
22.7994
22.9936
23.1888
23.3849
23.5814
23.7783
23.9752
24.1717
24.3676
24.5625
24.7561
24.9482
25.1383
25.3261
25.5114
25.6939
25.8734
26.0496
26.2223
26.3914
26.5569
26.7187
26.8767
27.0311
27.1819
27.3294
27.4738
27.6154
27.7545
27.8915
28.0268
28.1611
28.2948
28.4284
28.5627
28.698
28.8352
28.9748
29.1173
29.2634
29.4136
29.5684
29.7282
29.8935
30.0645
30.2417
30.4251
30.6151
30.8118
31.0152
31.2254
31.4424
31.6663
31.8969
32.1344
32.3788
32.6301
32.8883
33.1538
33.4267
33.7073
33.996
34.2932
34.5996
34.9158
35.2426
35.5808
35.9314
36.2953
36.6736
37.0675
37.4781
37.9065
38.3538
38.8211
39.3093
39.8191
40.3512
40.9058
41.4829
42.0823
42.7032
43.3441
44.0076
44.6493
45.6369
19.4642
19.5898
19.7189
19.8514
19.9872
20.1262
20.2682
20.4132
20.561
20.7115
20.8646
21.0201
21.1779
21.3379
21.5
21.664
21.8297
21.997
22.1658
22.3357
22.5067
22.6784
22.8508
23.0236
23.1965
23.3694
23.542
23.7142
23.8856
24.0563
24.2258
24.3943
24.5615
24.7273
24.8917
25.0547
25.2163
25.3766
25.5357
25.6937
25.8509
26.0074
26.1636
26.3197
26.4762
26.6334
26.7918
26.9517
27.1137
27.2781
27.4455
27.6163
27.7909
27.9697
28.1531
28.3415
28.5351
28.7341
28.9388
29.1492
29.3656
29.5878
29.8159
30.0498
30.2895
30.5347
30.7854
31.0415
31.3027
31.569
31.8403
32.1165
32.3976
32.6837
32.9749
33.2715
33.5736
33.8818
34.1965
34.5182
34.8477
35.1855
35.5326
35.8898
36.2582
36.6386
37.032
37.4396
37.8623
38.3011
38.7569
39.2303
39.722
40.2325
40.7617
41.3096
41.8753
42.4619
43.0296
43.9095
18.8562
18.954
19.0552
19.1598
19.2677
19.3789
19.4933
19.6107
19.7312
19.8546
19.9809
20.1099
20.2417
20.376
20.5128
20.652
20.7935
20.9373
21.0831
21.2308
21.3804
21.5317
21.6846
21.8388
21.9944
22.1512
22.3089
22.4676
22.627
22.7872
22.9479
23.1091
23.2708
23.433
23.5955
23.7586
23.9221
24.0862
24.2511
24.4167
24.5835
24.7514
24.9209
25.0921
25.2654
25.4411
25.6194
25.8009
25.9857
26.1743
26.367
26.5641
26.766
26.9728
27.1849
27.4025
27.6256
27.8545
28.0891
28.3295
28.5756
28.8272
29.0844
29.3468
29.6142
29.8865
30.1633
30.4443
30.7293
31.0181
31.3103
31.6059
31.9047
32.2066
32.5115
32.8196
33.131
33.4459
33.7645
34.0873
34.4148
34.7475
35.086
35.431
35.7834
36.144
36.5135
36.8931
37.2835
37.6857
38.1006
38.5289
38.9715
39.4289
39.9016
40.3897
40.8929
41.4146
41.9191
42.7053
18.4232
18.4993
18.5786
18.6613
18.7472
18.8365
18.929
19.0246
19.1235
19.2254
19.3304
19.4385
19.5494
19.6633
19.7801
19.8996
20.0219
20.1468
20.2744
20.4045
20.5371
20.672
20.8093
20.9489
21.0906
21.2344
21.3803
21.5282
21.678
21.8297
21.9832
22.1387
22.2959
22.4551
22.6162
22.7793
22.9444
23.1117
23.2813
23.4534
23.6281
23.8057
23.9863
24.1703
24.3578
24.5492
24.7447
24.9447
25.1493
25.3589
25.5737
25.794
26.0199
26.2517
26.4895
26.7334
26.9834
27.2395
27.5016
27.7697
28.0436
28.323
28.6078
28.8975
29.1919
29.4906
29.7933
30.0994
30.4087
30.7208
31.0353
31.3519
31.6704
31.9905
32.3121
32.6351
32.9594
33.2853
33.6127
33.9419
34.2733
34.6072
34.9442
35.2847
35.6294
35.9789
36.334
36.6956
37.0643
37.4411
37.8268
38.2222
38.628
39.0451
39.4739
39.915
40.3684
40.8374
41.2898
41.9978
18.1291
18.189
18.252
18.3183
18.3879
18.4607
18.5368
18.6161
18.6987
18.7845
18.8735
18.9657
19.0611
19.1596
19.2613
19.3661
19.4739
19.5848
19.6987
19.8156
19.9355
20.0583
20.1841
20.3127
20.4443
20.5787
20.7159
20.856
20.999
21.1449
21.2936
21.4453
21.6
21.7577
21.9186
22.0827
22.2502
22.4211
22.5958
22.7742
22.9567
23.1433
23.3345
23.5303
23.731
23.9368
24.1481
24.3651
24.5879
24.8169
25.0521
25.2938
25.5422
25.7972
26.0591
26.3277
26.6031
26.8851
27.1735
27.4683
27.7691
28.0756
28.3875
28.7043
29.0257
29.351
29.68
30.012
30.3466
30.6833
31.0216
31.3612
31.7016
32.0424
32.3835
32.7246
33.0656
33.4063
33.7469
34.0874
34.4279
34.7688
35.1103
35.4528
35.797
36.1432
36.492
36.8443
37.2006
37.5618
37.9285
38.3016
38.6819
39.07
39.4667
39.8726
40.288
40.7163
41.1276
41.7736
17.9486
17.9976
18.0498
18.1051
18.1637
18.2255
18.2905
18.3589
18.4305
18.5054
18.5837
18.6652
18.7501
18.8383
18.9299
19.0248
19.123
19.2246
19.3295
19.4378
19.5495
19.6645
19.7829
19.9048
20.03
20.1588
20.291
20.4268
20.5662
20.7093
20.8561
21.0068
21.1613
21.3199
21.4826
21.6496
21.8211
21.9971
22.178
22.3638
22.5549
22.7513
22.9534
23.1614
23.3755
23.5959
23.8229
24.0567
24.2975
24.5455
24.8008
25.0636
25.3339
25.6119
25.8974
26.1905
26.491
26.7987
27.1135
27.435
27.763
28.0969
28.4364
28.781
29.1301
29.4832
29.8397
30.199
30.5606