/*--------------------------------*- C++ -*----------------------------------*\
| =========                 |                                                 |
| \\      /  F ield         | OpenFOAM: The Open Source CFD Toolbox           |
|  \\    /   O peration     | Version:  4.1                                   |
|   \\  /    A nd           | Web:      www.OpenFOAM.org                      |
|    \\/     M anipulation  |                                                 |
\*---------------------------------------------------------------------------*/
FoamFile
{
    version     2.0;
    format      ascii;
    class       volScalarField;
    location    "1600";
    object      p;
}
// * * * * * * * * * * * * * * * * * * * * * * * * * * * * * * * * * * * * * //

dimensions      [0 2 -2 0 0 0 0];

internalField   nonuniform List<scalar> 
6820
(
6.15741
-4.54151
-8.06814
-8.81337
-9.20597
-9.53722
-9.72559
-9.81892
-9.88183
-9.93451
-9.97758
-10.0126
-10.0428
-10.07
-10.0949
-10.1178
-10.1392
-10.1594
-10.1786
-10.1969
-10.2146
-10.2316
-10.2481
-10.264
-10.2796
-10.2947
-10.3093
-10.3233
-10.3365
-10.3489
-10.3593
-10.3694
-10.3662
-15.5618
-12.0146
-11.2128
-10.4084
-10.0253
-9.94308
-9.92916
-9.9243
-9.93631
-9.9614
-9.98951
-10.0165
-10.0424
-10.0674
-10.0911
-10.1135
-10.1348
-10.155
-10.1743
-10.1929
-10.2107
-10.228
-10.2447
-10.2609
-10.2766
-10.292
-10.3068
-10.3212
-10.335
-10.3483
-10.3602
-10.3728
-10.3784
-13.3714
-9.86343
-9.60134
-9.59109
-9.57841
-9.66895
-9.76214
-9.82438
-9.87501
-9.92218
-9.96367
-9.99912
-10.0303
-10.0585
-10.0843
-10.1081
-10.1302
-10.151
-10.1707
-10.1895
-10.2075
-10.2249
-10.2417
-10.258
-10.2738
-10.2893
-10.3043
-10.319
-10.3331
-10.347
-10.3601
-10.3739
-10.3849
-10.9445
-9.47357
-9.62404
-9.73436
-9.71448
-9.7636
-9.82772
-9.87132
-9.90754
-9.94359
-9.97727
-10.0075
-10.0351
-10.0608
-10.0848
-10.1074
-10.1287
-10.1489
-10.1682
-10.1868
-10.2047
-10.2219
-10.2387
-10.2551
-10.271
-10.2866
-10.3019
-10.3168
-10.3315
-10.346
-10.3603
-10.3753
-10.3896
-10.4922
-9.77763
-9.81628
-9.82719
-9.77768
-9.79959
-9.84609
-9.88232
-9.9147
-9.94788
-9.97967
-10.0088
-10.0357
-10.0609
-10.0846
-10.1068
-10.1279
-10.1479
-10.1671
-10.1855
-10.2033
-10.2205
-10.2373
-10.2536
-10.2695
-10.2852
-10.3006
-10.3157
-10.3308
-10.3458
-10.3609
-10.3767
-10.393
-10.4115
-9.93179
-9.88375
-9.85776
-9.8139
-9.8272
-9.86369
-9.89573
-9.92568
-9.95634
-9.986
-10.0136
-10.0393
-10.0635
-10.0864
-10.108
-10.1286
-10.1482
-10.167
-10.1852
-10.2027
-10.2198
-10.2364
-10.2526
-10.2685
-10.2842
-10.2997
-10.315
-10.3303
-10.3458
-10.3615
-10.378
-10.3955
-10.2885
-9.96215
-9.90787
-9.88241
-9.84919
-9.85721
-9.88506
-9.91233
-9.93909
-9.96676
-9.99393
-10.0197
-10.044
-10.0671
-10.0891
-10.11
-10.13
-10.1491
-10.1676
-10.1854
-10.2027
-10.2196
-10.236
-10.2522
-10.268
-10.2837
-10.2992
-10.3146
-10.3301
-10.3459
-10.362
-10.3789
-10.3969
-10.1796
-9.97412
-9.92942
-9.90718
-9.8813
-9.88555
-9.90649
-9.92932
-9.95295
-9.97778
-10.0026
-10.0265
-10.0495
-10.0714
-10.0925
-10.1126
-10.132
-10.1507
-10.1687
-10.1862
-10.2033
-10.2199
-10.2361
-10.2521
-10.2679
-10.2834
-10.2989
-10.3144
-10.3301
-10.3459
-10.3622
-10.3793
-10.3974
-10.1086
-9.9849
-9.94737
-9.92746
-9.90761
-9.91007
-9.92622
-9.94554
-9.96648
-9.98885
-10.0115
-10.0338
-10.0553
-10.0762
-10.0963
-10.1158
-10.1345
-10.1527
-10.1703
-10.1874
-10.2041
-10.2204
-10.2365
-10.2523
-10.2679
-10.2834
-10.2988
-10.3143
-10.3299
-10.3458
-10.3621
-10.3791
-10.397
-10.0642
-9.99152
-9.96037
-9.94334
-9.92883
-9.9308
-9.94381
-9.96048
-9.97922
-9.99949
-10.0203
-10.041
-10.0613
-10.0811
-10.1004
-10.1191
-10.1372
-10.1548
-10.172
-10.1887
-10.2051
-10.2212
-10.237
-10.2526
-10.2681
-10.2834
-10.2987
-10.3141
-10.3297
-10.3455
-10.3616
-10.3784
-10.3959
-10.0365
-9.99487
-9.97018
-9.95632
-9.94616
-9.94825
-9.9592
-9.97391
-9.99086
-10.0094
-10.0286
-10.0479
-10.0671
-10.0859
-10.1043
-10.1223
-10.1399
-10.157
-10.1737
-10.1901
-10.2061
-10.2219
-10.2375
-10.2529
-10.2681
-10.2833
-10.2985
-10.3137
-10.3291
-10.3447
-10.3607
-10.377
-10.394
-10.02
-9.99695
-9.97824
-9.96737
-9.96057
-9.96299
-9.97259
-9.9858
-10.0013
-10.0183
-10.0362
-10.0543
-10.0725
-10.0904
-10.108
-10.1254
-10.1423
-10.159
-10.1753
-10.1913
-10.207
-10.2225
-10.2378
-10.2529
-10.268
-10.283
-10.298
-10.313
-10.3281
-10.3435
-10.3591
-10.375
-10.3914
-10.0111
-9.99892
-9.98529
-9.97708
-9.97281
-9.97561
-9.98426
-9.99629
-10.0106
-10.0264
-10.043
-10.0601
-10.0773
-10.0944
-10.1114
-10.1281
-10.1445
-10.1606
-10.1765
-10.1922
-10.2076
-10.2228
-10.2378
-10.2527
-10.2675
-10.2823
-10.297
-10.3118
-10.3267
-10.3417
-10.3569
-10.3723
-10.388
-10.0074
-10.0013
-9.9917
-9.98578
-9.98344
-9.98658
-9.99453
-10.0056
-10.0188
-10.0335
-10.0491
-10.0652
-10.0816
-10.0979
-10.1142
-10.1303
-10.1462
-10.1619
-10.1774
-10.1927
-10.2078
-10.2227
-10.2374
-10.2521
-10.2666
-10.2811
-10.2956
-10.3101
-10.3246
-10.3392
-10.354
-10.3688
-10.3838
-10.007
-10.0042
-9.99773
-9.99374
-9.99285
-9.99627
-10.0037
-10.0139
-10.0262
-10.0399
-10.0545
-10.0698
-10.0853
-10.1009
-10.1166
-10.1321
-10.1476
-10.1628
-10.1779
-10.1928
-10.2076
-10.2222
-10.2366
-10.251
-10.2652
-10.2794
-10.2936
-10.3077
-10.3219
-10.3361
-10.3503
-10.3646
-10.379
-10.0088
-10.0076
-10.0035
-10.0011
-10.0013
-10.0049
-10.0119
-10.0214
-10.0328
-10.0456
-10.0594
-10.0738
-10.0885
-10.1035
-10.1185
-10.1335
-10.1484
-10.1633
-10.1779
-10.1925
-10.2069
-10.2212
-10.2353
-10.2494
-10.2633
-10.2772
-10.291
-10.3048
-10.3185
-10.3323
-10.346
-10.3597
-10.3734
-10.0119
-10.0116
-10.0092
-10.008
-10.009
-10.0128
-10.0194
-10.0282
-10.0388
-10.0508
-10.0637
-10.0773
-10.0913
-10.1056
-10.12
-10.1345
-10.1489
-10.1633
-10.1776
-10.1917
-10.2058
-10.2197
-10.2335
-10.2472
-10.2609
-10.2744
-10.2878
-10.3012
-10.3146
-10.3278
-10.341
-10.3542
-10.3672
-10.0159
-10.016
-10.0147
-10.0144
-10.016
-10.0199
-10.0261
-10.0344
-10.0442
-10.0554
-10.0675
-10.0804
-10.0937
-10.1073
-10.1211
-10.135
-10.149
-10.1629
-10.1768
-10.1905
-10.2042
-10.2178
-10.2313
-10.2446
-10.2579
-10.2711
-10.2841
-10.2971
-10.31
-10.3228
-10.3355
-10.348
-10.3604
-10.0204
-10.0206
-10.0202
-10.0205
-10.0225
-10.0264
-10.0323
-10.0399
-10.0491
-10.0596
-10.0709
-10.083
-10.0957
-10.1087
-10.1219
-10.1353
-10.1487
-10.1622
-10.1756
-10.189
-10.2023
-10.2155
-10.2286
-10.2416
-10.2545
-10.2672
-10.2799
-10.2925
-10.3049
-10.3172
-10.3293
-10.3413
-10.3531
-10.0252
-10.0255
-10.0255
-10.0263
-10.0285
-10.0323
-10.0378
-10.045
-10.0535
-10.0633
-10.0739
-10.0853
-10.0973
-10.1097
-10.1223
-10.1351
-10.1481
-10.1611
-10.1741
-10.1871
-10.2
-10.2128
-10.2255
-10.2381
-10.2506
-10.263
-10.2752
-10.2873
-10.2993
-10.311
-10.3227
-10.3341
-10.3453
-10.0302
-10.0304
-10.0307
-10.0318
-10.034
-10.0377
-10.0429
-10.0495
-10.0574
-10.0665
-10.0765
-10.0872
-10.0985
-10.1103
-10.1224
-10.1347
-10.1472
-10.1597
-10.1723
-10.1848
-10.1973
-10.2097
-10.222
-10.2343
-10.2463
-10.2583
-10.2701
-10.2818
-10.2932
-10.3045
-10.3156
-10.3265
-10.3371
-10.0352
-10.0354
-10.0359
-10.037
-10.0392
-10.0426
-10.0474
-10.0535
-10.0609
-10.0693
-10.0786
-10.0887
-10.0994
-10.1106
-10.1221
-10.1339
-10.1459
-10.158
-10.1701
-10.1822
-10.1943
-10.2063
-10.2183
-10.2301
-10.2417
-10.2533
-10.2646
-10.2758
-10.2868
-10.2976
-10.3082
-10.3185
-10.3286
-10.0402
-10.0403
-10.0408
-10.0419
-10.0439
-10.047
-10.0514
-10.057
-10.0637
-10.0715
-10.0803
-10.0898
-10.0999
-10.1105
-10.1215
-10.1328
-10.1443
-10.1559
-10.1676
-10.1793
-10.191
-10.2026
-10.2142
-10.2256
-10.2368
-10.2479
-10.2589
-10.2696
-10.2801
-10.2904
-10.3005
-10.3103
-10.3198
-10.0452
-10.0453
-10.0457
-10.0466
-10.0483
-10.051
-10.0549
-10.0599
-10.0661
-10.0733
-10.0814
-10.0903
-10.0999
-10.11
-10.1205
-10.1313
-10.1424
-10.1536
-10.1649
-10.1762
-10.1874
-10.1987
-10.2098
-10.2208
-10.2316
-10.2423
-10.2528
-10.2631
-10.2732
-10.283
-10.2925
-10.3018
-10.3108
-10.0502
-10.0503
-10.0505
-10.051
-10.0523
-10.0545
-10.0578
-10.0622
-10.0678
-10.0744
-10.082
-10.0904
-10.0994
-10.109
-10.1191
-10.1295
-10.1401
-10.1509
-10.1618
-10.1727
-10.1836
-10.1944
-10.2051
-10.2157
-10.2262
-10.2365
-10.2465
-10.2564
-10.266
-10.2753
-10.2844
-10.2932
-10.3017
-10.0553
-10.0554
-10.0552
-10.0553
-10.0559
-10.0575
-10.0601
-10.064
-10.0689
-10.075
-10.082
-10.0898
-10.0984
-10.1076
-10.1172
-10.1271
-10.1374
-10.1478
-10.1583
-10.1688
-10.1794
-10.1898
-10.2002
-10.2104
-10.2205
-10.2303
-10.24
-10.2494
-10.2586
-10.2675
-10.2761
-10.2844
-10.2924
-10.0605
-10.0606
-10.06
-10.0593
-10.0592
-10.06
-10.0619
-10.065
-10.0693
-10.0748
-10.0813
-10.0886
-10.0968
-10.1055
-10.1147
-10.1244
-10.1342
-10.1443
-10.1545
-10.1647
-10.1749
-10.185
-10.195
-10.2049
-10.2145
-10.224
-10.2333
-10.2423
-10.251
-10.2595
-10.2677
-10.2755
-10.2831
-10.0661
-10.0662
-10.0649
-10.0632
-10.0621
-10.0619
-10.0629
-10.0653
-10.0689
-10.0738
-10.0798
-10.0867
-10.0945
-10.1028
-10.1117
-10.121
-10.1306
-10.1403
-10.1502
-10.1601
-10.17
-10.1798
-10.1895
-10.199
-10.2083
-10.2175
-10.2263
-10.235
-10.2433
-10.2514
-10.2591
-10.2665
-10.2737
-10.0724
-10.0724
-10.0701
-10.0671
-10.0646
-10.0632
-10.0632
-10.0647
-10.0676
-10.0719
-10.0775
-10.084
-10.0914
-10.0995
-10.1081
-10.1171
-10.1264
-10.1359
-10.1455
-10.1551
-10.1647
-10.1742
-10.1836
-10.1928
-10.2019
-10.2106
-10.2192
-10.2274
-10.2354
-10.2431
-10.2504
-10.2575
-10.2642
-10.0797
-10.0796
-10.0758
-10.0708
-10.0665
-10.0636
-10.0624
-10.063
-10.0652
-10.069
-10.0741
-10.0803
-10.0874
-10.0952
-10.1036
-10.1124
-10.1216
-10.1308
-10.1402
-10.1496
-10.159
-10.1683
-10.1774
-10.1863
-10.195
-10.2035
-10.2117
-10.2197
-10.2273
-10.2346
-10.2416
-10.2482
-10.2546
-10.0889
-10.0885
-10.0823
-10.0744
-10.0678
-10.0631
-10.0604
-10.06
-10.0615
-10.0648
-10.0695
-10.0755
-10.0824
-10.0901
-10.0983
-10.107
-10.1159
-10.1251
-10.1343
-10.1435
-10.1527
-10.1618
-10.1707
-10.1793
-10.1878
-10.196
-10.2039
-10.2116
-10.2189
-10.2259
-10.2325
-10.2389
-10.2448
-10.1013
-10.1001
-10.0899
-10.0779
-10.0681
-10.0611
-10.0568
-10.0553
-10.0561
-10.059
-10.0635
-10.0692
-10.0761
-10.0837
-10.0919
-10.1005
-10.1094
-10.1184
-10.1275
-10.1366
-10.1457
-10.1546
-10.1633
-10.1718
-10.18
-10.188
-10.1957
-10.2031
-10.2101
-10.2168
-10.2232
-10.2292
-10.2349
-10.1196
-10.1158
-10.0986
-10.0807
-10.067
-10.0572
-10.0511
-10.0485
-10.0487
-10.0512
-10.0555
-10.0612
-10.0681
-10.0757
-10.0839
-10.0926
-10.1015
-10.1105
-10.1196
-10.1287
-10.1376
-10.1464
-10.1551
-10.1634
-10.1715
-10.1794
-10.1869
-10.1941
-10.2009
-10.2074
-10.2136
-10.2194
-10.2248
-10.15
-10.1387
-10.1081
-10.0814
-10.0629
-10.0499
-10.042
-10.0385
-10.0383
-10.0407
-10.045
-10.0508
-10.0578
-10.0656
-10.074
-10.0827
-10.0917
-10.1009
-10.1101
-10.1192
-10.1281
-10.1369
-10.1455
-10.1539
-10.1619
-10.1697
-10.1771
-10.1842
-10.191
-10.1973
-10.2034
-10.209
-10.2143
-10.2049
-10.1766
-10.1215
-10.0806
-10.0544
-10.0368
-10.0269
-10.0229
-10.0228
-10.0256
-10.0305
-10.0371
-10.0448
-10.0532
-10.0621
-10.0714
-10.0809
-10.0903
-10.0998
-10.1091
-10.1182
-10.1272
-10.1358
-10.1442
-10.1522
-10.1599
-10.1673
-10.1743
-10.181
-10.1872
-10.1931
-10.1986
-10.2038
-10.2879
-10.2248
-10.1403
-10.0868
-10.0481
-10.02
-10.0048
-9.99831
-9.99655
-9.99845
-10.0034
-10.0104
-10.0189
-10.0283
-10.0384
-10.0488
-10.0594
-10.07
-10.0805
-10.0909
-10.101
-10.1108
-10.1202
-10.1293
-10.1381
-10.1464
-10.1543
-10.1618
-10.1689
-10.1756
-10.1818
-10.1876
-10.193
-10.4381
-10.2046
-10.0752
-10.0619
-10.0472
-10.0297
-10.0238
-10.0233
-10.0236
-10.025
-10.0283
-10.0329
-10.0385
-10.0449
-10.0521
-10.0597
-10.0677
-10.0759
-10.0842
-10.0926
-10.101
-10.1092
-10.1173
-10.1251
-10.1327
-10.1401
-10.1471
-10.1539
-10.1603
-10.1663
-10.172
-10.1774
-10.1825
-11.3945
-10.1712
-9.58092
-9.50165
-9.51478
-9.55239
-9.60789
-9.66383
-9.71449
-9.76117
-9.80416
-9.84297
-9.8777
-9.90885
-9.9369
-9.96222
-9.98515
-10.006
-10.025
-10.0424
-10.0584
-10.0731
-10.0867
-10.0992
-10.1108
-10.1216
-10.1315
-10.1407
-10.1492
-10.157
-10.1642
-10.1707
-10.1766
-15.1635
-12.9607
-11.9295
-11.2932
-10.866
-10.6153
-10.4533
-10.3302
-10.238
-10.1736
-10.13
-10.1005
-10.0811
-10.0694
-10.0634
-10.0615
-10.0626
-10.0659
-10.0708
-10.0768
-10.0835
-10.0906
-10.0981
-10.1056
-10.1131
-10.1205
-10.1278
-10.1348
-10.1415
-10.1479
-10.154
-10.1598
-10.1654
-1.24984
-5.34251
-7.46631
-8.23883
-8.67766
-9.04137
-9.30754
-9.48378
-9.60785
-9.70374
-9.77925
-9.83822
-9.88495
-9.92312
-9.95504
-9.98217
-10.0056
-10.026
-10.0441
-10.0604
-10.075
-10.0884
-10.1006
-10.1118
-10.1222
-10.1317
-10.1405
-10.1487
-10.1562
-10.1631
-10.1695
-10.1753
-10.1806
-10.35
-10.1324
-10.421
-10.6902
-10.7942
-10.8263
-10.8374
-10.8345
-10.8243
-10.8164
-10.8175
-10.8308
-10.8574
-10.8967
-10.947
-11.0056
-11.0696
-11.1362
-11.2027
-11.2665
-11.3256
-11.3783
-11.4234
-11.4597
-11.4868
-11.5042
-11.5117
-11.5092
-11.4968
-11.4745
-11.4423
-11.4003
-11.3485
-11.2867
-11.215
-11.1331
-11.0409
-10.9383
-10.8249
-10.7007
-10.5653
-10.4185
-10.2602
-10.0902
-9.90833
-9.71454
-9.50887
-9.29141
-9.06239
-8.82212
-8.57106
-8.30978
-8.03899
-7.75953
-7.4724
-7.17867
-6.87957
-6.57639
-6.27052
-5.96339
-5.65647
-5.3512
-5.04905
-4.75138
-4.45954
-4.17473
-3.89807
-3.63053
-3.37294
-3.12598
-2.89019
-2.66593
-2.45345
-2.25284
-2.06408
-1.88706
-1.72153
-1.56717
-1.42358
-1.29029
-1.16681
-1.05262
-0.94715
-0.849871
-0.760233
-0.677707
-0.60178
-0.531968
-0.467795
-0.408855
-0.354666
-0.304992
-0.259101
-0.217401
-0.177757
-0.14356
-0.106026
-0.0824361
-0.0341037
-0.0420717
-10.3962
-10.3941
-10.5879
-10.7328
-10.7646
-10.7585
-10.7504
-10.7407
-10.7315
-10.7296
-10.7392
-10.7613
-10.7957
-10.841
-10.8955
-10.9567
-11.0221
-11.0893
-11.1557
-11.2192
-11.2779
-11.3301
-11.3748
-11.4108
-11.4376
-11.4549
-11.4623
-11.4598
-11.4475
-11.4252
-11.3932
-11.3513
-11.2996
-11.238
-11.1664
-11.0847
-10.9928
-10.8904
-10.7774
-10.6535
-10.5186
-10.3724
-10.2148
-10.0456
-9.86469
-9.67202
-9.46763
-9.25164
-9.02428
-8.78586
-8.53683
-8.27777
-8.00938
-7.73247
-7.44802
-7.15708
-6.86085
-6.5606
-6.25767
-5.95345
-5.64938
-5.34688
-5.04735
-4.75218
-4.46263
-4.17993
-3.90515
-3.63928
-3.38313
-3.13738
-2.90257
-2.67907
-2.46715
-2.26691
-2.07835
-1.90136
-1.73572
-1.58112
-1.43718
-1.30347
-1.17948
-1.06472
-0.958643
-0.860721
-0.770417
-0.687211
-0.610594
-0.54009
-0.475224
-0.415592
-0.36071
-0.310351
-0.263756
-0.221397
-0.180983
-0.146288
-0.107636
-0.0845581
-0.0330386
-0.047229
-10.4086
-10.4226
-10.5094
-10.6105
-10.6672
-10.6957
-10.7145
-10.7246
-10.7278
-10.7309
-10.7392
-10.7558
-10.782
-10.8183
-10.864
-10.9177
-10.9772
-11.04
-11.1034
-11.165
-11.2226
-11.2743
-11.3186
-11.3546
-11.3814
-11.3988
-11.4065
-11.4043
-11.3923
-11.3704
-11.3387
-11.2971
-11.2458
-11.1845
-11.1133
-11.032
-10.9405
-10.8385
-10.726
-10.6027
-10.4685
-10.3231
-10.1663
-9.99814
-9.81838
-9.62703
-9.42414
-9.20984
-8.98434
-8.74797
-8.50118
-8.24453
-7.97871
-7.70453
-7.42292
-7.13493
-6.84171
-6.5445
-6.24462
-5.94342
-5.6423
-5.34265
-5.04585
-4.75324
-4.46607
-4.18554
-3.91273
-3.64858
-3.39392
-3.14943
-2.91565
-2.69296
-2.48163
-2.28179
-2.09344
-1.91649
-1.75074
-1.5959
-1.4516
-1.31743
-1.19291
-1.07755
-0.970833
-0.872229
-0.781218
-0.697288
-0.619938
-0.548696
-0.483091
-0.422723
-0.367103
-0.316015
-0.268676
-0.22561
-0.184401
-0.149148
-0.1094
-0.0866957
-0.0321917
-0.0521458
-10.4123
-10.4365
-10.5041
-10.5976
-10.661
-10.6906
-10.705
-10.7117
-10.714
-10.7174
-10.7265
-10.7438
-10.7703
-10.8058
-10.8493
-10.8994
-10.954
-11.0111
-11.0685
-11.1243
-11.1766
-11.2238
-11.2648
-11.2982
-11.3235
-11.3399
-11.347
-11.3447
-11.3328
-11.3111
-11.2798
-11.2386
-11.1877
-11.1269
-11.0562
-10.9754
-10.8844
-10.7831
-10.6713
-10.5487
-10.4153
-10.2708
-10.1151
-9.94809
-9.76966
-9.57981
-9.37859
-9.16613
-8.94265
-8.70849
-8.46409
-8.20999
-7.94688
-7.67555
-7.3969
-7.11197
-6.82187
-6.52782
-6.23109
-5.933
-5.63493
-5.33822
-5.04424
-4.75427
-4.46958
-4.19132
-3.92054
-3.65821
-3.40513
-3.16197
-2.92928
-2.70747
-2.49678
-2.29738
-2.10927
-1.93239
-1.76654
-1.61147
-1.46681
-1.33217
-1.20711
-1.09113
-0.98373
-0.884411
-0.792655
-0.707961
-0.629835
-0.557811
-0.491422
-0.430272
-0.373871
-0.322007
-0.273883
-0.230066
-0.188028
-0.152165
-0.111321
-0.0888881
-0.031528
-0.0568691
-10.4164
-10.4472
-10.5032
-10.5754
-10.6282
-10.6563
-10.6733
-10.6855
-10.6945
-10.7036
-10.7165
-10.7354
-10.7614
-10.7947
-10.8348
-10.8805
-10.9305
-10.9828
-11.0356
-11.087
-11.1353
-11.1789
-11.2165
-11.2471
-11.2698
-11.2842
-11.2897
-11.2862
-11.2734
-11.2512
-11.2195
-11.1783
-11.1275
-11.0669
-10.9965
-10.9162
-10.8257
-10.725
-10.6138
-10.4921
-10.3595
-10.216
-10.0615
-9.89573
-9.71873
-9.53047
-9.33101
-9.12049
-8.89914
-8.66728
-8.42536
-8.17391
-7.9136
-7.64521
-7.36962
-7.08784
-6.80096
-6.51015
-6.21666
-5.92179
-5.62686
-5.3332
-5.04214
-4.75494
-4.47282
-4.19694
-3.92832
-3.66791
-3.4165
-3.17478
-2.94328
-2.72241
-2.51245
-2.31355
-2.12574
-1.94896
-1.78306
-1.62776
-1.48276
-1.34766
-1.22203
-1.10542
-0.997326
-0.897264
-0.804732
-0.719237
-0.640296
-0.567449
-0.500233
-0.438257
-0.381029
-0.328346
-0.279394
-0.234779
-0.191882
-0.155353
-0.113415
-0.0911379
-0.0310715
-0.0613496
-10.4192
-10.4514
-10.4982
-10.5556
-10.6028
-10.6333
-10.654
-10.6696
-10.6817
-10.6932
-10.7074
-10.7264
-10.7513
-10.7825
-10.8196
-10.8616
-10.9074
-10.9552
-11.0034
-11.0504
-11.0945
-11.1343
-11.1686
-11.1963
-11.2167
-11.229
-11.233
-11.2282
-11.2144
-11.1914
-11.1592
-11.1176
-11.0666
-11.0059
-10.9356
-10.8554
-10.7653
-10.665
-10.5544
-10.4333
-10.3016
-10.1591
-10.0056
-9.84116
-9.6656
-9.47895
-9.28128
-9.07274
-8.85355
-8.62405
-8.38467
-8.13593
-7.87849
-7.61311
-7.34067
-7.06212
-6.77854
-6.49107
-6.20093
-5.90939
-5.61772
-5.32724
-5.03922
-4.75492
-4.47552
-4.20214
-3.93581
-3.67744
-3.42784
-3.18766
-2.95746
-2.73764
-2.52848
-2.33016
-2.14272
-1.96611
-1.80018
-1.64471
-1.49938
-1.36383
-1.23765
-1.12039
-1.0116
-0.910772
-0.817437
-0.731112
-0.651322
-0.577614
-0.509532
-0.446687
-0.388591
-0.335044
-0.285223
-0.239764
-0.195975
-0.158723
-0.115697
-0.0934418
-0.0308542
-0.0655251
-10.4205
-10.4519
-10.4927
-10.5403
-10.5825
-10.613
-10.635
-10.6523
-10.6668
-10.6806
-10.6963
-10.7159
-10.7403
-10.7698
-10.8043
-10.843
-10.8848
-10.9284
-10.9722
-11.0148
-11.0547
-11.0907
-11.1215
-11.1461
-11.1638
-11.1739
-11.176
-11.1697
-11.1547
-11.1308
-11.0979
-11.0558
-11.0044
-10.9436
-10.8732
-10.7931
-10.7032
-10.6032
-10.4931
-10.3726
-10.2416
-10.1
-9.9476
-9.78434
-9.61018
-9.42513
-9.22925
-9.0227
-8.8057
-8.57859
-8.34178
-8.0958
-7.8413
-7.579
-7.30977
-7.03455
-6.75437
-6.47035
-6.18368
-5.89558
-5.60731
-5.32014
-5.0353
-4.75403
-4.47748
-4.20675
-3.94284
-3.68665
-3.43897
-3.20047
-2.97168
-2.75301
-2.54476
-2.3471
-2.1601
-1.98372
-1.81783
-1.66222
-1.5166
-1.38062
-1.25391
-1.13602
-1.02651
-0.924909
-0.830755
-0.743575
-0.662907
-0.588305
-0.51932
-0.455569
-0.396564
-0.342111
-0.291381
-0.245033
-0.20032
-0.162283
-0.118181
-0.095799
-0.0309015
-0.0693432
-10.4204
-10.4505
-10.4867
-10.5274
-10.5649
-10.5943
-10.6171
-10.6359
-10.6521
-10.6677
-10.6847
-10.7045
-10.7283
-10.7562
-10.7883
-10.8238
-10.862
-10.9016
-10.9413
-10.9798
-11.0158
-11.048
-11.0753
-11.0968
-11.1118
-11.1195
-11.1196
-11.1115
-11.0951
-11.07
-11.0361
-10.9933
-10.9414
-10.8801
-10.8095
-10.7294
-10.6395
-10.5398
-10.43
-10.31
-10.1797
-10.0389
-9.88749
-9.72542
-9.55264
-9.36916
-9.17506
-8.9705
-8.75571
-8.531
-8.2968
-8.05363
-7.80212
-7.54297
-7.27703
-7.00521
-6.72853
-6.44807
-6.16497
-5.88043
-5.59567
-5.31192
-5.03039
-4.75227
-4.4787
-4.21074
-3.94938
-3.69549
-3.44986
-3.21314
-2.98586
-2.76845
-2.5612
-2.36429
-2.17781
-2.00172
-1.83593
-1.68023
-1.53436
-1.39799
-1.27075
-1.15224
-1.04202
-0.939644
-0.844659
-0.756608
-0.675037
-0.599514
-0.529595
-0.464902
-0.404952
-0.349553
-0.297876
-0.250593
-0.204927
-0.166044
-0.120879
-0.0982093
-0.0312334
-0.0727595
-10.4193
-10.4478
-10.4804
-10.5159
-10.5494
-10.5775
-10.6005
-10.6201
-10.6376
-10.6544
-10.6721
-10.6921
-10.7151
-10.7416
-10.7714
-10.8041
-10.8388
-10.8747
-10.9106
-10.9451
-10.9773
-11.0058
-11.0298
-11.0482
-11.0604
-11.0657
-11.0636
-11.0538
-11.0358
-11.0094
-10.9744
-10.9307
-10.878
-10.8163
-10.7453
-10.6649
-10.575
-10.4753
-10.3658
-10.2462
-10.1165
-9.9764
-9.82594
-9.665
-9.49354
-9.31161
-9.11927
-8.91668
-8.70408
-8.4818
-8.25023
-8.00989
-7.7614
-7.50545
-7.24285
-6.9745
-6.70138
-6.42454
-6.14509
-5.8642
-5.58304
-5.3028
-5.02468
-4.74981
-4.47932
-4.21423
-3.95551
-3.70402
-3.46053
-3.22569
-3.00002
-2.78394
-2.57777
-2.38169
-2.19579
-2.02007
-1.85442
-1.69868
-1.5526
-1.41586
-1.28813
-1.16901
-1.05809
-0.954943
-0.859121
-0.770185
-0.687696
-0.611229
-0.540349
-0.474683
-0.413754
-0.357372
-0.304712
-0.256452
-0.209803
-0.170011
-0.123799
-0.100673
-0.0318644
-0.0757373
-10.4173
-10.4441
-10.4738
-10.5053
-10.5355
-10.5621
-10.5849
-10.6049
-10.6231
-10.6407
-10.6589
-10.6787
-10.701
-10.7259
-10.7536
-10.7836
-10.8152
-10.8475
-10.8797
-10.9105
-10.939
-10.964
-10.9847
-11.0001
-11.0095
-11.0124
-11.0082
-10.9964
-10.9768
-10.949
-10.9129
-10.8682
-10.8147
-10.7524
-10.6809
-10.6002
-10.5101
-10.4105
-10.3011
-10.1818
-10.0526
-9.91322
-9.76364
-9.60377
-9.4336
-9.25317
-9.06255
-8.86192
-8.65151
-8.43163
-8.20269
-7.96519
-7.71973
-7.46699
-7.20776
-6.94291
-6.67339
-6.40021
-6.12446
-5.84726
-5.56975
-5.2931
-5.01844
-4.74689
-4.47954
-4.21739
-3.96139
-3.71237
-3.47109
-3.23819
-3.0142
-2.79954
-2.59451
-2.39931
-2.21405
-2.03874
-1.87329
-1.71755
-1.57129
-1.43422
-1.30602
-1.18631
-1.0747
-0.970774
-0.874112
-0.784284
-0.700862
-0.623432
-0.551567
-0.484901
-0.422964
-0.365565
-0.31189
-0.262612
-0.214954
-0.17419
-0.126946
-0.10319
-0.0328034
-0.0782489
-10.4145
-10.4396
-10.4668
-10.4952
-10.5228
-10.5478
-10.5701
-10.5901
-10.6086
-10.6266
-10.6449
-10.6644
-10.6858
-10.7093
-10.7349
-10.7623
-10.7909
-10.82
-10.8486
-10.8759
-10.9008
-10.9224
-10.9398
-10.9523
-10.959
-10.9594
-10.953
-10.9393
-10.918
-10.8888
-10.8515
-10.8058
-10.7515
-10.6885
-10.6165
-10.5355
-10.4452
-10.3455
-10.2362
-10.1173
-9.98848
-9.84977
-9.70102
-9.54221
-9.3733
-9.19435
-9.00545
-8.80676
-8.59851
-8.38103
-8.15471
-7.92005
-7.67762
-7.4281
-7.17224
-6.91089
-6.64498
-6.37549
-6.10345
-5.82997
-5.55614
-5.28309
-5.01193
-4.74375
-4.47958
-4.22042
-3.96718
-3.72068
-3.48166
-3.25076
-3.0285
-2.81529
-2.61145
-2.41719
-2.23261
-2.05775
-1.89254
-1.73683
-1.59042
-1.45304
-1.32438
-1.2041
-1.0918
-0.987111
-0.889608
-0.798881
-0.714515
-0.636106
-0.563237
-0.495547
-0.432574
-0.374129
-0.319407
-0.269073
-0.22038
-0.178583
-0.130325
-0.105759
-0.0340529
-0.0802764
-10.4109
-10.4345
-10.4596
-10.4854
-10.5107
-10.5342
-10.5557
-10.5755
-10.594
-10.612
-10.6302
-10.6493
-10.6698
-10.6918
-10.7154
-10.7403
-10.7661
-10.792
-10.8173
-10.8412
-10.8627
-10.881
-10.8953
-10.9047
-10.9088
-10.9067
-10.8981
-10.8825
-10.8595
-10.8289
-10.7903
-10.7435
-10.6883
-10.6246
-10.5521
-10.4707
-10.3802
-10.2804
-10.1713
-10.0526
-9.92433
-9.78626
-9.63836
-9.48059
-9.31294
-9.13547
-8.94827
-8.75152
-8.54544
-8.33035
-8.10665
-7.87482
-7.63542
-7.38911
-7.13662
-6.87878
-6.61648
-6.35067
-6.08236
-5.8126
-5.54246
-5.27304
-5.00539
-4.74059
-4.47963
-4.22348
-3.97303
-3.72908
-3.49236
-3.26349
-3.04299
-2.83127
-2.62865
-2.43536
-2.25151
-2.07713
-1.91217
-1.75652
-1.60998
-1.47231
-1.34322
-1.22236
-1.1094
-1.00394
-0.905589
-0.813957
-0.728636
-0.649234
-0.575343
-0.506608
-0.442575
-0.383055
-0.327259
-0.275833
-0.226081
-0.183191
-0.133935
-0.108382
-0.0356093
-0.0818128
-10.4066
-10.4287
-10.452
-10.4757
-10.499
-10.5212
-10.5418
-10.561
-10.5793
-10.5971
-10.615
-10.6334
-10.6528
-10.6734
-10.695
-10.7176
-10.7406
-10.7636
-10.7857
-10.8063
-10.8245
-10.8396
-10.8509
-10.8575
-10.8588
-10.8544
-10.8436
-10.826
-10.8013
-10.7692
-10.7293
-10.6814
-10.6254
-10.5609
-10.4879
-10.4061
-10.3153
-10.2155
-10.1065
-9.98812
-9.86027
-9.72286
-9.57581
-9.41909
-9.25272
-9.07673
-8.89125
-8.69643
-8.49252
-8.27983
-8.05875
-7.82975
-7.59338
-7.35027
-7.10115
-6.84681
-6.58812
-6.32598
-6.06139
-5.79536
-5.52892
-5.26311
-4.99899
-4.73757
-4.47983
-4.22671
-3.97906
-3.73768
-3.50328
-3.27646
-3.05775
-2.84755
-2.64618
-2.45388
-2.27077
-2.09689
-1.93222
-1.77664
-1.62999
-1.49204
-1.36252
-1.2411
-1.12746
-1.02124
-0.922041
-0.829497
-0.743212
-0.662803
-0.587873
-0.518072
-0.452958
-0.392336
-0.33544
-0.282888
-0.232054
-0.188013
-0.137774
-0.111057
-0.0374626
-0.0828616
-10.4015
-10.4224
-10.444
-10.4659
-10.4875
-10.5083
-10.528
-10.5466
-10.5644
-10.5818
-10.5991
-10.6168
-10.6351
-10.6541
-10.6739
-10.6942
-10.7146
-10.7347
-10.7538
-10.7713
-10.7864
-10.7984
-10.8067
-10.8105
-10.8092
-10.8024
-10.7894
-10.7699
-10.7435
-10.7098
-10.6686
-10.6196
-10.5627
-10.4975
-10.4238
-10.3416
-10.2507
-10.1508
-10.0419
-9.92384
-9.79647
-9.65972
-9.51353
-9.35788
-9.19279
-9.0183
-8.83454
-8.64168
-8.43995
-8.22967
-8.01121
-7.78503
-7.55169
-7.31179
-7.06603
-6.81518
-6.56008
-6.30162
-6.04074
-5.77842
-5.51566
-5.25347
-4.99287
-4.73483
-4.48031
-4.23022
-3.98539
-3.74659
-3.51451
-3.28976
-3.07285
-2.86418
-2.66408
-2.47278
-2.29043
-2.11707
-1.9527
-1.79721
-1.65046
-1.51223
-1.38228
-1.26031
-1.146
-1.039
-0.938958
-0.845493
-0.758232
-0.676802
-0.600815
-0.529931
-0.463713
-0.401965
-0.343945
-0.290233
-0.238296
-0.193047
-0.141837
-0.113784
-0.0395973
-0.0834369
-10.3958
-10.4154
-10.4355
-10.4559
-10.4761
-10.4956
-10.5143
-10.5321
-10.5493
-10.5661
-10.5827
-10.5994
-10.6165
-10.6341
-10.652
-10.6701
-10.688
-10.7054
-10.7217
-10.7362
-10.7483
-10.7574
-10.7628
-10.7638
-10.76
-10.7508
-10.7357
-10.7142
-10.6861
-10.6509
-10.6084
-10.5583
-10.5004
-10.4344
-10.3602
-10.2776
-10.1865
-10.0865
-9.97776
-9.85997
-9.73308
-9.59701
-9.4517
-9.29714
-9.13334
-8.96037
-8.77835
-8.58745
-8.3879
-8.18003
-7.96419
-7.74085
-7.51052
-7.27382
-7.03141
-6.78405
-6.53253
-6.27772
-6.02054
-5.76192
-5.50283
-5.24425
-4.98715
-4.73249
-4.48118
-4.23411
-3.99209
-3.75587
-3.52613
-3.30345
-3.08834
-2.88121
-2.68239
-2.49211
-2.31052
-2.13769
-1.97362
-1.81823
-1.67138
-1.53289
-1.40252
-1.28
-1.16501
-1.05724
-0.95633
-0.861935
-0.773686
-0.69122
-0.614162
-0.542174
-0.474831
-0.411934
-0.352765
-0.297864
-0.244801
-0.19829
-0.146119
-0.116565
-0.0419926
-0.0835628
-10.3893
-10.4078
-10.4267
-10.4457
-10.4645
-10.4828
-10.5005
-10.5175
-10.5339
-10.5499
-10.5657
-10.5815
-10.5973
-10.6133
-10.6294
-10.6454
-10.661
-10.6758
-10.6893
-10.701
-10.7103
-10.7165
-10.7191
-10.7176
-10.7113
-10.6998
-10.6825
-10.6591
-10.6293
-10.5926
-10.5488
-10.4975
-10.4387
-10.372
-10.2972
-10.2142
-10.1228
-10.0228
-9.91418
-9.7967
-9.67031
-9.53493
-9.39051
-9.23705
-9.07456
-8.90312
-8.72284
-8.53391
-8.33656
-8.1311
-7.91789
-7.69737
-7.47006
-7.23655
-6.99748
-6.75358
-6.50563
-6.25445
-6.00094
-5.746
-5.49056
-5.23556
-4.98195
-4.73065
-4.48254
-4.23848
-3.99926
-3.76561
-3.53819
-3.31759
-3.10428
-2.8987
-2.70115
-2.51189
-2.33107
-2.15878
-1.99501
-1.83972
-1.69278
-1.55402
-1.42323
-1.30015
-1.18448
-1.07593
-0.974152
-0.878816
-0.789566
-0.706051
-0.627904
-0.554793
-0.486306
-0.422237
-0.361896
-0.305775
-0.251565
-0.20374
-0.150612
-0.1194
-0.0446238
-0.0832719
-10.3823
-10.3997
-10.4174
-10.4352
-10.4528
-10.47
-10.4866
-10.5027
-10.5183
-10.5334
-10.5483
-10.563
-10.5775
-10.592
-10.6063
-10.6203
-10.6336
-10.646
-10.6569
-10.6659
-10.6724
-10.6759
-10.6759
-10.6718
-10.6631
-10.6493
-10.63
-10.6048
-10.5732
-10.535
-10.4899
-10.4376
-10.3778
-10.3103
-10.235
-10.1516
-10.0599
-9.95993
-9.8514
-9.73425
-9.60836
-9.47369
-9.33018
-9.17782
-9.01666
-8.84675
-8.66824
-8.48129
-8.28614
-8.08309
-7.8725
-7.6548
-7.43049
-7.20015
-6.9644
-6.72394
-6.47953
-6.23197
-5.9821
-5.7308
-5.47898
-5.22754
-4.97739
-4.72942
-4.48448
-4.24341
-4.00697
-3.77588
-3.55077
-3.33222
-3.12072
-2.91667
-2.7204
-2.53216
-2.35211
-2.18034
-2.01688
-1.86169
-1.71466
-1.57563
-1.44441
-1.32076
-1.20441
-1.09507
-0.992416
-0.896128
-0.805864
-0.721284
-0.642031
-0.567779
-0.498128
-0.432864
-0.371329
-0.31396
-0.258581
-0.209391
-0.155307
-0.122292
-0.0474626
-0.0826042
-10.3747
-10.3912
-10.4078
-10.4244
-10.4408
-10.4569
-10.4726
-10.4877
-10.5024
-10.5166
-10.5304
-10.544
-10.5572
-10.5702
-10.5828
-10.5948
-10.6059
-10.6159
-10.6244
-10.6308
-10.6348
-10.6357
-10.6332
-10.6266
-10.6156
-10.5997
-10.5783
-10.5513
-10.518
-10.4784
-10.432
-10.3785
-10.3178
-10.2496
-10.1737
-10.0899
-9.99807
-9.89803
-9.78965
-9.67283
-9.54747
-9.41352
-9.27092
-9.11969
-8.95986
-8.79151
-8.61476
-8.42979
-8.23684
-8.0362
-7.82822
-7.61333
-7.39201
-7.16482
-6.93236
-6.69532
-6.45442
-6.21043
-5.96417
-5.71648
-5.46824
-5.22032
-4.97359
-4.72891
-4.48712
-4.249
-4.01532
-3.78675
-3.56394
-3.34743
-3.13771
-2.93518
-2.74017
-2.55293
-2.37364
-2.2024
-2.03924
-1.88414
-1.73701
-1.59771
-1.46606
-1.34183
-1.22479
-1.11465
-1.01111
-0.913857
-0.822565
-0.736906
-0.656531
-0.581121
-0.510286
-0.443806
-0.381055
-0.322411
-0.26584
-0.21524
-0.160192
-0.125243
-0.0504779
-0.0816046
-10.3666
-10.3821
-10.3977
-10.4133
-10.4286
-10.4437
-10.4584
-10.4725
-10.4862
-10.4995
-10.5122
-10.5246
-10.5365
-10.548
-10.5588
-10.5689
-10.578
-10.5858
-10.5919
-10.5959
-10.5974
-10.596
-10.591
-10.5822
-10.5689
-10.5509
-10.5276
-10.4987
-10.4639
-10.4228
-10.3751
-10.3206
-10.259
-10.1901
-10.1136
-10.0295
-9.93742
-9.83736
-9.72915
-9.61268
-9.48787
-9.35465
-9.21299
-9.0629
-8.90441
-8.73762
-8.56264
-8.37965
-8.1889
-7.99066
-7.78528
-7.57318
-7.35483
-7.13076
-6.90157
-6.6679
-6.43047
-6.19001
-5.94731
-5.70319
-5.45849
-5.21404
-4.97068
-4.72925
-4.49055
-4.25536
-4.02439
-3.79832
-3.57776
-3.36326
-3.15529
-2.95426
-2.7605
-2.57425
-2.39571
-2.22497
-2.06211
-1.90708
-1.75984
-1.62025
-1.48816
-1.36336
-1.24561
-1.13466
-1.03022
-0.931989
-0.839657
-0.752902
-0.671389
-0.594803
-0.522767
-0.455051
-0.391062
-0.331118
-0.273331
-0.221278
-0.165254
-0.128254
-0.0536363
-0.080321
-10.3581
-10.3727
-10.3873
-10.4019
-10.4163
-10.4303
-10.444
-10.4572
-10.4699
-10.4821
-10.4938
-10.5049
-10.5155
-10.5255
-10.5347
-10.543
-10.5501
-10.5558