/*--------------------------------*- C++ -*----------------------------------*\
| =========                 |                                                 |
| \\      /  F ield         | OpenFOAM: The Open Source CFD Toolbox           |
|  \\    /   O peration     | Version:  4.1                                   |
|   \\  /    A nd           | Web:      www.OpenFOAM.org                      |
|    \\/     M anipulation  |                                                 |
\*---------------------------------------------------------------------------*/
FoamFile
{
    version     2.0;
    format      ascii;
    class       surfaceScalarField;
    location    "1600";
    object      phi;
}
// * * * * * * * * * * * * * * * * * * * * * * * * * * * * * * * * * * * * * //

dimensions      [0 3 -1 0 0 0 0];

internalField   nonuniform List<scalar> 
13452
(
6.28704e-05
-2.60189e-06
6.37403e-05
-8.69978e-07
6.46286e-05
-8.88284e-07
6.41051e-05
5.23567e-07
6.28898e-05
1.21528e-06
6.15446e-05
1.34522e-06
6.02725e-05
1.27201e-06
5.9114e-05
1.15859e-06
5.80687e-05
1.04526e-06
5.71284e-05
9.40316e-07
5.62816e-05
8.46806e-07
5.55162e-05
7.65364e-07
5.48215e-05
6.94765e-07
5.41882e-05
6.33219e-07
5.36091e-05
5.79178e-07
5.30776e-05
5.31445e-07
5.25885e-05
4.89058e-07
5.21373e-05
4.51227e-07
5.172e-05
4.17306e-07
5.13332e-05
3.86773e-07
5.0974e-05
3.59201e-07
5.06398e-05
3.3424e-07
5.03282e-05
3.11602e-07
5.00371e-05
2.91057e-07
4.97647e-05
2.72429e-07
4.95091e-05
2.55596e-07
4.92686e-05
2.4051e-07
4.90414e-05
2.27187e-07
4.88255e-05
2.15897e-07
4.8619e-05
2.06551e-07
4.84183e-05
2.00668e-07
4.82277e-05
1.9057e-07
1.78956e-07
4.80488e-05
6.30682e-05
-3.67972e-06
6.27994e-05
-6.01195e-07
6.21233e-05
-2.12206e-07
6.23359e-05
3.10955e-07
6.27935e-05
7.57652e-07
6.31929e-05
9.45846e-07
6.34611e-05
1.00379e-06
6.36058e-05
1.01392e-06
6.36526e-05
9.98452e-07
6.36274e-05
9.65566e-07
6.35508e-05
9.23338e-07
6.34383e-05
8.77858e-07
6.33009e-05
8.322e-07
6.31465e-05
7.87653e-07
6.29808e-05
7.44867e-07
6.2808e-05
7.04213e-07
6.26312e-05
6.65844e-07
6.24527e-05
6.29769e-07
6.22741e-05
5.95922e-07
6.20966e-05
5.64209e-07
6.19213e-05
5.34525e-07
6.17488e-05
5.06759e-07
6.15796e-05
4.80811e-07
6.1414e-05
4.56592e-07
6.12524e-05
4.34038e-07
6.10949e-05
4.1311e-07
6.09416e-05
3.93827e-07
6.07926e-05
3.76206e-07
6.06479e-05
3.60535e-07
6.05081e-05
3.46389e-07
6.03732e-05
3.3555e-07
6.02417e-05
3.22101e-07
3.32389e-07
6.00883e-05
6.23306e-05
-2.24888e-06
6.26619e-05
-9.32551e-07
6.281e-05
-3.60288e-07
6.30954e-05
2.55479e-08
6.34246e-05
4.28507e-07
6.37126e-05
6.57835e-07
6.39516e-05
7.64732e-07
6.41451e-05
8.20433e-07
6.42964e-05
8.47196e-07
6.44106e-05
8.51307e-07
6.4494e-05
8.39985e-07
6.4552e-05
8.19838e-07
6.45894e-05
7.94825e-07
6.461e-05
7.67064e-07
6.46169e-05
7.37913e-07
6.46128e-05
7.08339e-07
6.45997e-05
6.78979e-07
6.45792e-05
6.50224e-07
6.45528e-05
6.22316e-07
6.45216e-05
5.95407e-07
6.44866e-05
5.69589e-07
6.44484e-05
5.44917e-07
6.44078e-05
5.21421e-07
6.43653e-05
4.99123e-07
6.43212e-05
4.78053e-07
6.42761e-05
4.5825e-07
6.42301e-05
4.39798e-07
6.41836e-05
4.22777e-07
6.41366e-05
4.07464e-07
6.40893e-05
3.93744e-07
6.40419e-05
3.82959e-07
6.39906e-05
3.73348e-07
3.77672e-07
6.39453e-05
6.47767e-05
-1.44247e-06
6.47349e-05
-8.90753e-07
6.47849e-05
-4.10335e-07
6.48931e-05
-8.26464e-08
6.5057e-05
2.64657e-07
6.52215e-05
4.93345e-07
6.53726e-05
6.13541e-07
6.55095e-05
6.83607e-07
6.56307e-05
7.25998e-07
6.57358e-05
7.46179e-07
6.58257e-05
7.50085e-07
6.59018e-05
7.43694e-07
6.59658e-05
7.30831e-07
6.60192e-05
7.13682e-07
6.60634e-05
6.93736e-07
6.60996e-05
6.7211e-07
6.6129e-05
6.49595e-07
6.61525e-05
6.26729e-07
6.61709e-05
6.03884e-07
6.6185e-05
5.81327e-07
6.61954e-05
5.5925e-07
6.62025e-05
5.37791e-07
6.62068e-05
5.17057e-07
6.62088e-05
4.97134e-07
6.62088e-05
4.78104e-07
6.6207e-05
4.60056e-07
6.62037e-05
4.43105e-07
6.61991e-05
4.27374e-07
6.61934e-05
4.13111e-07
6.61868e-05
4.00413e-07
6.61795e-05
3.90207e-07
6.61706e-05
3.82277e-07
3.82137e-07
6.61661e-05
6.70079e-05
-9.93574e-07
6.68589e-05
-7.41784e-07
6.68315e-05
-3.82869e-07
6.68578e-05
-1.09013e-07
6.69422e-05
1.80286e-07
6.70457e-05
3.89798e-07
6.7148e-05
5.11313e-07
6.72451e-05
5.86512e-07
6.73358e-05
6.35292e-07
6.74189e-05
6.63045e-07
6.74941e-05
6.74929e-07
6.75615e-05
6.76223e-07
6.76219e-05
6.70468e-07
6.76758e-05
6.5979e-07
6.77238e-05
6.45683e-07
6.77667e-05
6.29282e-07
6.78048e-05
6.11416e-07
6.78389e-05
5.92674e-07
6.78693e-05
5.73482e-07
6.78965e-05
5.54157e-07
6.79208e-05
5.34936e-07
6.79426e-05
5.16001e-07
6.79621e-05
4.97496e-07
6.79797e-05
4.79538e-07
6.79956e-05
4.6224e-07
6.80099e-05
4.45709e-07
6.8023e-05
4.30072e-07
6.80349e-05
4.15461e-07
6.80459e-05
4.02086e-07
6.80562e-05
3.90111e-07
6.80663e-05
3.80115e-07
6.80764e-05
3.72196e-07
3.68358e-07
6.80902e-05
6.90833e-05
-6.92871e-07
6.89333e-05
-5.91805e-07
6.88863e-05
-3.35812e-07
6.88865e-05
-1.09241e-07
6.8934e-05
1.32776e-07
6.90039e-05
3.19951e-07
6.90771e-05
4.38067e-07
6.91489e-05
5.14749e-07
6.9218e-05
5.66155e-07
6.92834e-05
5.97686e-07
6.93443e-05
6.14042e-07
6.94006e-05
6.19881e-07
6.94526e-05
6.18457e-07
6.95006e-05
6.11833e-07
6.95448e-05
6.01478e-07
6.95855e-05
5.88514e-07
6.96232e-05
5.7377e-07
6.9658e-05
5.57853e-07
6.96903e-05
5.41209e-07
6.97203e-05
5.24178e-07
6.97482e-05
5.07018e-07
6.97743e-05
4.89931e-07
6.97987e-05
4.73077e-07
6.98216e-05
4.56592e-07
6.98433e-05
4.40595e-07
6.98638e-05
4.25201e-07
6.98833e-05
4.10528e-07
6.99021e-05
3.967e-07
6.99203e-05
3.83872e-07
6.99382e-05
3.72184e-07
6.99564e-05
3.61933e-07
6.99755e-05
3.53132e-07
3.46227e-07
6.99976e-05
7.11508e-05
-4.77351e-07
7.10202e-05
-4.61199e-07
7.09675e-05
-2.83114e-07
7.09558e-05
-9.75509e-08
7.09831e-05
1.05513e-07
7.10322e-05
2.70815e-07
7.10875e-05
3.82799e-07
7.11435e-05
4.58713e-07
7.11988e-05
5.10834e-07
7.12523e-05
5.44268e-07
7.1303e-05
5.63315e-07
7.13508e-05
5.72071e-07
7.13958e-05
5.73509e-07
7.1438e-05
5.69617e-07
7.14776e-05
5.61832e-07
7.15149e-05
5.51253e-07
7.15499e-05
5.38702e-07
7.1583e-05
5.24787e-07
7.16143e-05
5.09966e-07
7.16438e-05
4.94588e-07
7.16719e-05
4.78923e-07
7.16987e-05
4.63182e-07
7.17242e-05
4.47535e-07
7.17487e-05
4.32121e-07
7.17722e-05
4.17061e-07
7.1795e-05
4.02465e-07
7.18171e-05
3.88435e-07
7.18387e-05
3.7507e-07
7.18601e-05
3.62472e-07
7.18816e-05
3.50717e-07
7.19036e-05
3.39898e-07
7.19268e-05
3.29898e-07
3.20552e-07
7.19525e-05
7.32508e-05
-3.22851e-07
7.31391e-05
-3.49563e-07
7.30844e-05
-2.28392e-07
7.30656e-05
-7.87394e-08
7.30803e-05
9.08477e-08
7.31157e-05
2.35436e-07
7.31589e-05
3.39548e-07
7.32046e-05
4.13015e-07
7.32508e-05
4.64613e-07
7.32963e-05
4.98831e-07
7.33401e-05
5.19516e-07
7.33819e-05
5.30242e-07
7.34217e-05
5.337e-07
7.34595e-05
5.31781e-07
7.34955e-05
5.2588e-07
7.35297e-05
5.17066e-07
7.35622e-05
5.06146e-07
7.35933e-05
4.93729e-07
7.3623e-05
4.80274e-07
7.36514e-05
4.66138e-07
7.36788e-05
4.51595e-07
7.37051e-05
4.36862e-07
7.37305e-05
4.2211e-07
7.37551e-05
4.07479e-07
7.37791e-05
3.93087e-07
7.38025e-05
3.79032e-07
7.38256e-05
3.65399e-07
7.38484e-05
3.52257e-07
7.38712e-05
3.39659e-07
7.38943e-05
3.27615e-07
7.39181e-05
3.16095e-07
7.39431e-05
3.04896e-07
2.9366e-07
7.397e-05
7.5393e-05
-2.13413e-07
7.5299e-05
-2.55571e-07
7.5245e-05
-1.74404e-07
7.52219e-05
-5.56001e-08
7.5228e-05
8.4788e-08
7.52534e-05
2.09981e-07
7.52879e-05
3.05123e-07
7.5326e-05
3.74825e-07
7.53657e-05
4.24926e-07
7.54055e-05
4.59098e-07
7.54443e-05
4.80662e-07
7.54819e-05
4.92694e-07
7.5518e-05
4.97604e-07
7.55526e-05
4.97161e-07
7.55858e-05
4.927e-07
7.56176e-05
4.85252e-07
7.56481e-05
4.75606e-07
7.56775e-05
4.64361e-07
7.57058e-05
4.51978e-07
7.57331e-05
4.38814e-07
7.57595e-05
4.25146e-07
7.57852e-05
4.11192e-07
7.58102e-05
3.97123e-07
7.58346e-05
3.83077e-07
7.58585e-05
3.69164e-07
7.58821e-05
3.55471e-07
7.59054e-05
3.42065e-07
7.59287e-05
3.28987e-07
7.59521e-05
3.1625e-07
7.59759e-05
3.03819e-07
7.60004e-05
2.91593e-07
7.6026e-05
2.79344e-07
2.66689e-07
7.60529e-05
7.75831e-05
-1.36895e-07
7.75059e-05
-1.78413e-07
7.74552e-05
-1.23696e-07
7.74299e-05
-3.02892e-08
7.74298e-05
8.48534e-08
7.74477e-05
1.92099e-07
7.74752e-05
2.77652e-07
7.75074e-05
3.42577e-07
7.7542e-05
3.90358e-07
7.75773e-05
4.23781e-07
7.76124e-05
4.45592e-07
7.76467e-05
4.58396e-07
7.768e-05
4.64311e-07
7.77122e-05
4.64964e-07
7.77432e-05
4.61615e-07
7.77733e-05
4.55245e-07
7.78022e-05
4.46617e-07
7.78303e-05
4.36317e-07
7.78575e-05
4.24801e-07
7.78839e-05
4.12423e-07
7.79095e-05
3.99459e-07
7.79346e-05
3.86126e-07
7.79591e-05
3.72594e-07
7.79832e-05
3.58995e-07
7.8007e-05
3.45432e-07
7.80304e-05
3.31981e-07
7.80538e-05
3.18692e-07
7.80772e-05
3.05586e-07
7.81008e-05
2.92649e-07
7.81248e-05
2.79817e-07
7.81495e-05
2.66963e-07
7.81749e-05
2.53868e-07
2.40191e-07
7.82014e-05
7.98256e-05
-8.41775e-08
7.97641e-05
-1.16864e-07
7.97186e-05
-7.82513e-08
7.9693e-05
-4.72146e-09
7.96888e-05
8.91002e-08
7.97008e-05
1.80053e-07
7.97227e-05
2.55835e-07
7.975e-05
3.15271e-07
7.97803e-05
3.60053e-07
7.98119e-05
3.92114e-07
7.98439e-05
4.13621e-07
7.98756e-05
4.26725e-07
7.99066e-05
4.33258e-07
7.99369e-05
4.34686e-07
7.99663e-05
4.32177e-07
7.99949e-05
4.26653e-07
8.00227e-05
4.18842e-07
8.00497e-05
4.09311e-07
8.0076e-05
3.98506e-07
8.01017e-05
3.86775e-07
8.01267e-05
3.74389e-07
8.01513e-05
3.61562e-07
8.01754e-05
3.48461e-07
8.01992e-05
3.35213e-07
8.02227e-05
3.21913e-07
8.02461e-05
3.08628e-07
8.02694e-05
2.95394e-07
8.02927e-05
2.82219e-07
8.03163e-05
2.69072e-07
8.03403e-05
2.5588e-07
8.03647e-05
2.42516e-07
8.03898e-05
2.28786e-07
2.14415e-07
8.04156e-05
8.21247e-05
-4.84503e-08
8.2077e-05
-6.91557e-08
8.20381e-05
-3.93105e-08
8.20139e-05
1.94325e-08
8.20072e-05
9.58032e-08
8.20149e-05
1.72351e-07
8.20322e-05
2.38596e-07
8.20553e-05
2.9214e-07
8.20819e-05
3.33409e-07
8.21105e-05
3.63591e-07
8.21398e-05
3.8431e-07
8.21692e-05
3.97295e-07
8.21984e-05
4.04096e-07
8.2227e-05
4.0601e-07
8.22551e-05
4.04097e-07
8.22825e-05
3.99216e-07
8.23093e-05
3.92049e-07
8.23355e-05
3.8314e-07
8.23611e-05
3.72918e-07
8.23862e-05
3.61722e-07
8.24107e-05
3.49816e-07
8.24349e-05
3.37408e-07
8.24587e-05
3.24661e-07
8.24822e-05
3.11695e-07
8.25055e-05
2.98601e-07
8.25287e-05
2.85435e-07
8.25519e-05
2.72227e-07
8.25751e-05
2.58977e-07
8.25985e-05
2.45648e-07
8.26223e-05
2.32168e-07
8.26463e-05
2.18424e-07
8.26709e-05
2.04259e-07
1.89459e-07
8.26958e-05
8.4484e-05
-2.46539e-08
8.4448e-05
-3.32184e-08
8.44161e-05
-7.36102e-09
8.43946e-05
4.08813e-08
8.4387e-05
1.03436e-07
8.43917e-05
1.6763e-07
8.44054e-05
2.24937e-07
8.4425e-05
2.72492e-07
8.44485e-05
3.0992e-07
8.44743e-05
3.3782e-07
8.45013e-05
3.57343e-07
8.45287e-05
3.69838e-07
8.45562e-05
3.76591e-07
8.45835e-05
3.78725e-07
8.46104e-05
3.77188e-07
8.46369e-05
3.72763e-07
8.46628e-05
3.66085e-07
8.46883e-05
3.57668e-07
8.47133e-05
3.47918e-07
8.47379e-05
3.37161e-07
8.4762e-05
3.25654e-07
8.47858e-05
3.13596e-07
8.48094e-05
3.01144e-07
8.48326e-05
2.88413e-07
8.48558e-05
2.75487e-07
8.48788e-05
2.62418e-07
8.49018e-05
2.49232e-07
8.49248e-05
2.35924e-07
8.4948e-05
2.2246e-07
8.49714e-05
2.08778e-07
8.4995e-05
1.94784e-07
8.50189e-05
1.80358e-07
1.65341e-07
8.50431e-05
8.69066e-05
-9.09241e-09
8.68803e-05
-6.92791e-09
8.68552e-05
1.77458e-08
8.68373e-05
5.88074e-08
8.683e-05
1.10749e-07
8.68329e-05
1.64661e-07
8.6844e-05
2.13902e-07
8.68608e-05
2.55649e-07
8.68816e-05
2.89101e-07
8.6905e-05
3.14446e-07
8.69299e-05
3.32453e-07
8.69556e-05
3.44146e-07
8.69816e-05
3.50571e-07
8.70077e-05
3.52684e-07
8.70335e-05
3.51319e-07
8.70591e-05
3.47179e-07
8.70843e-05
3.40848e-07
8.71092e-05
3.32802e-07
8.71337e-05
3.23425e-07
8.71578e-05
3.13025e-07
8.71816e-05
3.01847e-07
8.72052e-05
2.90082e-07
8.72284e-05
2.7788e-07
8.72515e-05
2.6535e-07
8.72744e-05
2.52572e-07
8.72972e-05
2.39594e-07
8.732e-05
2.26441e-07
8.73428e-05
2.13108e-07
8.73657e-05
1.99568e-07
8.73887e-05
1.85773e-07
8.74119e-05
1.7165e-07
8.74351e-05
1.57112e-07
1.42046e-07
8.74584e-05
8.93956e-05
8.73451e-10
8.93769e-05
1.17097e-08
8.93581e-05
3.66081e-08
8.9344e-05
7.28648e-08
8.93379e-05
1.16833e-07
8.93402e-05
1.62407e-07
8.93495e-05
2.04608e-07
8.93642e-05
2.40942e-07
8.93828e-05
2.70466e-07
8.94042e-05
2.93115e-07
8.94272e-05
3.09381e-07
8.94513e-05
3.20025e-07
8.9476e-05
3.25887e-07
8.95009e-05
3.27768e-07
8.95259e-05
3.2639e-07
8.95507e-05
3.2238e-07
8.95753e-05
3.16264e-07
8.95996e-05
3.08481e-07
8.96236e-05
2.99386e-07
8.96474e-05
2.89269e-07
8.96709e-05
2.78361e-07
8.96941e-05
2.66843e-07
8.97171e-05
2.54856e-07
8.974e-05
2.42505e-07
8.97627e-05
2.29865e-07
8.97853e-05
2.16984e-07
8.98078e-05
2.03885e-07
8.98304e-05
1.90569e-07
8.98529e-05
1.77017e-07
8.98755e-05
1.63194e-07
8.98981e-05
1.49049e-07
8.99207e-05
1.34525e-07
1.19543e-07
8.99432e-05
9.19536e-05
7.09014e-09
9.19409e-05
2.44501e-08
9.19274e-05
5.00799e-08
9.19172e-05
8.31044e-08
9.19129e-05
1.2114e-07
9.19152e-05
1.60076e-07
9.19235e-05
1.96293e-07
9.19367e-05
2.27747e-07
9.19537e-05
2.53532e-07
9.19733e-05
2.7347e-07
9.19948e-05
2.87865e-07
9.20176e-05
2.97284e-07
9.20411e-05
3.02395e-07
9.2065e-05
3.03866e-07
9.2089e-05
3.02317e-07
9.21131e-05
2.98297e-07
9.21371e-05
2.92279e-07
9.21609e-05
2.84659e-07
9.21845e-05
2.75766e-07
9.22079e-05
2.65866e-07
9.22311e-05
2.55177e-07
9.22541e-05
2.43867e-07
9.22769e-05
2.3207e-07
9.22995e-05
2.19885e-07
9.2322e-05
2.07383e-07
9.23444e-05
1.94612e-07
9.23667e-05
1.81596e-07
9.23889e-05
1.68342e-07
9.24111e-05
1.54841e-07
9.24332e-05
1.4107e-07
9.24552e-05
1.27e-07
9.24772e-05
1.12591e-07
9.77981e-08
9.24989e-05
9.45834e-05
1.08254e-08
9.45751e-05
3.27631e-08
9.45661e-05
5.91094e-08
9.45593e-05
8.98601e-08
9.4557e-05
1.23453e-07
9.45599e-05
1.57142e-07
9.45679e-05
1.88358e-07
9.45801e-05
2.15518e-07
9.45958e-05
2.37853e-07
9.46141e-05
2.55162e-07
9.46343e-05
2.67643e-07
9.46559e-05
2.75728e-07
9.46783e-05
2.79952e-07
9.47013e-05
2.80872e-07
9.47246e-05
2.79019e-07
9.4748e-05
2.74871e-07
9.47715e-05
2.68847e-07
9.47948e-05
2.61304e-07
9.4818e-05
2.5254e-07
9.48411e-05
2.42802e-07
9.4864e-05
2.32287e-07
9.48867e-05
2.21154e-07
9.49093e-05
2.09528e-07
9.49316e-05
1.97502e-07
9.49539e-05
1.85145e-07
9.4976e-05
1.72503e-07
9.4998e-05
1.59604e-07
9.50199e-05
1.4646e-07
9.50416e-05
1.33069e-07
9.50633e-05
1.19424e-07
9.50848e-05
1.05508e-07
9.51061e-05
9.1303e-08
7.67805e-08
9.51271e-05
9.72874e-05
1.29387e-08
9.72823e-05
3.78359e-08
9.72768e-05
6.46282e-08
9.7273e-05
9.36373e-08
9.72727e-05
1.23819e-07
9.72765e-05
1.53337e-07
9.72844e-05
1.804e-07
9.72961e-05
2.03836e-07
9.73109e-05
2.2305e-07
9.73282e-05
2.37878e-07
9.73474e-05
2.48469e-07
9.73679e-05
2.55169e-07
9.73895e-05
2.58418e-07
9.74117e-05
2.58684e-07
9.74343e-05
2.56421e-07
9.74571e-05
2.52046e-07
9.748e-05
2.45929e-07
9.75029e-05
2.38389e-07
9.75258e-05
2.29694e-07
9.75485e-05
2.20067e-07
9.75711e-05
2.09691e-07
9.75935e-05
1.98712e-07
9.76158e-05
1.87245e-07
9.76379e-05
1.75377e-07
9.76599e-05
1.63176e-07
9.76817e-05
1.50686e-07
9.77034e-05
1.37938e-07
9.77249e-05
1.24949e-07
9.77463e-05
1.11727e-07
9.77674e-05
9.8272e-08
9.77883e-05
8.45808e-08
9.7809e-05
7.0649e-08
5.64626e-08
9.78293e-05
0.000100068
1.40065e-08
0.000100065
4.06021e-08
0.000100062
6.74871e-08
0.000100061
9.50186e-08
0.000100062
1.22473e-07
0.000100067
1.48611e-07
0.000100075
1.72204e-07
0.000100087
1.92421e-07
0.000100101
2.08841e-07
0.000100117
2.21364e-07
0.000100136
2.30133e-07
0.000100155
2.35442e-07
0.000100176
2.37666e-07
0.000100198
2.37206e-07
0.00010022
2.34455e-07
0.000100242
2.29776e-07
0.000100264
2.23495e-07
0.000100287
2.15895e-07
0.000100309
2.07217e-07
0.000100332
1.97663e-07
0.000100354
1.87397e-07
0.000100376
1.76553e-07
0.000100398
1.65237e-07
0.00010042
1.53532e-07
0.000100442
1.415e-07
0.000100463
1.29187e-07
0.000100485
1.16626e-07
0.000100506
1.03836e-07
0.000100527
9.08338e-08
0.000100547
7.76257e-08
0.000100568
6.42198e-08
0.000100588
5.0619e-08
3.68223e-08
0.000100607
0.000102928
1.44165e-08
0.000102926
4.17863e-08
0.000102926
6.84314e-08
0.000102926
9.46013e-08
0.000102929
1.19768e-07
0.000102934
1.43086e-07
0.000102943
1.6373e-07
0.000102954
1.81141e-07
0.000102968
1.95056e-07
0.000102984
2.05452e-07
0.000103001
2.12483e-07
0.00010302
2.16421e-07
0.00010304
2.17598e-07
0.000103061
2.16366e-07
0.000103083
2.13068e-07
0.000103104
2.08024e-07
0.000103126
2.01522e-07
0.000103148
1.93813e-07
0.000103171
1.8511e-07
0.000103193
1.75594e-07
0.000103215
1.65415e-07
0.000103236
1.54693e-07
0.000103258
1.43526e-07
0.00010328
1.3199e-07
0.000103301
1.20144e-07
0.000103322
1.08033e-07
0.000103343
9.56914e-08
0.000103364
8.31425e-08
0.000103384
7.04056e-08
0.000103404
5.74951e-08
0.000103424
4.4424e-08
0.000103444
3.12035e-08
1.78391e-08
0.000103463
0.000105869
1.44315e-08
0.000105869
4.195e-08
0.000105869
6.81006e-08
0.000105871
9.29626e-08
0.000105874
1.16124e-07
0.00010588
1.37009e-07
0.000105889
1.55082e-07
0.0001059
1.70002e-07
0.000105913
1.81646e-07
0.000105929
1.90064e-07
0.000105946
1.95439e-07
0.000105964
1.98035e-07
0.000105984
1.98156e-07
0.000106004
1.9612e-07
0.000106025
1.92232e-07
0.000106046
1.86776e-07
0.000106068
1.80006e-07
0.000106089
1.72144e-07
0.000106111
1.6338e-07
0.000106133
1.53876e-07
0.000106154
1.43765e-07
0.000106176
1.33155e-07
0.000106197
1.22135e-07
0.000106218
1.10776e-07
0.000106239
9.91321e-08
0.00010626
8.7248e-08
0.000106281
7.51562e-08
0.000106301
6.28848e-08
0.000106321
5.04536e-08
0.000106341
3.78837e-08
0.00010636
2.51901e-08
0.000106379
1.23907e-08
-5.06869e-10
0.000106397
0.000108894
1.42372e-08
0.000108894
4.15388e-08
0.000108895
6.70485e-08
0.000108897
9.06504e-08
0.000108901
1.12001e-07
0.000108908
1.30717e-07
0.000108916
1.46482e-07
0.000108927
1.59135e-07
0.00010894
1.68676e-07
0.000108955
1.75228e-07
0.000108971
1.79007e-07
0.000108989
1.8028e-07
0.000109008
1.79337e-07
0.000109028
1.76469e-07
0.000109048
1.71952e-07
0.000109069
1.6604e-07
0.00010909
1.58959e-07
0.000109111
1.50906e-07
0.000109132
1.42049e-07
0.000109154
1.3253e-07
0.000109175
1.22469e-07
0.000109196
1.11962e-07
0.000109217
1.01088e-07
0.000109238
8.99123e-08
0.000109259
7.84856e-08
0.000109279
6.68484e-08
0.000109299
5.50347e-08
0.000109319
4.30709e-08
0.000109339
3.0982e-08
0.000109358
1.87876e-08
0.000109376
6.50877e-09
0.000109395
-5.83744e-09
-1.82391e-08
0.000109412
0.000112005
1.39726e-08
0.000112005
4.09237e-08
0.000112007
6.57717e-08
0.000112009
8.8193e-08
0.000112013
1.07886e-07
0.000112019
1.24615e-07
0.000112028
1.38246e-07
0.000112038
1.48776e-07
0.00011205
1.56318e-07
0.000112064
1.61068e-07
0.00011208
1.63278e-07
0.000112097
1.63226e-07
0.000112115
1.61195e-07
0.000112134
1.57458e-07
0.000112154
1.52269e-07
0.000112174
1.45855e-07
0.000112195
1.38418e-07
0.000112216
1.30132e-07
0.000112236
1.21147e-07
0.000112257
1.11586e-07
0.000112278
1.01554e-07
0.000112299
9.11374e-08
0.00011232
8.04057e-08
0.00011234
6.94169e-08
0.000112361
5.82168e-08
0.000112381
4.68437e-08
0.0001124
3.53292e-08
0.00011242
2.37004e-08
0.000112439
1.19812e-08
0.000112457
1.93443e-10
0.000112475
-1.16424e-08
0.000112493
-2.35077e-08
-3.53902e-08
0.00011251
0.000115205
1.37567e-08
0.000115205
4.0444e-08
0.000115206
6.47494e-08
0.000115208
8.61277e-08
0.000115212
1.04305e-07
0.000115217
1.1918e-07
0.000115225
1.30785e-07
0.000115234
1.39265e-07
0.000115246
1.44847e-07
0.000115259
1.47804e-07
0.000115274
1.48428e-07
0.00011529
1.47015e-07
0.000115307
1.43847e-07
0.000115326
1.39184e-07
0.000115345
1.33261e-07
0.000115364
1.26285e-07
0.000115384
1.18436e-07
0.000115404
1.09868e-07
0.000115425
1.0071e-07
0.000115445
9.10712e-08
0.000115466
8.10422e-08
0.000115486
7.06974e-08
0.000115507
6.00975e-08
0.000115527
4.92929e-08
0.000115547
3.83238e-08
0.000115566
2.72256e-08
0.000115586
1.60264e-08
0.000115605
4.75236e-09
0.000115623
-6.57442e-09
0.000115641
-1.7932e-08
0.000115659
-2.93014e-08
0.000115676
-4.06637e-08
-5.20087e-08
0.000115693
0.000118496
1.37058e-08
0.000118496
4.04498e-08
0.000118496
6.44936e-08
0.000118497
8.50449e-08
0.0001185
1.0186e-07
0.000118504
1.1498e-07
0.00011851
1.24607e-07
0.000118518
1.31043e-07
0.000118529
1.34637e-07
0.000118541
1.35747e-07
0.000118554
1.34713e-07
0.000118569
1.31856e-07
0.000118586
1.2746e-07
0.000118603
1.21779e-07
0.000118621
1.15034e-07
0.00011864
1.07412e-07
0.00011866
9.90743e-08
0.000118679
9.01553e-08
0.000118699
8.07675e-08
0.000118719
7.10031e-08
0.00011874
6.09393e-08
0.00011876
5.06377e-08
0.00011878
4.01509e-08
0.000118799
2.95191e-08
0.000118819
1.87794e-08
0.000118838
7.95909e-09
0.000118857
-2.91457e-09
0.000118876
-1.3821e-08
0.000118894
-2.4738e-08
0.000118912
-3.56481e-08
0.000118929
-4.65316e-08
0.000118945
-5.73741e-08
-6.81644e-08
0.000118962
0.000121881
1.39583e-08
0.00012188
4.13581e-08
0.000121879
6.56176e-08
0.000121878
8.56552e-08
0.000121879
1.01282e-07
0.000121881
1.12713e-07
0.000121886
1.20346e-07
0.000121892
1.24666e-07
0.0001219
1.26164e-07
0.000121911
1.25293e-07
0.000121923
1.22457e-07
0.000121937
1.18006e-07
0.000121952
1.12236e-07
0.000121969
1.05397e-07
0.000121986
9.76982e-08
0.000122004
8.93118e-08
0.000122023
8.03795e-08
0.000122042
7.1018e-08
0.000122061
6.1321e-08
0.000122081
5.13661e-08
0.000122101
4.12142e-08
0.00012212
3.09163e-08
0.00012214
2.05119e-08
0.000122159
1.00353e-08
0.000122179
-4.87043e-10
0.000122198
-1.10308e-08
0.000122216
-2.15769e-08
0.000122235
-3.21062e-08
0.000122253
-4.26028e-08
0.00012227
-5.30499e-08
0.000122287
-6.34335e-08
0.000122303
-7.37395e-08
-8.39614e-08
0.000122319
0.000125363
1.47008e-08
0.00012536
4.37303e-08
0.000125357
6.89349e-08
0.000125354
8.88874e-08
0.000125352
1.03514e-07
0.000125351
1.13268e-07
0.000125353
1.18802e-07
0.000125356
1.20825e-07
0.000125363
1.20004e-07
0.000125371
1.16911e-07
0.000125381
1.12028e-07
0.000125394
1.05744e-07
0.000125407
9.83746e-08
0.000125423
9.01714e-08
0.000125439
8.13332e-08
0.000125456
7.20172e-08
0.000125474
6.23472e-08
0.000125493
5.24198e-08
0.000125512
4.23112e-08
0.000125531
3.20801e-08
0.000125551
2.17726e-08
0.00012557
1.14247e-08
0.00012559
1.06476e-09
0.000125609
-9.28469e-09
0.000125628
-1.96052e-08
0.000125647
-2.98812e-08
0.000125665
-4.00993e-08
0.000125684
-5.0247e-08
0.000125701
-6.03127e-08
0.000125719
-7.0285e-08
0.000125735
-8.01531e-08
0.000125751
-8.99076e-08
-9.95446e-08
0.000125767
0.000128944
1.62207e-08
0.000128939
4.83996e-08
0.000128932
7.56133e-08
0.000128925
9.60332e-08
0.000128919
1.09829e-07
0.000128914
1.17813e-07
0.000128912
1.20985e-07
0.000128913
1.20358e-07
0.000128916
1.16822e-07
0.000128921
1.11106e-07
0.00012893
1.03787e-07
0.00012894
9.53098e-08
0.000128953
8.60147e-08
0.000128967
7.61565e-08
0.000128982
6.59253e-08
0.000128999
5.54613e-08
0.000129016
4.48681e-08
0.000129034
3.42201e-08
0.000129053
2.35722e-08
0.000129072
1.2962e-08
0.000129091
2.41802e-09
0.000129111
-8.0415e-09
0.00012913
-1.84021e-08
0.00012915
-2.86549e-08
0.000129169
-3.87921e-08
0.000129188
-4.88086e-08
0.000129206
-5.86987e-08
0.000129225
-6.84581e-08
0.000129242
-7.80812e-08
0.00012926
-8.75629e-08
0.000129276
-9.68975e-08
0.000129293
-1.06081e-07
-1.15112e-07
0.000129308
0.000132626
1.89956e-08
0.000132618
5.66897e-08
0.000132606
8.74206e-08
0.000132593
1.08962e-07
0.000132581
1.2199e-07
0.000132571
1.27882e-07
0.000132564
1.28148e-07
0.00013256
1.24227e-07
0.00013256
1.17315e-07
0.000132562
1.0834e-07
0.000132568
9.80002e-08
0.000132577
8.68094e-08
0.000132587
7.51348e-08
0.0001326
6.32337e-08
0.000132615
5.12819e-08
0.000132631
3.93981e-08
0.000132648
2.76575e-08
0.000132666
1.61085e-08
0.000132685
4.77619e-09
0.000132704
-6.32434e-09
0.000132724
-1.71909e-08
0.000132744
-2.7823e-08
0.000132764
-3.82275e-08
0.000132783
-4.84089e-08
0.000132803
-5.83759e-08
0.000132822
-6.81334e-08
0.000132841
-7.76885e-08
0.00013286
-8.70443e-08
0.000132878
-9.62052e-08
0.000132896
-1.05172e-07
0.000132913
-1.13946e-07
0.000132929
-1.22529e-07
-1.30926e-07
0.000132945
0.000136413
2.38805e-08
0.000136399
7.08129e-08
0.00013638
1.07125e-07
0.000136358
1.3043e-07
0.000136338
1.42437e-07
0.00013632
1.45446e-07
0.000136306
1.41754e-07
0.000136297
1.33425e-07
0.000136293
1.22071e-07
0.000136292
1.08872e-07
0.000136295
9.46721e-08
0.000136302
8.00556e-08
0.000136312
6.54099e-08
0.000136324
5.09815e-08
0.000136338
3.69184e-08
0.000136355
2.33025e-08
0.000136372
1.01704e-08
0.000136391
-2.46992e-09
0.00013641
-1.46281e-08
0.00013643
-2.63248e-08
0.00013645
-3.75855e-08
0.000136471
-4.84385e-08
0.000136492
-5.89114e-08
0.000136512
-6.90311e-08
0.000136533
-7.88214e-08
0.000136553
-8.83045e-08
0.000136573
-9.74983e-08
0.000136592
-1.0642e-07
0.000136611
-1.1508e-07
0.000136629
-1.23492e-07
0.000136647
-1.31664e-07
0.000136664
-1.39603e-07
-1.4732e-07
0.00013668
0.000140307
3.24943e-08
0.000140283
9.46043e-08
0.000140251
1.39131e-07
0.000140217
1.64481e-07
0.000140185
1.74449e-07
0.000140158
1.72865e-07
0.000140136
1.63289e-07
0.000140121
1.4871e-07
0.000140112
1.31284e-07
0.000140108
1.12482e-07
0.00014011
9.32919e-08
0.000140115
7.43462e-08
0.000140125
5.60204e-08
0.000140137
3.85151e-08
0.000140152
2.19222e-08
0.000140169
6.25966e-09
0.000140188
-8.49444e-09
0.000140208
-2.239e-08
0.000140229
-3.54856e-08
0.00014025
-4.78477e-08
0.000140272
-5.95392e-08
0.000140294
-7.06231e-08
0.000140317
-8.11544e-08
0.000140339
-9.11858e-08
0.000140361
-1.00761e-07
0.000140382
-1.09921e-07
0.000140403
-1.18699e-07
0.000140424
-1.27125e-07
0.000140444
-1.35223e-07
0.000140464
-1.43014e-07
0.000140483
-1.50516e-07
0.000140501
-1.57745e-07
-1.64716e-07
0.000140518
0.000144309
4.8087e-08
0.000144269
1.34872e-07
0.000144217
1.90439e-07
0.000144165
2.16884e-07
0.000144117
2.2212e-07
0.000144078
2.1255e-07
0.000144047
1.93769e-07
0.000144026
1.70083e-07
0.000144013
1.44269e-07
0.000144007
1.18049e-07
0.000144008
9.24871e-08
0.000144014
6.81847e-08
0.000144025
4.5427e-08
0.000144039
2.43078e-08
0.000144056
4.8077e-09
0.000144076
-1.31537e-08
0.000144097
-2.96916e-08
0.000144119
-4.4932e-08
0.000144143
-5.9004e-08
0.000144167
-7.20288e-08
0.000144192
-8.41207e-08
0.000144216
-9.53808e-08
0.000144241
-1.05901e-07
0.000144266
-1.15761e-07
0.00014429
-1.25032e-07
0.000144314
-1.33772e-07
0.000144337
-1.42035e-07
0.00014436
-1.49863e-07
0.000144382
-1.57297e-07
0.000144403
-1.64365e-07
0.000144424
-1.71098e-07
0.000144444
-1.77518e-07
-1.83649e-07
0.000144463
0.000148418
7.75947e-08
0.000148349
2.03826e-07
0.000148268
2.71846e-07
0.00014819
2.95265e-07
0.000148122
2.89795e-07
0.000148069
2.66037e-07
0.00014803
2.32765e-07
0.000148004
1.95937e-07
0.000147989
1.58777e-07
0.000147984
1.23023e-07
0.000147987
8.9619e-08
0.000147996
5.89669e-08
0.000148011
3.11291e-08
0.000148029
5.99055e-09
0.00014805
-1.66463e-08
0.000148074
-3.70144e-08
0.0001481
-5.53544e-08
0.000148127
-7.18981e-08
0.000148155
-8.68596e-08
0.000148183
-1.00432e-07
0.000148212
-1.12787e-07
0.00014824
-1.24074e-07
0.000148269
-1.34424e-07
0.000148297
-1.4395e-07
0.000148325
-1.52749e-07
0.000148352
-1.60906e-07
0.000148378
-1.68489e-07
0.000148404
-1.75562e-07
0.000148429
-1.82174e-07
0.000148453
-1.88369e-07
0.000148476
-1.94186e-07
0.000148498
-1.99656e-07
-2.04811e-07
0.000148519
0.000152631
1.36093e-07
0.000152511
3.23589e-07
0.000152383
3.99236e-07
0.00015227
4.08256e-07
0.00015218
3.80278e-07
0.000152114
3.32064e-07
0.00015207
2.76804e-07
0.000152044
2.21869e-07
0.000152033
1.70146e-07
0.000152033
1.22807e-07
0.000152042
8.03138e-08
0.000152059
4.26079e-08
0.00015208
9.34187e-09
0.000152106
-1.99315e-08
0.000152135
-4.56675e-08
0.000152167
-6.83036e-08
0.000152199
-8.82419e-08
0.000152233
-1.05844e-07
0.000152268
-1.21426e-07
0.000152303
-1.35263e-07
0.000152338
-1.47592e-07
0.000152372
-1.58617e-07
0.000152406
-1.68512e-07
0.00015244
-1.77425e-07
0.000152472
-1.85483e-07
0.000152504
-1.92792e-07
0.000152535
-1.99444e-07
0.000152565
-2.05516e-07
0.000152594
-2.11073e-07
0.000152622
-2.16172e-07
0.000152649
-2.20859e-07
0.000152674
-2.25175e-07
-2.29159e-07
0.000152698
0.000156933
2.54128e-07
0.000156722
5.34898e-07
0.000156526
5.95129e-07
0.000156371
5.63196e-07
0.00015626
4.91345e-07
0.000156189
4.03382e-07
0.000156149
3.17016e-07
0.000156132
2.39027e-07
0.000156132
1.70044e-07
0.000156145
1.09714e-07
0.000156167
5.75477e-08
0.000156197
1.27057e-08
0.000156233
-2.57853e-08
0.000156271
-5.88221e-08
0.000156313
-8.71901e-08
0.000156356
-1.11571e-07
0.000156401
-1.32559e-07
0.000156445
-1.50663e-07
0.00015649
-1.66314e-07
0.000156535
-1.79876e-07
0.000156579
-1.91658e-07
0.000156622
-2.01918e-07
0.000156665
-2.10876e-07
0.000156706
-2.18716e-07
0.000156746
-2.25595e-07
0.000156785
-2.3164e-07
0.000156822
-2.36966e-07
0.000156858
-2.41663e-07
0.000156893
-2.45812e-07
0.000156927
-2.49479e-07
0.000156958
-2.52722e-07
0.000156989
-2.55588e-07
-2.58126e-07
0.000157018
0.00016129
5.02251e-07
0.000160918
9.06963e-07
0.00016063
8.83606e-07
0.000160432
7.60783e-07
0.000160312
6.11099e-07
0.000160253
4.6295e-07
0.000160234
3.36332e-07
0.000160241
2.31762e-07
0.000160267
1.44132e-07
0.000160306
7.05134e-08
0.000160354
9.10449e-09
0.000160409
-4.20313e-08
0.000160468
-8.46976e-08
0.00016053
-1.20355e-07
0.000160593
-1.50167e-07
0.000160656
-1.75101e-07
0.000160719
-1.95967e-07
0.000160782
-2.13439e-07
0.000160844
-2.28072e-07
0.000160904
-2.40326e-07
0.000160963
-2.5058e-07
0.000161021
-2.59153e-07
0.000161076
-2.66306e-07
0.00016113
-2.72258e-07
0.000161181
-2.7719e-07
0.000161231
-2.81255e-07
0.000161278
-2.84579e-07
0.000161324
-2.87269e-07
0.000161368
-2.89412e-07
0.000161409
-2.91083e-07
0.000161449
-2.92343e-07
0.000161486
-2.93242e-07
-2.93829e-07
0.000161522
0.000165509
1.14675e-06
0.000164895
1.52074e-06
0.000164546
1.23313e-06
0.000164348
9.5843e-07
0.000164265
6.94152e-07
0.000164259
4.69478e-07
0.000164294
3.00601e-07
0.000164355
1.70966e-07
0.000164433
6.6349e-08
0.000164522
-1.868e-08
0.000164618
-8.72106e-08
0.000164719
-1.42371e-07
0.000164821
-1.86869e-07
0.000164923
-2.22753e-07
0.000165025
-2.51599e-07
0.000165124
-2.74701e-07
0.000165221
-2.93122e-07
0.000165316
-3.07729e-07
0.000165407
-3.19215e-07
0.000165495
-3.28146e-07
0.000165579
-3.34978e-07
0.00016566
-3.40085e-07
0.000165738
-3.4377e-07
0.000165812
-3.46283e-07
0.000165882
-3.47827e-07
0.00016595
-3.48569e-07