/*--------------------------------*- C++ -*----------------------------------*\
| =========                 |                                                 |
| \\      /  F ield         | OpenFOAM: The Open Source CFD Toolbox           |
|  \\    /   O peration     | Version:  4.1                                   |
|   \\  /    A nd           | Web:      www.OpenFOAM.org                      |
|    \\/     M anipulation  |                                                 |
\*---------------------------------------------------------------------------*/
FoamFile
{
    version     2.0;
    format      ascii;
    class       volVectorField;
    location    "1600";
    object      U;
}
// * * * * * * * * * * * * * * * * * * * * * * * * * * * * * * * * * * * * * //

dimensions      [0 1 -1 0 0 0 0];

internalField   nonuniform List<vector> 
6820
(
(7.12051 -2.89958 0)
(7.72183 -2.2784 0)
(7.93531 -1.28315 0)
(7.87961 -0.658566 0)
(7.73232 -0.320701 0)
(7.56973 -0.148362 0)
(7.41012 -0.0616843 0)
(7.26103 -0.0176571 0)
(7.12628 0.00481321 0)
(7.00568 0.0160259 0)
(6.89737 0.0212387 0)
(6.79958 0.0232361 0)
(6.71096 0.023513 0)
(6.63036 0.0228804 0)
(6.55678 0.0217877 0)
(6.48935 0.0204888 0)
(6.42738 0.019127 0)
(6.37028 0.0177815 0)
(6.31752 0.0164944 0)
(6.26867 0.0152867 0)
(6.22335 0.014167 0)
(6.18121 0.0131371 0)
(6.14196 0.0121952 0)
(6.10533 0.011338 0)
(6.07108 0.0105622 0)
(6.03897 0.00986571 0)
(6.0088 0.00924981 0)
(5.98033 0.00871773 0)
(5.95337 0.00829404 0)
(5.9275 0.00796959 0)
(5.90278 0.00790673 0)
(5.87676 0.00799948 0)
(5.85643 0.00690179 0)
(7.59884 0.654127 0)
(7.43304 0.77761 0)
(7.36112 0.527756 0)
(7.34933 0.342769 0)
(7.39535 0.234375 0)
(7.45299 0.166654 0)
(7.49513 0.123346 0)
(7.51886 0.0959953 0)
(7.52909 0.078384 0)
(7.52978 0.0664987 0)
(7.52339 0.0581217 0)
(7.51187 0.052021 0)
(7.49682 0.0474338 0)
(7.47936 0.0438613 0)
(7.4603 0.0409826 0)
(7.44018 0.0385931 0)
(7.41942 0.0365589 0)
(7.39835 0.0347895 0)
(7.37718 0.0332227 0)
(7.35608 0.0318156 0)
(7.33518 0.0305381 0)
(7.31458 0.029369 0)
(7.29435 0.0282934 0)
(7.27453 0.0273016 0)
(7.25516 0.026388 0)
(7.23626 0.0255514 0)
(7.21784 0.0247968 0)
(7.19991 0.0241347 0)
(7.1825 0.0235999 0)
(7.16549 0.0232044 0)
(7.14928 0.023188 0)
(7.13288 0.0231946 0)
(7.12003 0.0258865 0)
(7.25567 -0.0497306 0)
(7.16457 -0.0746216 0)
(7.20132 -0.0871776 0)
(7.24037 -0.057187 0)
(7.27477 -0.0216434 0)
(7.31088 0.00195917 0)
(7.34256 0.0166241 0)
(7.36741 0.0264405 0)
(7.38684 0.0329434 0)
(7.40194 0.0369132 0)
(7.41321 0.0391171 0)
(7.42121 0.0401864 0)
(7.42657 0.0405279 0)
(7.42981 0.0403893 0)
(7.43132 0.0399353 0)
(7.43142 0.0392812 0)
(7.43037 0.0385054 0)
(7.4284 0.0376598 0)
(7.42567 0.0367792 0)
(7.42232 0.0358874 0)
(7.41849 0.035001 0)
(7.41425 0.0341317 0)
(7.4097 0.033288 0)
(7.4049 0.0324772 0)
(7.3999 0.0317064 0)
(7.39475 0.0309835 0)
(7.38948 0.0303213 0)
(7.38413 0.0297341 0)
(7.37872 0.0292604 0)
(7.37324 0.0289146 0)
(7.36783 0.0288769 0)
(7.36226 0.0289962 0)
(7.3576 0.0303999 0)
(7.29108 -0.0915081 0)
(7.22275 -0.063933 0)
(7.23474 -0.0294732 0)
(7.25082 -0.00392933 0)
(7.2644 0.0156008 0)
(7.28272 0.0269921 0)
(7.30139 0.0329062 0)
(7.31764 0.0363608 0)
(7.3319 0.0384824 0)
(7.34452 0.0396043 0)
(7.35544 0.0400318 0)
(7.3647 0.040041 0)
(7.37248 0.039796 0)
(7.379 0.0393815 0)
(7.38443 0.0388523 0)
(7.38889 0.0382494 0)
(7.39253 0.0376017 0)
(7.39546 0.0369282 0)
(7.39778 0.0362421 0)
(7.39958 0.0355533 0)
(7.40093 0.0348694 0)
(7.40189 0.0341966 0)
(7.40252 0.0335404 0)
(7.40286 0.0329064 0)
(7.40295 0.0323016 0)
(7.40283 0.0317343 0)
(7.40252 0.0312177 0)
(7.40206 0.0307682 0)
(7.40148 0.0304189 0)
(7.40078 0.0301943 0)
(7.40007 0.0302066 0)
(7.39933 0.0303964 0)
(7.39899 0.0312459 0)
(7.31214 -0.0522565 0)
(7.26645 -0.0334737 0)
(7.26326 -0.0148424 0)
(7.26623 -0.00264995 0)
(7.27139 0.0101296 0)
(7.28196 0.0195658 0)
(7.29393 0.0252584 0)
(7.3049 0.0290461 0)
(7.31503 0.0317837 0)
(7.32449 0.0336475 0)
(7.33312 0.034819 0)
(7.34087 0.0355118 0)
(7.3478 0.0358715 0)
(7.35399 0.0359839 0)
(7.35952 0.0359103 0)
(7.36445 0.0356996 0)
(7.36883 0.035389 0)
(7.37275 0.0350057 0)
(7.37624 0.0345701 0)
(7.37935 0.0340981 0)
(7.38214 0.0336025 0)
(7.38463 0.0330937 0)
(7.38687 0.0325811 0)
(7.38888 0.0320732 0)
(7.39069 0.0315793 0)
(7.39232 0.0311097 0)
(7.3938 0.0306782 0)
(7.39515 0.0303012 0)
(7.39639 0.0300052 0)
(7.39757 0.0298136 0)
(7.39874 0.0297875 0)
(7.39997 0.0299073 0)
(7.40147 0.0303477 0)
(7.32016 -0.0320515 0)
(7.28758 -0.0252464 0)
(7.28069 -0.0140969 0)
(7.27975 -0.00455777 0)
(7.28192 0.00650074 0)
(7.28854 0.015337 0)
(7.29665 0.0211159 0)
(7.30442 0.0251329 0)
(7.31183 0.028098 0)
(7.31896 0.030193 0)
(7.32565 0.0315957 0)
(7.33185 0.0325068 0)
(7.33757 0.0330676 0)
(7.34284 0.0333655 0)
(7.34771 0.0334635 0)
(7.35219 0.0334112 0)
(7.35632 0.0332462 0)
(7.36015 0.0329966 0)
(7.36368 0.0326835 0)
(7.36696 0.0323235 0)
(7.37002 0.0319302 0)
(7.37286 0.0315147 0)
(7.37552 0.0310866 0)
(7.37802 0.030655 0)
(7.38037 0.0302292 0)
(7.38259 0.0298194 0)
(7.3847 0.0294376 0)
(7.38673 0.029098 0)
(7.38869 0.0288195 0)
(7.39062 0.0286189 0)
(7.39259 0.0285258 0)
(7.39464 0.028528 0)
(7.39692 0.0286722 0)
(7.32441 -0.0221713 0)
(7.30054 -0.0208449 0)
(7.2931 -0.0128349 0)
(7.29071 -0.00453549 0)
(7.29137 0.00495531 0)
(7.29565 0.0128525 0)
(7.30141 0.0183631 0)
(7.30722 0.0223243 0)
(7.31294 0.0252836 0)
(7.31855 0.0274258 0)
(7.32392 0.0289182 0)
(7.32899 0.0299365 0)
(7.33375 0.030608 0)
(7.33822 0.0310157 0)
(7.34243 0.0312204 0)
(7.34637 0.0312695 0)
(7.35008 0.0311994 0)
(7.35358 0.0310375 0)
(7.35688 0.0308049 0)
(7.36 0.0305184 0)
(7.36295 0.0301914 0)
(7.36577 0.0298353 0)
(7.36845 0.0294598 0)
(7.37101 0.0290739 0)
(7.37348 0.0286864 0)
(7.37585 0.0283065 0)
(7.37815 0.0279443 0)
(7.3804 0.0276104 0)
(7.38262 0.027317 0)
(7.38485 0.0270731 0)
(7.38713 0.0268886 0)
(7.38951 0.0267479 0)
(7.39208 0.0266432 0)
(7.32735 -0.0153979 0)
(7.30976 -0.0162705 0)
(7.30244 -0.0106195 0)
(7.29932 -0.00378698 0)
(7.29908 0.00415893 0)
(7.30187 0.0110814 0)
(7.30609 0.0162161 0)
(7.31062 0.0200382 0)
(7.31523 0.0229385 0)
(7.31983 0.0250841 0)
(7.32431 0.0266239 0)
(7.32859 0.0277084 0)
(7.33267 0.028451 0)
(7.33655 0.0289302 0)
(7.34023 0.0292043 0)
(7.34373 0.0293191 0)
(7.34706 0.0293098 0)
(7.35023 0.0292034 0)
(7.35326 0.029021 0)
(7.35616 0.0287793 0)
(7.35895 0.0284918 0)
(7.36162 0.0281696 0)
(7.3642 0.0278226 0)
(7.3667 0.0274591 0)
(7.36913 0.0270874 0)
(7.3715 0.0267151 0)
(7.37382 0.02635 0)
(7.37611 0.0259993 0)
(7.3784 0.0256693 0)
(7.38072 0.0253625 0)
(7.38309 0.0250767 0)
(7.38556 0.0247925 0)
(7.38819 0.0244824 0)
(7.32939 -0.0103229 0)
(7.31652 -0.0120776 0)
(7.30969 -0.00829769 0)
(7.30624 -0.00285209 0)
(7.30542 0.00374751 0)
(7.30719 0.00977224 0)
(7.31032 0.0144922 0)
(7.31393 0.0181278 0)
(7.31775 0.0209355 0)
(7.32163 0.0230529 0)
(7.32547 0.024608 0)
(7.32918 0.0257284 0)
(7.33276 0.0265146 0)
(7.33619 0.0270397 0)
(7.33949 0.0273594 0)
(7.34264 0.0275174 0)
(7.34566 0.027548 0)
(7.34857 0.0274776 0)
(7.35137 0.0273269 0)
(7.35407 0.0271125 0)
(7.35668 0.0268479 0)
(7.3592 0.0265439 0)
(7.36166 0.02621 0)
(7.36406 0.0258541 0)
(7.3664 0.0254832 0)
(7.36871 0.0251038 0)
(7.37099 0.0247212 0)
(7.37326 0.0243396 0)
(7.37554 0.0239609 0)
(7.37784 0.0235825 0)
(7.38021 0.0231957 0)
(7.38267 0.0227797 0)
(7.38524 0.022302 0)
(7.33074 -0.00670195 0)
(7.32148 -0.00859976 0)
(7.31542 -0.00610316 0)
(7.31195 -0.00180956 0)
(7.31077 0.00363597 0)
(7.3118 0.00883439 0)
(7.31411 0.013112 0)
(7.31701 0.0165171 0)
(7.32021 0.0191979 0)
(7.32353 0.0212568 0)
(7.32688 0.0227991 0)
(7.33016 0.0239309 0)
(7.33335 0.0247396 0)
(7.33645 0.0252922 0)
(7.33944 0.0256409 0)
(7.34232 0.0258273 0)
(7.3451 0.0258839 0)
(7.34779 0.0258367 0)
(7.3504 0.0257057 0)
(7.35292 0.0255074 0)
(7.35538 0.0252548 0)
(7.35778 0.0249587 0)
(7.36012 0.0246277 0)
(7.36241 0.0242693 0)
(7.36467 0.0238895 0)
(7.3669 0.0234934 0)
(7.36911 0.0230843 0)
(7.37133 0.0226638 0)
(7.37356 0.0222308 0)
(7.37582 0.0217795 0)
(7.37813 0.0212985 0)
(7.38051 0.0207671 0)
(7.38298 0.0201547 0)
(7.33161 -0.00420201 0)
(7.32508 -0.0058104 0)
(7.31996 -0.00410079 0)
(7.31671 -0.000716875 0)
(7.31534 0.00374661 0)
(7.31583 0.00818957 0)
(7.31753 0.0120121 0)
(7.31985 0.0151529 0)
(7.32254 0.0176764 0)
(7.32541 0.0196499 0)
(7.32835 0.0211546 0)
(7.33128 0.0222765 0)
(7.33417 0.0230901 0)
(7.33699 0.0236551 0)
(7.33973 0.0240198 0)
(7.34239 0.0242228 0)
(7.34498 0.0242952 0)
(7.34749 0.0242616 0)
(7.34994 0.0241418 0)
(7.35232 0.0239514 0)
(7.35465 0.0237033 0)
(7.35692 0.0234075 0)
(7.35916 0.0230725 0)
(7.36136 0.0227049 0)
(7.36353 0.0223097 0)
(7.36568 0.0218908 0)
(7.36783 0.0214501 0)
(7.36997 0.0209872 0)
(7.37214 0.020499 0)
(7.37433 0.0199783 0)
(7.37656 0.0194128 0)
(7.37884 0.0187837 0)
(7.38119 0.0180645 0)
(7.33217 -0.00250031 0)
(7.32765 -0.0036227 0)
(7.32352 -0.00234688 0)
(7.32064 0.00035059 0)
(7.31925 0.00400014 0)
(7.31938 0.00776819 0)
(7.3206 0.0111414 0)
(7.32247 0.0139968 0)
(7.32473 0.0163392 0)
(7.32722 0.018204 0)
(7.32982 0.0196492 0)
(7.33245 0.020742 0)
(7.33507 0.0215442 0)
(7.33766 0.0221082 0)
(7.34019 0.0224772 0)
(7.34267 0.0226869 0)
(7.34509 0.0227663 0)
(7.34745 0.0227388 0)
(7.34976 0.0226231 0)
(7.35202 0.0224343 0)
(7.35423 0.0221848 0)
(7.35641 0.0218841 0)
(7.35855 0.0215399 0)
(7.36066 0.0211584 0)
(7.36275 0.0207437 0)
(7.36483 0.0202986 0)
(7.3669 0.0198238 0)
(7.36897 0.019318 0)
(7.37106 0.0187767 0)
(7.37317 0.0181925 0)
(7.37532 0.0175537 0)
(7.37749 0.0168438 0)
(7.37971 0.0160412 0)
(7.33251 -0.00135805 0)
(7.32945 -0.00195271 0)
(7.32626 -0.000878385 0)
(7.32385 0.00132664 0)
(7.32255 0.00432464 0)
(7.32248 0.00750738 0)
(7.32335 0.0104541 0)
(7.32485 0.0130169 0)
(7.32676 0.0151619 0)
(7.32892 0.016899 0)
(7.33123 0.0182658 0)
(7.3336 0.0193122 0)
(7.336 0.0200883 0)
(7.33838 0.0206385 0)
(7.34073 0.0210012 0)
(7.34305 0.0212084 0)
(7.34532 0.021287 0)
(7.34755 0.0212587 0)
(7.34974 0.0211412 0)
(7.35189 0.0209489 0)
(7.35401 0.0206932 0)
(7.35609 0.0203833 0)
(7.35814 0.0200264 0)
(7.36017 0.0196277 0)
(7.36219 0.019191 0)
(7.36419 0.018718 0)
(7.36619 0.0182088 0)
(7.36819 0.0176613 0)
(7.3702 0.0170709 0)
(7.37223 0.0164304 0)
(7.37428 0.0157292 0)
(7.37635 0.0149538 0)
(7.37844 0.0140869 0)
(7.33272 -0.000604649 0)
(7.33069 -0.000714871 0)
(7.32832 0.000297986 0)
(7.3264 0.00216558 0)
(7.3253 0.00465902 0)
(7.32514 0.00734946 0)
(7.32578 0.00990638 0)
(7.327 0.0121819 0)
(7.32862 0.0141219 0)
(7.33051 0.0157179 0)
(7.33256 0.0169907 0)
(7.33471 0.0179759 0)
(7.3369 0.0187125 0)
(7.3391 0.0192374 0)
(7.34129 0.0195837 0)
(7.34346 0.0197801 0)
(7.34561 0.0198506 0)
(7.34772 0.0198153 0)
(7.34981 0.0196907 0)
(7.35186 0.0194902 0)
(7.35388 0.0192244 0)
(7.35588 0.018902 0)
(7.35785 0.0185295 0)
(7.3598 0.0181116 0)
(7.36174 0.0176513 0)
(7.36368 0.01715 0)
(7.3656 0.0166074 0)
(7.36753 0.0160209 0)
(7.36946 0.0153862 0)
(7.3714 0.0146967 0)
(7.37336 0.0139436 0)
(7.37532 0.013116 0)
(7.37729 0.0122005 0)
(7.33284 -0.000117485 0)
(7.33153 0.000175071 0)
(7.32984 0.00119971 0)
(7.3284 0.00284328 0)
(7.32753 0.004956 0)
(7.32738 0.00724368 0)
(7.32788 0.00945615 0)
(7.3289 0.0114606 0)
(7.33029 0.0131963 0)
(7.33195 0.0146438 0)
(7.33379 0.0158115 0)
(7.33574 0.0167234 0)
(7.33775 0.0174089 0)
(7.33979 0.0178981 0)
(7.34183 0.0182191 0)
(7.34388 0.0183967 0)
(7.3459 0.0184524 0)
(7.34791 0.0184044 0)
(7.34989 0.0182679 0)
(7.35185 0.018055 0)
(7.35379 0.0177758 0)
(7.35571 0.0174382 0)
(7.35761 0.017048 0)
(7.35949 0.0166094 0)
(7.36136 0.0161252 0)
(7.36322 0.0155961 0)
(7.36507 0.0150217 0)
(7.36693 0.0143996 0)
(7.36878 0.0137259 0)
(7.37063 0.0129949 0)
(7.37249 0.0121994 0)
(7.37435 0.0113309 0)
(7.3762 0.0103793 0)
(7.33292 0.000190244 0)
(7.33209 0.000793706 0)
(7.33093 0.00185887 0)
(7.32991 0.0033546 0)
(7.32929 0.00518413 0)
(7.32921 0.00714909 0)
(7.32965 0.00906565 0)
(7.33053 0.0108228 0)
(7.33176 0.0123621 0)
(7.33323 0.0136595 0)
(7.33489 0.0147155 0)
(7.33666 0.0155451 0)
(7.33851 0.0161703 0)
(7.34041 0.0166149 0)
(7.34233 0.0169024 0)
(7.34425 0.0170542 0)
(7.34617 0.017089 0)
(7.34807 0.0170231 0)
(7.34997 0.0168702 0)
(7.35184 0.0166415 0)
(7.3537 0.016346 0)
(7.35554 0.0159908 0)
(7.35737 0.0155814 0)
(7.35918 0.0151216 0)
(7.36098 0.0146134 0)
(7.36277 0.0140578 0)
(7.36455 0.0134541 0)
(7.36633 0.0128001 0)
(7.3681 0.0120926 0)
(7.36987 0.011327 0)
(7.37164 0.0104975 0)
(7.3734 0.00959781 0)
(7.37514 0.00862032 0)
(7.33296 0.000378647 0)
(7.33245 0.00120644 0)
(7.33171 0.00231424 0)
(7.33104 0.00370899 0)
(7.33065 0.00532743 0)
(7.33067 0.00703646 0)
(7.3311 0.00870373 0)
(7.3319 0.0102409 0)
(7.33299 0.011597 0)
(7.33432 0.0127478 0)
(7.33583 0.0136895 0)
(7.33746 0.0144313 0)
(7.33917 0.0149892 0)
(7.34094 0.0153822 0)
(7.34274 0.0156295 0)
(7.34455 0.0157492 0)
(7.34637 0.0157577 0)
(7.34818 0.0156693 0)
(7.34999 0.0154962 0)
(7.35179 0.0152484 0)
(7.35357 0.0149341 0)
(7.35534 0.0145598 0)
(7.35709 0.0141302 0)
(7.35884 0.0136488 0)
(7.36057 0.0131175 0)
(7.36229 0.0125369 0)
(7.364 0.0119065 0)
(7.3657 0.0112246 0)
(7.3674 0.0104885 0)
(7.36909 0.00969465 0)
(7.37076 0.00883868 0)
(7.37242 0.00791587 0)
(7.37407 0.00692076 0)
(7.33298 0.000488629 0)
(7.33269 0.00146679 0)
(7.33224 0.00260564 0)
(7.33185 0.00392537 0)
(7.33167 0.00538303 0)
(7.33179 0.00688853 0)
(7.33224 0.0083476 0)
(7.33298 0.00969244 0)
(7.33399 0.0108812 0)
(7.33521 0.0118924 0)
(7.3366 0.0127209 0)
(7.3381 0.0133723 0)
(7.3397 0.0138584 0)
(7.34135 0.0141944 0)
(7.34304 0.014396 0)
(7.34476 0.0144786 0)
(7.34648 0.0144562 0)
(7.34821 0.0143413 0)
(7.34994 0.0141446 0)
(7.35166 0.0138751 0)
(7.35337 0.0135401 0)
(7.35506 0.0131453 0)
(7.35675 0.012695 0)
(7.35843 0.0121922 0)
(7.36009 0.0116387 0)
(7.36174 0.0110351 0)
(7.36338 0.010381 0)
(7.36501 0.00967513 0)
(7.36663 0.00891537 0)
(7.36823 0.00809908 0)
(7.36982 0.00722311 0)
(7.37139 0.00628409 0)
(7.37294 0.00527813 0)
(7.33299 0.000547717 0)
(7.33284 0.00161725 0)
(7.33261 0.00277042 0)
(7.33242 0.00402764 0)
(7.3324 0.00535786 0)
(7.33261 0.0066988 0)
(7.33309 0.00798344 0)
(7.33381 0.00916096 0)
(7.33476 0.0101987 0)
(7.33589 0.0110794 0)
(7.33717 0.0117982 0)
(7.33858 0.0123589 0)
(7.34007 0.0127709 0)
(7.34162 0.0130463 0)
(7.34321 0.0131982 0)
(7.34484 0.0132396 0)
(7.34648 0.0131825 0)
(7.34813 0.0130378 0)
(7.34978 0.0128149 0)
(7.35142 0.0125215 0)
(7.35306 0.0121642 0)
(7.35469 0.011748 0)
(7.35631 0.0112768 0)
(7.35792 0.0107532 0)
(7.35952 0.0101789 0)
(7.3611 0.00955437 0)
(7.36267 0.00887955 0)
(7.36423 0.00815347 0)
(7.36577 0.00737466 0)
(7.36729 0.00654121 0)
(7.3688 0.00565096 0)
(7.37028 0.00470159 0)
(7.37174 0.00369041 0)
(7.333 0.000574354 0)
(7.33294 0.00169089 0)
(7.33284 0.00284171 0)
(7.3328 0.00404131 0)
(7.3329 0.00526536 0)
(7.33318 0.00646947 0)
(7.33368 0.00760582 0)
(7.33439 0.00863707 0)
(7.33529 0.00953888 0)
(7.33635 0.0102984 0)
(7.33755 0.0109122 0)
(7.33886 0.0113836 0)
(7.34026 0.0117206 0)
(7.34172 0.0119332 0)
(7.34323 0.0120326 0)
(7.34477 0.0120298 0)
(7.34633 0.0119352 0)
(7.3479 0.011758 0)
(7.34948 0.0115066 0)
(7.35105 0.0111877 0)
(7.35262 0.010807 0)
(7.35419 0.010369 0)
(7.35574 0.00987696 0)
(7.35728 0.00933337 0)
(7.35881 0.00873967 0)
(7.36033 0.00809652 0)
(7.36183 0.00740392 0)
(7.36332 0.00666129 0)
(7.36478 0.00586766 0)
(7.36623 0.00502177 0)
(7.36765 0.00412223 0)
(7.36905 0.00316752 0)
(7.37042 0.00215588 0)
(7.333 0.000580964 0)
(7.33299 0.00171325 0)
(7.33299 0.00284808 0)
(7.33304 0.00399147 0)
(7.33321 0.00512275 0)
(7.33354 0.00620918 0)
(7.33405 0.00721655 0)
(7.33473 0.00811806 0)
(7.33559 0.0088965 0)
(7.33659 0.0095433 0)
(7.33772 0.010057 0)
(7.33895 0.0104413 0)
(7.34027 0.0107034 0)
(7.34164 0.0108521 0)
(7.34307 0.010897 0)
(7.34453 0.0108478 0)
(7.34601 0.0107133 0)
(7.34751 0.0105017 0)
(7.34902 0.0102201 0)
(7.35052 0.00987433 0)
(7.35203 0.00946944 0)
(7.35353 0.0090093 0)
(7.35501 0.00849687 0)
(7.35649 0.00793426 0)
(7.35795 0.00732282 0)
(7.3594 0.00666325 0)
(7.36084 0.0059557 0)
(7.36225 0.00519993 0)
(7.36365 0.00439534 0)
(7.36502 0.00354122 0)
(7.36637 0.00263674 0)
(7.36768 0.00168103 0)
(7.36897 0.000672949 0)
(7.333 0.000576112 0)
(7.33302 0.0017043 0)
(7.33306 0.00281397 0)
(7.33316 0.00390194 0)
(7.33337 0.00494927 0)
(7.33372 0.00593116 0)
(7.33422 0.0068233 0)
(7.33487 0.00760729 0)
(7.33568 0.00827204 0)
(7.33662 0.00881297 0)
(7.33767 0.0092308 0)
(7.33883 0.00953002 0)
(7.34006 0.00971756 0)
(7.34136 0.00980158 0)
(7.34271 0.00979068 0)
(7.3441 0.00969325 0)
(7.34551 0.00951715 0)
(7.34693 0.00926939 0)
(7.34837 0.00895612 0)
(7.34981 0.00858253 0)
(7.35124 0.00815287 0)
(7.35268 0.00767054 0)
(7.3541 0.00713812 0)
(7.35551 0.00655749 0)
(7.35691 0.00592988 0)
(7.3583 0.00525601 0)
(7.35966 0.00453616 0)
(7.36101 0.00377032 0)
(7.36233 0.00295823 0)
(7.36363 0.00209959 0)
(7.36491 0.00119398 0)
(7.36615 0.000240997 0)
(7.36736 -0.000760054 0)
(7.333 0.000566008 0)
(7.33303 0.00168018 0)
(7.33309 0.0027608 0)
(7.3332 0.0037953 0)
(7.33341 0.00476538 0)
(7.33373 0.00565197 0)
(7.3342 0.00643844 0)
(7.33481 0.00711342 0)
(7.33556 0.00767124 0)
(7.33643 0.0081111 0)
(7.33741 0.00843596 0)
(7.33849 0.00865137 0)
(7.33964 0.00876444 0)
(7.34086 0.00878296 0)
(7.34213 0.00871482 0)
(7.34344 0.00856755 0)
(7.34478 0.00834808 0)
(7.34613 0.00806257 0)
(7.3475 0.00771634 0)
(7.34887 0.00731388 0)
(7.35024 0.00685887 0)
(7.35161 0.00635423 0)
(7.35297 0.0058022 0)
(7.35432 0.00520444 0)
(7.35565 0.00456207 0)
(7.35697 0.00387578 0)
(7.35828 0.00314597 0)
(7.35956 0.00237277 0)
(7.36081 0.00155623 0)
(7.36205 0.000696255 0)
(7.36325 -0.000207194 0)
(7.36443 -0.00115425 0)
(7.36557 -0.00214529 0)
(7.333 0.000555591 0)
(7.33302 0.00165487 0)
(7.33307 0.00270834 0)
(7.33316 0.00369377 0)
(7.33333 0.00459281 0)
(7.33361 0.00539106 0)
(7.33402 0.00607842 0)
(7.33456 0.00664983 0)
(7.33523 0.00710475 0)
(7.33602 0.00744609 0)
(7.33691 0.00767915 0)
(7.33791 0.00781077 0)
(7.33898 0.00784849 0)
(7.34011 0.00780001 0)
(7.3413 0.00767275 0)
(7.34253 0.00747359 0)
(7.3438 0.00720873 0)
(7.34508 0.00688359 0)
(7.34638 0.0065028 0)
(7.34768 0.00607024 0)
(7.34899 0.00558905 0)
(7.35029 0.00506174 0)
(7.35159 0.00449023 0)
(7.35288 0.00387594 0)
(7.35416 0.00321987 0)
(7.35542 0.00252271 0)
(7.35666 0.00178486 0)
(7.35787 0.00100662 0)
(7.35907 0.000188137 0)
(7.36024 -0.00067043 0)
(7.36138 -0.00156897 0)
(7.36249 -0.00250737 0)
(7.36356 -0.00348584 0)
(7.333 0.00054937 0)
(7.333 0.00164193 0)
(7.333 0.00267657 0)
(7.33304 0.00362067 0)
(7.33314 0.00445556 0)
(7.33334 0.00517122 0)
(7.33365 0.00576381 0)
(7.3341 0.00623448 0)
(7.33467 0.0065879 0)
(7.33536 0.00683083 0)
(7.33616 0.00697115 0)
(7.33706 0.00701719 0)
(7.33804 0.00697717 0)
(7.33909 0.00685892 0)
(7.34019 0.00666959 0)
(7.34134 0.0064156 0)
(7.34253 0.00610254 0)
(7.34374 0.00573522 0)
(7.34497 0.00531767 0)
(7.34621 0.0048532 0)
(7.34745 0.0043445 0)
(7.3487 0.00379366 0)
(7.34994 0.00320232 0)
(7.35117 0.00257163 0)
(7.35239 0.0019025 0)
(7.35359 0.00119551 0)
(7.35477 0.000451104 0)
(7.35594 -0.000330417 0)
(7.35707 -0.00114878 0)
(7.35819 -0.00200375 0)
(7.35927 -0.00289507 0)
(7.36032 -0.00382257 0)
(7.36134 -0.00478629 0)
(7.333 0.000552218 0)
(7.33297 0.00165634 0)
(7.3329 0.00268805 0)
(7.33283 0.00360278 0)
(7.33282 0.00438174 0)
(7.3329 0.00501991 0)
(7.33309 0.00552011 0)
(7.33341 0.00589027 0)
(7.33386 0.00614073 0)
(7.33443 0.00628253 0)
(7.33512 0.00632647 0)
(7.3359 0.00628268 0)
(7.33678 0.00616034 0)
(7.33774 0.00596761 0)
(7.33875 0.00571156 0)
(7.33982 0.0053983 0)
(7.34093 0.00503293 0)
(7.34207 0.00461973 0)
(7.34324 0.0041622 0)
(7.34441 0.00366315 0)
(7.3456 0.00312481 0)
(7.34679 0.00254888 0)
(7.34797 0.00193667 0)
(7.34915 0.00128913 0)
(7.35032 0.000606965 0)
(7.35147 -0.000109338 0)
(7.35261 -0.000859399 0)
(7.35372 -0.00164293 0)
(7.35481 -0.00245965 0)
(7.35587 -0.00330929 0)
(7.3569 -0.00419156 0)
(7.3579 -0.00510625 0)
(7.35887 -0.00605337 0)
(7.333 0.000570318 0)
(7.33291 0.00171709 0)
(7.33273 0.00277119 0)
(7.33252 0.00367363 0)
(7.33235 0.00440658 0)
(7.33226 0.0049715 0)
(7.33228 0.00537928 0)
(7.33244 0.00564582 0)
(7.33273 0.00578815 0)
(7.33316 0.0058223 0)
(7.33371 0.00576255 0)
(7.33438 0.00562127 0)
(7.33515 0.00540892 0)
(7.336 0.00513422 0)
(7.33693 0.00480439 0)
(7.33791 0.00442528 0)
(7.33895 0.00400166 0)
(7.34002 0.00353731 0)
(7.34113 0.00303524 0)
(7.34225 0.00249774 0)
(7.34338 0.0019266 0)
(7.34452 0.00132312 0)
(7.34567 0.000688256 0)
(7.3468 2.26963e-05 0)
(7.34793 -0.000673099 0)
(7.34904 -0.00139878 0)
(7.35013 -0.00215412 0)
(7.35121 -0.00293889 0)
(7.35226 -0.00375289 0)
(7.35328 -0.00459588 0)
(7.35427 -0.00546762 0)
(7.35524 -0.0063679 0)
(7.35617 -0.00729679 0)
(7.33299 0.000612618 0)
(7.33282 0.00185106 0)
(7.33248 0.00296524 0)
(7.33207 0.00387853 0)
(7.33167 0.00457665 0)
(7.33135 0.00507055 0)
(7.33115 0.00538177 0)
(7.3311 0.00553641 0)
(7.3312 0.00555983 0)
(7.33146 0.00547422 0)
(7.33186 0.0052982 0)
(7.33239 0.00504693 0)
(7.33304 0.00473257 0)
(7.3338 0.00436468 0)
(7.33464 0.00395074 0)
(7.33555 0.00349649 0)
(7.33652 0.00300637 0)
(7.33754 0.00248366 0)
(7.33859 0.00193086 0)
(7.33967 0.00134972 0)
(7.34077 0.000741528 0)
(7.34187 0.000107113 0)
(7.34298 -0.000552959 0)
(7.34409 -0.00123837 0)
(7.34519 -0.00194893 0)
(7.34627 -0.00268455 0)
(7.34734 -0.00344519 0)
(7.34839 -0.0042308 0)
(7.34941 -0.0050413 0)
(7.35041 -0.00587658 0)
(7.35138 -0.00673649 0)
(7.35232 -0.00762094 0)
(7.35322 -0.00853004 0)
(7.33298 0.000693407 0)
(7.33269 0.00209948 0)
(7.33211 0.0033281 0)
(7.33139 0.00428185 0)
(7.33067 0.00495586 0)
(7.33004 0.00537586 0)
(7.32955 0.00557861 0)
(7.32924 0.00560418 0)
(7.32912 0.00548893 0)
(7.32919 0.00526296 0)
(7.32943 0.00495035 0)
(7.32983 0.00456987 0)
(7.33037 0.00413576 0)
(7.33103 0.00365865 0)
(7.33179 0.00314634 0)
(7.33265 0.00260447 0)
(7.33357 0.00203701 0)
(7.33455 0.00144673 0)
(7.33557 0.000835417 0)
(7.33663 0.000204218 0)
(7.33771 -0.000446244 0)
(7.3388 -0.00111568 0)
(7.3399 -0.00180409 0)
(7.34099 -0.00251156 0)
(7.34208 -0.00323835 0)
(7.34316 -0.00398468 0)
(7.34422 -0.00475081 0)
(7.34526 -0.00553694 0)
(7.34628 -0.00634323 0)
(7.34726 -0.00716973 0)
(7.34822 -0.0080165 0)
(7.34915 -0.00888357 0)
(7.35004 -0.00977122 0)
(7.33297 0.000837239 0)
(7.33247 0.00252942 0)
(7.33152 0.003949 0)
(7.33036 0.00497804 0)
(7.3292 0.00563327 0)
(7.32815 0.00596464 0)
(7.3273 0.00603212 0)
(7.32669 0.00589611 0)
(7.32631 0.00560802 0)
(7.32617 0.00520832 0)
(7.32625 0.00472803 0)
(7.32653 0.00419024 0)
(7.32698 0.00361157 0)
(7.32757 0.00300368 0)
(7.32829 0.00237452 0)
(7.32912 0.00172934 0)
(7.33002 0.00107143 0)
(7.331 0.000402666 0)
(7.33202 -0.000276054 0)
(7.33308 -0.000964479 0)
(7.33417 -0.00166284 0)
(7.33528 -0.00237162 0)
(7.33639 -0.0030915 0)
(7.3375 -0.0038232 0)
(7.33861 -0.00456749 0)
(7.3397 -0.00532508 0)
(7.34078 -0.00609661 0)
(7.34183 -0.00688265 0)
(7.34286 -0.00768366 0)
(7.34386 -0.00849998 0)
(7.34483 -0.00933191 0)
(7.34577 -0.0101797 0)
(7.34667 -0.0110438 0)
(7.33294 0.00108909 0)
(7.33211 0.00325417 0)
(7.33057 0.0049684 0)
(7.32876 0.00610657 0)
(7.32698 0.00673165 0)
(7.3254 0.00693447 0)
(7.32411 0.00681246 0)
(7.32315 0.00645682 0)
(7.32251 0.00593981 0)
(7.32218 0.00531515 0)
(7.32213 0.00462215 0)
(7.32232 0.0038885 0)
(7.32273 0.00313288 0)
(7.3233 0.00236732 0)
(7.32403 0.00159926 0)
(7.32487 0.000832855 0)
(7.32581 7.00673e-05 0)
(7.32682 -0.000688645 0)
(7.32789 -0.00144374 0)
(7.329 -0.00219628 0)
(7.33014 -0.00294766 0)
(7.3313 -0.00369943 0)
(7.33246 -0.00445316 0)
(7.33362 -0.00521043 0)
(7.33478 -0.00597266 0)
(7.33592 -0.0067412 0)
(7.33704 -0.0075172 0)
(7.33813 -0.00830172 0)
(7.3392 -0.00909559 0)
(7.34024 -0.00989953 0)
(7.34124 -0.0107141 0)
(7.34221 -0.01154 0)
(7.34314 -0.0123776 0)
(7.33289 0.00153839 0)
(7.33145 0.00447293 0)
(7.32898 0.00660887 0)
(7.32621 0.00786886 0)
(7.32361 0.00841128 0)
(7.32136 0.0083964 0)
(7.31957 0.00798381 0)
(7.31826 0.00731162 0)
(7.31739 0.00647964 0)
(7.31693 0.0055569 0)
(7.31682 0.00459094 0)
(7.31701 0.00361292 0)
(7.31745 0.00264183 0)
(7.31809 0.00168839 0)
(7.31889 0.000757945 0)
(7.31983 -0.000147728 0)
(7.32086 -0.00102906 0)
(7.32198 -0.00188786 0)
(7.32316 -0.00272666 0)
(7.32437 -0.00354836 0)
(7.32561 -0.00435595 0)
(7.32687 -0.0051524 0)
(7.32813 -0.00594047 0)
(7.32939 -0.00672277 0)
(7.33063 -0.00750163 0)
(7.33185 -0.00827913 0)
(7.33305 -0.00905711 0)
(7.33422 -0.00983717 0)
(7.33536 -0.0106206 0)
(7.33647 -0.0114087 0)
(7.33753 -0.0122023 0)
(7.33856 -0.0130023 0)
(7.33954 -0.0138096 0)
(7.33277 0.00237456 0)
(7.33022 0.00655414 0)
(7.32624 0.00923184 0)
(7.3221 0.0105483 0)
(7.31842 0.0108591 0)
(7.31541 0.0104447 0)
(7.31313 0.00956674 0)
(7.31155 0.00842941 0)
(7.31057 0.0071628 0)
(7.31011 0.00584846 0)
(7.31008 0.00453827 0)
(7.31039 0.00326248 0)
(7.31099 0.00203636 0)
(7.3118 0.000866017 0)
(7.31279 -0.000247831 0)
(7.31392 -0.00130767 0)
(7.31515 -0.00231781 0)
(7.31646 -0.00328338 0)
(7.31782 -0.00420981 0)
(7.31921 -0.00510243 0)
(7.32062 -0.00596632 0)
(7.32204 -0.00680617 0)
(7.32346 -0.00762626 0)
(7.32486 -0.00843039 0)
(7.32624 -0.00922197 0)
(7.3276 -0.010004 0)
(7.32893 -0.010779 0)
(7.33022 -0.0115494 0)
(7.33147 -0.012317 0)
(7.33267 -0.0130834 0)
(7.33384 -0.0138501 0)
(7.33496 -0.0146183 0)
(7.33603 -0.0153892 0)
(7.33248 0.00396229 0)
(7.32783 0.0101559 0)
(7.32139 0.0134326 0)
(7.31537 0.0145613 0)
(7.31044 0.0142915 0)
(7.3067 0.0131276 0)
(7.30409 0.0114984 0)
(7.30245 0.00968491 0)
(7.30159 0.00783289 0)
(7.30135 0.00602159 0)
(7.30161 0.0042959 0)
(7.30225 0.00267566 0)
(7.30318 0.00116495 0)
(7.30434 -0.00024007 0)
(7.30567 -0.00154693 0)
(7.30712 -0.00276495 0)
(7.30867 -0.00390403 0)
(7.31028 -0.00497393 0)
(7.31193 -0.0059838 0)
(7.3136 -0.00694203 0)
(7.31528 -0.00785617 0)
(7.31695 -0.00873297 0)
(7.3186 -0.00957836 0)
(7.32022 -0.0103976 0)
(7.32182 -0.0111951 0)
(7.32337 -0.011975 0)
(7.32488 -0.0127405 0)
(7.32634 -0.0134947 0)
(7.32776 -0.0142401 0)
(7.32912 -0.0149788 0)
(7.33043 -0.0157126 0)
(7.33168 -0.0164431 0)
(7.33288 -0.0171718 0)
(7.33192 0.00692338 0)
(7.32311 0.0161359 0)
(7.31274 0.0198083 0)
(7.30432 0.0202547 0)
(7.29817 0.0188165 0)
(7.29399 0.0163577 0)
(7.29147 0.0135727 0)
(7.29022 0.010808 0)
(7.28988 0.00818069 0)
(7.29022 0.00573985 0)
(7.29109 0.0035082 0)
(7.29235 0.00148398 0)
(7.29389 -0.000348504 0)
(7.29563 -0.00200901 0)
(7.29752 -0.00351749 0)
(7.29951 -0.00489308 0)
(7.30156 -0.00615359 0)
(7.30365 -0.00731507 0)
(7.30574 -0.00839176 0)
(7.30784 -0.0093961 0)
(7.30991 -0.0103389 0)
(7.31195 -0.0112297 0)
(7.31396 -0.0120764 0)
(7.31591 -0.0128861 0)
(7.31781 -0.0136649 0)
(7.31966 -0.0144178 0)
(7.32144 -0.0151493 0)
(7.32316 -0.0158631 0)
(7.32482 -0.0165626 0)
(7.32641 -0.0172504 0)
(7.32793 -0.0179291 0)
(7.32939 -0.0186008 0)
(7.33077 -0.0192677 0)
(7.33066 0.0138159 0)
(7.31338 0.0263446 0)
(7.29717 0.0284464 0)
(7.28626 0.0270593 0)
(7.27934 0.0238817 0)
(7.27544 0.0198552 0)
(7.27381 0.0158604 0)
(7.27367 0.0121991 0)
(7.2745 0.00887253 0)
(7.27603 0.00586347 0)
(7.27805 0.00316228 0)
(7.28042 0.000743478 0)
(7.28302 -0.00142535 0)
(7.28577 -0.00337449 0)
(7.28861 -0.00513071 0)
(7.29149 -0.00671833 0)
(7.29438 -0.00815953 0)
(7.29725 -0.00947399 0)
(7.30008 -0.010679 0)
(7.30286 -0.0117895 0)
(7.30557 -0.0128188 0)
(7.30821 -0.0137782 0)
(7.31077 -0.0146775 0)
(7.31324 -0.0155254 0)
(7.31563 -0.0163291 0)
(7.31793 -0.0170951 0)
(7.32014 -0.0178289 0)
(7.32226 -0.018535 0)
(7.32428 -0.0192176 0)
(7.32622 -0.0198801 0)
(7.32806 -0.0205252 0)
(7.32981 -0.0211551 0)
(7.33148 -0.0217715 0)
(7.32447 0.0352528 0)
(7.28905 0.0484149 0)
(7.26649 0.0395871 0)
(7.25598 0.0291982 0)
(7.2507 0.0198768 0)
(7.2489 0.012032 0)
(7.24973 0.00591061 0)
(7.25205 0.00117311 0)
(7.25519 -0.00258576 0)
(7.25891 -0.00560208 0)
(7.26304 -0.00802928 0)
(7.26741 -0.0100064 0)
(7.2719 -0.0116459 0)
(7.27643 -0.0130286 0)
(7.28094 -0.0142125 0)
(7.28539 -0.015241 0)
(7.28973 -0.016148 0)
(7.29396 -0.0169591 0)
(7.29806 -0.0176943 0)
(7.30201 -0.0183689 0)
(7.30581 -0.018995 0)
(7.30946 -0.0195823 0)
(7.31296 -0.0201381 0)
(7.31631 -0.0206687 0)
(7.3195 -0.0211789 0)
(7.32254 -0.0216727 0)
(7.32544 -0.0221532 0)
(7.3282 -0.0226233 0)
(7.33082 -0.0230851 0)
(7.33331 -0.0235408 0)
(7.33567 -0.0239924 0)
(7.3379 -0.0244422 0)
(7.34002 -0.0248929 0)
(7.29541 0.0831414 0)
(7.21833 0.128044 0)
(7.18707 0.129005 0)
(7.18632 0.113963 0)
(7.19295 0.0941329 0)
(7.20193 0.0760892 0)
(7.21231 0.0610598 0)
(7.22297 0.0481493 0)
(7.2335 0.0368352 0)
(7.24384 0.0270196 0)
(7.25389 0.0186053 0)
(7.26354 0.0114348 0)
(7.27271 0.00533921 0)
(7.28139 0.000167364 0)
(7.28959 -0.00421548 0)
(7.29732 -0.00793087 0)
(7.30459 -0.0110856 0)
(7.31143 -0.0137709 0)
(7.31784 -0.0160635 0)
(7.32387 -0.0180278 0)
(7.32953 -0.0197177 0)
(7.33484 -0.0211783 0)
(7.33982 -0.0224472 0)
(7.3445 -0.0235555 0)
(7.34888 -0.0245293 0)
(7.35299 -0.0253903 0)
(7.35685 -0.0261566 0)
(7.36046 -0.0268431 0)
(7.36384 -0.0274624 0)
(7.36701 -0.0280248 0)
(7.36996 -0.0285386 0)
(7.37271 -0.0290097 0)
(7.37527 -0.0294456 0)
(7.32717 -0.156814 0)
(7.19692 -0.284093 0)
(7.13361 -0.280647 0)
(7.11314 -0.247167 0)
(7.11508 -0.214556 0)
(7.13554 -0.184255 0)
(7.16564 -0.157031 0)
(7.19803 -0.134037 0)
(7.22997 -0.115224 0)
(7.26032 -0.0998993 0)
(7.28836 -0.0873967 0)
(7.31374 -0.0772177 0)
(7.33647 -0.0689537 0)
(7.35673 -0.062247 0)
(7.37472 -0.056796 0)
(7.39067 -0.0523579 0)
(7.40478 -0.0487388 0)
(7.41726 -0.045783 0)
(7.42829 -0.0433651 0)
(7.43804 -0.0413841 0)
(7.44666 -0.0397593 0)
(7.45426 -0.0384255 0)
(7.46097 -0.0373306 0)
(7.46687 -0.0364321 0)
(7.47207 -0.0356958 0)
(7.47663 -0.0350941 0)
(7.48061 -0.0346043 0)
(7.48409 -0.034208 0)
(7.4871 -0.03389 0)
(7.4897 -0.0336378 0)
(7.49193 -0.0334404 0)
(7.49383 -0.0332893 0)
(7.49546 -0.0331728 0)
(7.33086 1.21499 0)
(7.63822 1.23053 0)
(7.81865 0.920168 0)
(7.8759 0.647915 0)
(7.88919 0.449902 0)
(7.88325 0.310866 0)
(7.8619 0.213001 0)
(7.83006 0.143228 0)
(7.79308 0.0928982 0)