/*--------------------------------*- C++ -*----------------------------------*\
| =========                 |                                                 |
| \\      /  F ield         | OpenFOAM: The Open Source CFD Toolbox           |
|  \\    /   O peration     | Version:  4.1                                   |
|   \\  /    A nd           | Web:      www.OpenFOAM.org                      |
|    \\/     M anipulation  |                                                 |
\*---------------------------------------------------------------------------*/
FoamFile
{
    version     2.0;
    format      ascii;
    class       volScalarField;
    location    "2000";
    object      p;
}
// * * * * * * * * * * * * * * * * * * * * * * * * * * * * * * * * * * * * * //

dimensions      [0 2 -2 0 0 0 0];

internalField   nonuniform List<scalar> 
26785
(
1134.01
1107.35
1080.68
1055.36
1030.8
1007.04
984.131
961.712
938.745
914.096
886.916
856.515
822.272
783.6
740.385
694.181
647.05
596.99
539.025
476.321
412.061
340.217
255.416
163.04
83.211
39.7125
33.1275
33.9576
16.6764
-6.60025
-32.427
-63.2673
-95.0472
-130.036
-168.44
-204.676
-232.4
-249.622
-257.611
-257.804
-250.778
-236.374
-213.846
-183.23
-144.059
-94.6078
-34.226
34.6263
110.18
190.787
273.127
352.463
424.468
487.712
547.579
615.529
682.237
725.004
747.694
771.264
795.848
814.516
830.119
844.9
858.751
873.494
889.059
904.648
919.077
929.024
936.006
941.198
943.31
940.2
932.996
920.495
895.796
847.741
769.123
664.237
548.237
438
343.213
265.279
200.585
143.04
86.0349
24.7078
-42.2454
-112.533
-181.541
-243.506
-292.134
-321.689
-327.661
-308.84
-264.102
-202.505
-116.042
-53.6315
1134
1107.33
1080.67
1055.35
1030.79
1007.03
984.118
961.708
938.755
914.124
886.965
856.597
822.403
783.801
740.669
694.506
647.291
597.115
539.302
476.262
411.477
339.45
254.906
162.232
82.1083
38.9466
33.2954
34.3697
16.4599
-6.55281
-32.1466
-63.3511
-95.2038
-130.274
-168.959
-205.362
-233.055
-250.185
-258.092
-258.234
-251.194
-236.803
-214.272
-183.698
-144.694
-95.4351
-35.1059
33.6863
109.207
189.915
272.506
352.148
424.299
487.087
545.55
611.894
678.985
722.653
746.919
771.641
796.49
814.838
830.261
845.065
858.838
873.46
888.595
903.595
917.705
928.055
935.272
940.253
941.749
938.296
930.558
917.111
891.008
841.778
763.028
658.995
544.115
434.786
340.7
263.522
199.744
143.081
86.6242
25.3265
-42.0532
-113.05
-182.913
-245.773
-295.218
-325.39
-331.695
-312.892
-267.791
-205.4
-117.686
-54.3989
1134.01
1107.3
1080.64
1055.32
1030.77
1007
984.09
961.694
938.772
914.175
887.06
856.754
822.653
784.195
741.266
695.266
647.97
597.537
539.716
476.571
411.05
338.408
253.596
160.595
80.2784
37.7664
33.721
35.0061
16.0796
-6.65393
-32.0841
-63.8282
-95.8028
-131.055
-170.163
-206.729
-234.281
-251.21
-258.964
-259.02
-251.959
-237.578
-215.016
-184.467
-145.69
-96.7305
-36.5285
32.0772
107.454
188.262
271.235
351.377
423.832
486.074
542.517
606.189
673.297
719.211
746.467
772.786
797.741
815.487
830.557
845.273
858.905
873.416
888.189
902.528
915.989
926.481
933.87
938.475
939.231
935.188
926.516
911.434
883.329
833.097
755.3
653.445
540.355
431.736
337.797
261.03
198.267
142.886
87.3149
26.0786
-42.0153
-114.234
-185.604
-250.081
-301.021
-332.345
-339.285
-320.523
-274.734
-210.843
-120.717
-55.8114
1134
1107.25
1080.6
1055.29
1030.75
1006.97
984.048
961.667
938.793
914.25
887.2
856.981
823.006
784.733
742.061
696.288
648.967
598.305
540.427
477.028
410.693
337.171
251.828
158.261
78.1135
36.4011
34.5778
35.6839
15.3606
-7.2565
-33.0276
-64.9314
-96.9593
-132.518
-172.133
-208.772
-236.041
-252.648
-260.172
-260.11
-253.023
-238.652
-216.034
-185.494
-146.981
-98.3397
-38.2974
29.9867
105.076
185.924
269.324
350.063
422.972
484.791
539.184
600.188
667.352
716.092
746.845
774.617
799.473
816.442
831.112
845.591
858.958
873.173
887.497
901.232
914.036
924.346
931.678
935.962
936.282
931.683
922.038
905.095
874.636
823.121
746.372
647.386
536.944
429.343
335.173
258.233
196.198
142.212
87.7614
26.6555
-42.3144
-116.103
-189.481
-256.187
-309.254
-342.267
-350.174
-331.524
-284.82
-218.795
-125.412
-57.7229
1133.97
1107.19
1080.54
1055.26
1030.72
1006.94
983.996
961.629
938.819
914.349
887.385
857.28
823.464
785.418
743.05
697.545
650.222
599.339
541.394
477.726
410.506
335.901
249.786
155.454
75.9055
35.006
35.6339
35.5146
13.0449
-8.54324
-34.7531
-66.7345
-98.9483
-134.842
-174.879
-211.441
-238.27
-254.424
-261.642
-261.441
-254.337
-239.98
-217.264
-186.679
-148.423
-99.9996
-40.097
27.6841
102.282
183.032
266.808
348.139
421.6
483.25
535.921
594.91
662.375
713.887
747.891
776.799
801.413
817.556
831.901
846.035
859.013
872.787
886.559
899.674
911.805
921.74
928.858
932.885
932.892
927.847
917.32
898.661
866.022
813.165
737.077
640.693
533.167
427.146
333.095
255.915
194.279
141.291
87.5842
26.3451
-43.6428
-119.176
-194.92
-264.408
-320.213
-355.431
-364.579
-345.994
-297.996
-229.062
-131.75
-59.7177
1133.9
1107.11
1080.48
1055.21
1030.69
1006.9
983.936
961.577
938.843
914.469
887.613
857.648
824.021
786.237
744.211
699.005
651.71
600.63
542.596
478.626
410.477
334.701
247.605
152.334
73.8906
33.5844
36.1935
33.7363
9.66445
-10.2321
-37.5095
-69.3888
-101.836
-138.11
-178.255
-214.541
-240.839
-256.466
-263.328
-262.979
-255.878
-241.558
-218.728
-188.043
-150.004
-101.532
-41.5771
25.529
99.3958
179.828
263.832
345.628
419.632
481.386
533.03
590.945
658.877
712.649
749.372
779.348
803.565
818.803
832.825
846.521
859.046
872.288
885.434
897.886
909.335
918.778
925.543
929.247
928.981
923.601
912.319
892.287
858.019
804.195
728.541
633.989
528.67
423.983
330.217
253.059
191.934
139.873
86.7869
25.316
-45.8529
-123.478
-202.123
-275.018
-334.095
-371.87
-382.349
-363.681
-313.994
-241.356
-139.626
-61.6249
1133.85
1107.03
1080.41
1055.17
1030.66
1006.87
983.873
961.515
938.865
914.608
887.882
858.081
824.673
787.183
745.528
700.643
653.402
602.151
544.012
479.716
410.617
333.592
245.385
149.195
71.8891
32.3523
36.4055
30.9473
6.26006
-12.5755
-41.2096
-73.0229
-105.677
-142.275
-182.257
-217.96
-243.63
-258.733
-265.252
-264.755
-257.665
-243.407
-220.48
-189.694
-151.88
-102.997
-42.5701
23.8166
96.7958
176.682
260.694
342.712
417.092
479.28
530.778
588.529
656.851
712.21
751.245
782.293
805.838
820.152
833.848
847.065
859.091
871.721
884.18
895.913
906.642
915.516
921.836
925.134
924.517
918.757
906.825
885.725
850.346
796.05
720.978
627.854
524.001
419.881
325.792
248.426
188.065
137.356
85.1037
23.3607
-49.1424
-129.052
-210.814
-287.344
-349.853
-390.293
-402.104
-383.307
-331.736
-254.818
-148.438
-63.286
1133.79
1106.93
1080.34
1055.12
1030.63
1006.84
983.811
961.442
938.879
914.761
888.187
858.574
825.412
788.245
746.987
702.442
655.279
603.884
545.628
480.977
410.917
332.598
243.18
146.156
69.7155
31.2234
35.1334
27.7492
3.10108
-15.6504
-45.7348
-77.5881
-110.47
-147.254
-186.941
-221.854
-246.627
-261.141
-267.379
-266.794
-259.733
-245.553
-222.548
-191.688
-154.156
-104.55
-43.1704
22.5518
94.6601
173.886
257.72
339.688
414.262
477.167
529.309
587.576
656.017
712.48
753.549
785.56
808.21
821.665
834.973
847.675
859.16
871.124
882.856
893.833
903.806
912.04
917.821
920.616
919.534
913.366
900.858
878.882
842.778
788.398
714.071
622.122
519.112
414.868
319.869
242.02
182.654
133.77
82.6974
20.8836
-52.8062
-134.907
-219.763
-300.003
-366.035
-409.265
-422.459
-403.532
-349.915
-268.338
-157.262
-64.6708
1133.73
1106.83
1080.27
1055.07
1030.61
1006.81
983.755
961.363
938.885
914.925
888.525
859.123
826.23
789.412
748.571
704.384
657.324
605.812
547.428
482.4
411.374
331.733
241.045
143.206
67.1933
29.4079
32.1244
24.1932
-0.0639691
-19.4729
-50.9867
-83.0224
-116.228
-153.06
-192.282
-226.389
-250.13
-263.788
-269.643
-269.019
-262.061
-247.994
-224.927
-194.06
-156.785
-106.13
-43.4214
21.6417
93.0009
171.575
255.158
336.949
411.614
475.362
528.72
587.861
656.158
713.476
756.319
789.113
810.707
823.342
836.17
848.335
859.254
870.51
881.48
891.668
900.85
908.381
913.543
915.749
914.113
907.507
894.471
871.747
835.109
780.897
707.52
616.691
514.04
408.998
312.612
234.331
176.578
130.155
80.5251
18.702
-56.1368
-140.413
-228.399
-312.485
-382.211
-428.478
-443.171
-423.922
-367.81
-281.181
-165.357
-65.8207
1133.65
1106.72
1080.19
1055.03
1030.59
1006.79
983.707
961.282
938.881
915.097
888.89
859.72
827.12
790.674
750.269
706.454
659.523
607.922
549.405
483.978
411.985
331.006
239.013
140.359
64.3123
26.5782
28.6453
19.9538
-3.48115
-24.027
-56.9314
-89.2664
-122.868
-159.798
-198.315
-231.429
-254.28
-267.082
-272.245
-271.376
-264.546
-250.687
-227.606
-196.879
-159.726
-107.549
-43.3012
21.0184
91.8072
169.851
253.184
334.825
409.61
474.266
529.142
589.158
657.207
715.233
759.579
792.958
813.365
825.229
837.461
849.046
859.362
869.871
880.042
889.41
897.762
904.528
908.998
910.554
908.309
901.188
887.643
864.358
827.294
773.206
700.789
611.19
508.844
402.575
304.393
225.873
170.475
127.085
78.9795
17.0346
-59.0542
-145.569
-236.762
-324.852
-398.435
-448.007
-464.471
-444.764
-385.495
-293.258
-172.538
-66.9392
1133.52
1106.6
1080.11
1054.99
1030.58
1006.78
983.669
961.204
938.869
915.273
889.279
860.36
828.075
792.022
752.069
708.639
661.861
610.201
551.547
485.708
412.749
330.426
237.104
137.596
61.2584
23.2964
23.627
15.3657
-7.22013
-29.1961
-63.4491
-96.2773
-130.316
-167.378
-205.178
-237.048
-258.865
-271.025
-275.547
-274.116
-267.172
-253.564
-230.55
-200.143
-162.962
-108.641
-42.8353
20.6481
91.1047
168.716
251.93
333.616
408.591
474.109
530.535
591.341
659.176
717.766
763.332
797.085
816.217
827.358
838.853
849.798
859.473
869.191
878.522
887.032
894.514
900.459
904.172
905.027
902.145
894.459
880.347
856.599
819.37
765.488
693.724
605.092
503.136
395.73
295.711
217.385
165.182
125.224
78.379
15.8778
-61.7205
-150.534
-244.855
-336.732
-413.811
-466.342
-484.505
-464.885
-402.682
-304.641
-178.857
-68.1006
1133.42
1106.47
1080.04
1054.97
1030.58
1006.78
983.645
961.133
938.848
915.448
889.688
861.039
829.087
793.445
753.958
710.929
664.328
612.636
553.849
487.587
413.669
330.003
235.325
134.877
58.1727
20.2145
17.9884
10.9211
-11.3247
-34.9722
-70.4883
-103.987
-138.526
-175.723
-212.847
-243.505
-264.084
-275.414
-279.421
-277.476
-270.187
-256.692
-233.796
-203.949
-166.445
-109.299
-42.0259
20.4623
90.8116
168.315
251.685
333.549
408.715
474.964
532.832
594.417
662.079
721.066
767.561
801.454
819.296
829.721
840.352
850.59
859.577
868.456
876.899
884.511
891.082
896.153
899.06
899.174
895.625
887.346
872.655
848.482
811.224
757.798
686.714
598.607
496.69
388.385
287.115
209.736
161.224
124.482
78.3548
14.9332
-64.3162
-155.259
-252.149
-347.015
-426.707
-481.409
-500.763
-480.635
-415.872
-313.552
-183.97
-69.8623
1133.31
1106.34
1079.96
1054.95
1030.6
1006.8
983.635
961.074
938.82
915.62
890.111
861.75
830.149
794.935
755.927
713.312
666.913
615.219
556.303
489.613
414.746
329.741
233.685
132.187
55.094
17.5788
13.7322
6.53002
-15.806
-41.2736
-77.9862
-112.335
-147.455
-184.811
-221.27
-250.781
-270.184
-280.487
-283.751
-281.3
-273.689
-260.244
-237.576
-208.843
-169.921
-109.245
-41.2436
20.366
91.258
169.058
252.6
334.683
410.01
476.819
536.042
598.432
665.894
725.098
772.223
806.021
822.609
832.283
841.959
851.423
859.67
867.66
875.164
881.832
887.449
891.602
893.659
892.998
888.758
879.861
864.6
840.063
802.871
750.036
679.855
592.331
490.16
380.902
279.177
203.693
158.694
124.114
78.115
13.7856
-66.8433
-159.361
-258.127
-355.439
-437.509
-495.425
-516.098
-494.128
-425.537
-319.443
-187.498
-72.9464
1133.17
1106.2
1079.9
1054.94
1030.64
1006.84
983.643
961.031
938.788
915.783
890.546
862.487
831.254
796.482
757.966
715.778
669.607
617.94
558.904
491.787
415.984
329.648
232.185
129.524
52.0231
15.1371
10.3665
1.90622
-20.6566
-48.0212
-85.9071
-121.266
-157.059
-194.617
-230.458
-258.855
-277.137
-286.41
-288.717
-285.543
-277.507
-264.016
-241.774
-214.506
-174.375
-109.034
-40.2844
21.0918
92.8106
170.968
254.689
336.97
412.379
479.661
540.209
603.399
670.581
729.81
777.269
810.752
826.14
835.01
843.674
852.3
859.751
866.798
873.31
878.989
883.61
886.8
887.968
886.501
881.545
872.016
856.207
831.372
794.345
742.234
673.134
586.485
484.334
374.276
272.661
199.761
157.474
123.551
77.1618
12.2651
-68.9886
-162.248
-262.224
-361.404
-446.305
-509.933
-531.15
-506.627
-432.011
-322.118
-188.136
-75.3196
1133.03
1106.05
1079.84
1054.94
1030.69
1006.89
983.673
961.011
938.761
915.935
890.987
863.246
832.394
798.079
760.066
718.319
672.402
620.79
561.649
494.109
417.385
329.728
230.827
126.897
48.9926
12.6888
6.86453
-3.02505
-25.8577
-55.1611
-94.2243
-130.731
-167.305
-205.119
-240.412
-267.757
-284.936
-293.181
-294.456
-290.326
-281.62
-267.659
-245.187
-216.286
-176.632
-109.289
-39.3086
22.7482
95.4728
174.002
257.761
340.195
415.732
483.493
545.356
609.303
676.1
735.165
782.67
815.634
829.862
837.876
845.49
853.221
859.814
865.867
871.335
875.976
879.56
881.746
881.989
879.684
873.989
863.819
847.492
822.429
785.663
734.403
666.568
581.116
479.481
369.087
267.83
197.363
157.114
123.292
76.3244
11.1414
-70.0013
-163.009
-262.987
-362.314
-449.023
-514.744
-533.259
-513.841
-434.57
-320.445
-185.34
-73.8724
1132.83
1105.9
1079.78
1054.96
1030.76
1006.97
983.726
961.016
938.747
916.08
891.431
864.02
833.562
799.717
762.217
720.926
675.288
623.764
564.533
496.581
418.953
329.985
229.615
124.323
46.0539
10.2624
3.11391
-8.18836
-31.3829
-62.6412
-102.909
-140.692
-178.165
-216.3
-251.133
-277.507
-293.611
-300.791
-300.992
-295.8
-286.204
-271.413
-248.395
-216.643
-173.473
-106.778
-38.0188
25.6715
99.1079
177.727
261.491
344.217
420.028
488.339
551.493
616.121
682.441
741.157
788.426
820.665
833.747
840.843
847.406
854.178
859.852
864.861
869.234
872.787
875.291
876.436
875.721
872.549
866.096
855.284
838.472
813.247
776.835
726.549
660.171
576.268
475.725
365.669
265.002
196.311
157.282
123.38
76.006
10.9555
-69.3982
-161.202
-259.895
-358.023
-444.405
-508.371
-526.728
-505.603
-426.869
-312.424
-179.714
-68.9999
1132.66
1105.74
1079.74
1055
1030.86
1007.07
983.805
961.047
938.748
916.216
891.872
864.804
834.752
801.387
764.411
723.591
678.26
626.854
567.553
499.202
420.693
330.424
228.552
121.827
43.259
7.93654
-0.697713
-13.5033
-37.2024
-70.4016
-111.936
-151.113
-189.612
-228.147
-262.625
-288.119
-303.189
-309.269
-308.317
-301.982
-291.328
-275.461
-251.526
-217.585
-170.59
-105.139
-36.7406
29.126
103.088
181.763
265.748
348.976
425.27
494.254
558.635
623.851
689.626
747.817
794.568
825.853
837.79
843.899
849.425
855.171
859.864
863.777
867.005
869.419
870.801
870.868
869.162
865.099
857.873
846.424
829.166
803.846
767.876
718.682
653.961
571.988
473.145
364.118
264.239
196.606
157.961
123.91
76.6034
12.273
-66.545
-156.104
-252.079
-347.432
-431.181
-490.237
-507.218
-483.416
-408.042
-297.601
-170.406
-62.0632
1132.47
1105.57
1079.71
1055.06
1030.99
1007.21
983.914
961.107
938.769
916.344
892.307
865.594
835.957
803.082
766.641
726.306
681.308
630.053
570.706
501.976
422.608
331.05
227.648
119.437
40.6496
5.7586
-4.47532
-18.9198
-43.2861
-78.3884
-121.28
-161.963
-201.622
-240.648
-274.885
-299.605
-313.692
-318.651
-316.463
-308.872
-296.999
-279.883
-254.366
-218.988
-169.647
-104.474
-35.3443
32.6016
107.149
186.12
270.549
354.448
431.481
501.309
566.819
632.523
697.702
755.185
801.133
831.21
842.011
847.036
851.548
856.21
859.845
862.611
864.645
865.869
866.087
865.042
862.316
857.338
849.33
837.254
819.591
794.242
758.801
710.813
647.952
568.299
471.802
364.537
265.624
198.318
159.259
124.948
78.1733
15.1785
-61.4193
-147.916
-240.11
-331.368
-410.664
-464.083
-478.904
-453.185
-381.917
-277.692
-157.821
-53.4584
1132.26
1105.39
1079.69
1055.14
1031.14
1007.37
984.055
961.198
938.814
916.464
892.731
866.382
837.17
804.794
768.897
729.065
684.428
633.357
573.99
504.903
424.703
331.869
226.912
117.183
38.2611
3.7559
-8.18552
-24.4036
-49.6054
-86.56
-130.913
-173.216
-214.171
-253.791
-287.913
-311.973
-325.14
-328.972
-325.481
-316.521
-303.313
-285.111
-257.725
-220.563
-169.21
-103.854
-33.6388
36.1292
111.428
190.989
275.977
360.664
438.681
509.541
576.094
642.184
706.709
763.298
808.148
836.729
846.417
850.243
853.767
857.293
859.79
861.362
862.154
862.136
861.15
858.96
855.185
849.274
840.477
827.79
809.766
784.454
749.625
702.956
642.151
565.2
471.695
366.962
269.257
201.632
161.441
126.668
80.8003
19.6943
-54.0995
-136.912
-224.58
-310.703
-384.253
-432.018
-444.618
-418.297
-351.786
-254.749
-142.91
-43.8005
1132.02
1105.21
1079.68
1055.24
1031.33
1007.57
984.231
961.322
938.888
916.583
893.139
867.165
838.384
806.515
771.173
731.859
687.611
636.759
577.402
507.986
426.983
332.887
226.357
115.1
36.13
1.95277
-11.8069
-29.9286
-56.1299
-94.8925
-140.814
-184.849
-227.239
-267.566
-301.706
-325.229
-337.547
-340.262
-335.414
-324.996
-310.407
-291.147
-262.136
-223
-169.154
-103.086
-31.6095
39.8664
116.166
196.568
282.153
367.708
446.889
518.944
586.501
652.88
716.677
772.181
815.629
842.418
851.015
853.635
856.097
858.421
859.702
860.029
859.532
858.223
855.991
852.625
847.775
840.917
831.331
818.052
799.712
774.505
740.368
695.125
636.562
562.665
472.77
371.363
275.232
206.78
164.818
129.259
84.5058
25.7376
-44.7942
-123.512
-206.232
-286.551
-353.712
-396.153
-406.502
-380.779
-319.616
-230.185
-126.3
-33.6479
1131.73
1105.02
1079.69
1055.36
1031.56
1007.81
984.446
961.483
938.996
916.711
893.528
867.938
839.593
808.238
773.459
734.681
690.852
640.254
580.939
511.225
429.452
334.112
225.998
113.223
34.2953
0.374799
-15.3207
-35.479
-62.8179
-103.368
-150.968
-196.852
-240.813
-281.966
-316.26
-339.377
-350.929
-352.549
-346.306
-334.34
-318.282
-297.789
-267.624
-226.452
-169.785
-102.307
-29.3179
44.0202
121.652
203.094
289.291
375.73
456.153
529.502
598.062
664.643
727.628
781.857
823.617
848.373
855.835
857.362
858.571
859.6
859.593
858.611
856.776
854.132
850.613
846.042
840.095
832.277
821.907
808.061
789.453
764.418
731.055
687.341
631.186
560.651
474.917
377.632
283.626
214.075
169.788
133.008
89.3103
33.1564
-33.7946
-108.159
-185.745
-260.019
-320.836
-358.497
-366.743
-342.4
-286.811
-204.894
-108.465
-23.2744
1131.47
1104.82
1079.72
1055.52
1031.82
1008.09
984.701
961.684
939.142
916.86
893.899
868.694
840.791
809.956
775.75
737.525
694.143
643.837
584.601
514.623
432.116
335.553
225.852
111.588
32.7974
-0.952335
-18.7121
-41.0462
-69.6145
-111.969
-161.362
-209.22
-254.884
-296.986
-331.574
-354.421
-365.301
-365.864
-358.198
-344.593
-326.916
-304.937
-273.823
-230.583
-171.122
-101.654
-26.8488
48.6742
128.026
210.743
297.626
384.911
466.57
541.233
610.787
677.498
739.582
792.354
832.183
854.762
860.995
861.407
861.144
860.846
859.481
857.107
853.888
849.867
845.022
839.216
832.154
823.37
812.224
797.841
779.017
754.221
721.712
679.624
626.022
559.102
477.99
385.569
294.441
223.872
176.816
138.317
95.3057
41.7798
-21.4488
-91.3091
-163.646
-231.865
-286.79
-320.346
-326.908
-304.354
-254.253
-179.422
-89.8097
-12.8707
1131.19
1104.61
1079.76
1055.7
1032.12
1008.41
985.001
961.927
939.331
917.034
894.251
869.43
841.971
811.66
778.036
740.382
697.479
647.502
588.383
518.182
434.979
337.219
225.939
110.23
31.6737
-2.00628
-21.9719
-46.6254
-76.4702
-120.688
-171.995
-221.954
-269.447
-312.627
-347.647
-370.367
-380.678
-380.234
-371.133
-355.798
-336.319
-312.545
-280.605
-235.366
-173.087
-101.195
-24.282
53.7502
135.19
219.472
307.236
395.376
478.245
554.196
624.707
691.469
752.562
803.708
841.407
861.741
866.623
865.746
863.843
862.181
859.366
855.525
850.866
845.433
839.227
832.158
823.964
814.212
802.303
787.416
768.43
743.943
712.367
671.997
621.07
557.957
481.815
394.897
307.538
236.491
186.445
145.723
102.77
51.5355
-8.08012
-73.4319
-140.467
-202.809
-252.43
-282.405
-287.75
-267.244
-222.491
-154.212
-70.4657
-2.60792
1130.87
1104.39
1079.82
1055.92
1032.46
1008.78
985.347
962.215
939.563
917.237
894.585
870.139
843.127
813.344
780.312
743.247
700.852
651.244
592.283
521.901
438.046
339.121
226.278
109.185
30.9573
-2.76886
-25.0948
-52.2133
-83.3577
-129.549
-182.871
-235.063
-284.503
-328.891
-364.483
-387.219
-397.077
-395.691
-385.153
-368
-346.522
-320.604
-287.848
-240.83
-175.636
-100.956
-21.6539
59.1745
143.013
229.137
318.054
407.154
491.249
568.468
639.868
706.586
766.589
815.954
851.36
869.42
872.799
870.416
866.763
863.564
859.247
853.885
847.717
840.831
833.238
824.88
815.54
804.821
792.168
776.812
757.721
733.615
703.052
664.484
616.332
557.159
486.215
405.276
322.596
252.066
199.251
155.902
112.256
62.6131
6.13649
-55.025
-116.949
-173.761
-218.561
-245.339
-249.918
-231.664
-192.146
-129.729
-50.2287
7.41084
1130.52
1104.16
1079.91
1056.16
1032.85
1009.2
985.744
962.551
939.84
917.473
894.901
870.817
844.253
815.001
782.567
746.11
704.256
655.058
596.3
525.784
441.324
341.27
226.89
108.487
30.676
-3.22628
-28.0788
-57.811
-90.2922
-138.64
-194.002
-248.563
-300.056
-345.784
-382.088
-404.989
-414.516
-412.264
-400.299
-381.246
-357.574
-329.111
-295.396
-246.941
-178.741
-100.961
-18.9772
64.9244
151.439
239.654
329.997
420.231
505.621
584.103
656.313
722.881
781.685
829.123
862.107
877.88
879.602
875.475
869.9
864.92
859.153
852.195
844.46
836.066
827.061
817.395
806.897
795.217
781.84
766.057
746.92
723.267
693.794
657.109
611.813
556.66
491.028
416.354
339.127
270.394
215.651
169.626
124.623
75.6395
21.4485
-36.2333
-93.5868
-145.377
-185.846
-209.894
-214.106
-198.198
-163.631
-106.132
-29.0555
17.27
1130.1
1103.93
1080.02
1056.44
1033.28
1009.67
986.195
962.938
940.162
917.744
895.206
871.458
845.344
816.623
784.796
748.965
707.683
658.938
600.429
529.83
444.818
343.679
227.798
108.169
30.8542
-3.36838
-30.9235
-63.4275
-97.3038
-147.887
-205.402
-262.468
-316.114
-363.315
-400.472
-423.69
-433.017
-429.986
-416.614
-395.587
-369.54
-338.064
-303.036
-253.627
-182.378
-101.242
-16.2737
70.9821
160.438
250.988
343.024
434.596
521.377
601.13
674.073
740.381
797.875
843.25
873.717
887.187
887.107
881.028
873.31
866.253
859.007
850.457
841.107
831.156
820.703
809.718
798.054
785.419
771.345
755.178
736.056
712.929
684.624
649.897
607.516
556.421
496.118
427.808
356.564
290.904
235.606
187.506
140.925
91.8075
38.946
-16.1123
-69.6508
-117.141
-153.971
-175.876
-180.011
-166.35
-136.185
-82.8463
-7.81023
27.1228
1129.72
1103.69
1080.15
1056.76
1033.77
1010.19
986.702
963.378
940.53
918.048
895.52
872.061
846.391
818.203
786.989
751.803
711.126
662.877
604.668
534.04
448.534
346.361
229.025
108.261
31.5127
-3.18917
-33.6296
-69.0763
-104.414
-157.06
-217.105
-276.79
-332.685
-381.495
-419.65
-443.34
-452.605
-448.891
-434.142
-411.077
-382.505
-347.501
-310.568
-260.819
-186.526
-101.842
-13.5794
77.3212
169.969
263.108
357.112
450.241
538.515
619.552
693.166
759.114
815.192
858.388
886.269
897.403
895.379
887.162
877.106
867.644
858.721
848.681
837.667
826.128
814.179
801.86
789.033
775.451
760.706
744.201
725.155
702.628
675.567
642.866
603.448
556.414
501.385
439.381
374.37
312.799
258.481
209.52
161.862
112.426
60.3474
7.33417
-43.0774
-87.192
-121.189
-141.479
-145.771
-134.275
-108.117
-59.1238
11.8787
36.7888
1129.31
1103.44
1080.31
1057.12
1034.31
1010.78
987.27
963.874
940.944
918.386
895.856
872.622
847.39
819.733
789.14
754.617
714.579
666.87
609.012
538.416
452.478
349.33
230.592
108.795
32.6678
-2.68579
-36.1936
-74.7598
-111.672
-166.137
-229.148
-291.541
-349.782
-400.339
-439.638
-463.962
-473.308
-469.015
-452.927
-427.772
-396.544
-357.607
-317.888
-268.397
-191.172
-102.806
-10.9439
83.9114
180.002
275.988
372.239
467.149
557.022
639.366
713.606
779.114
833.688
874.616
899.859
908.596
904.474
893.947
881.363
869.211
858.287
846.774
834.157
820.988
807.514
793.83
779.851
765.338
749.948
733.153
714.246
692.389
666.646
636.035
599.614
556.619
506.758
450.895
392.129
335.288
283.262
234.859
187.189
138.003
86.8974
35.8289
-11.9902
-53.4705
-85.2878
-104.485
-109.318
-100.244
-78.2288
-34.6586
29.3316
46.0236
1128.87
1103.18
1080.5
1057.52
1034.9
1011.42
987.901
964.429
941.409
918.765
896.215
873.141
848.335
821.206
791.239
757.398
718.032
670.91
613.459
542.956
456.657
352.599
232.523
109.798
34.3303
-1.85902
-38.6043
-80.4568
-119.124
-175.255
-241.555
-306.73
-367.414
-419.861
-460.458
-485.58
-495.159
-490.396
-473.015
-445.718
-411.689
-368.653
-324.912
-276.14
-196.32
-104.174
-8.41533
90.7153
190.514
289.605
388.38
485.294
576.886
660.572
735.409
800.42
853.428
892.027
914.588
920.842
914.45
901.439
886.152
871.122
857.741
844.63
830.543
815.743
800.737
785.658
770.524
755.104
739.098
722.057
703.351
682.235
657.88
629.416
596.017
557.023
512.194
462.243
409.571
357.758
308.927
262.276
215.735
167.723
118.273
69.4052
23.8924
-15.3472
-45.4792
-64.1636
-70.1425
-64.075
-46.7576
-9.77532
45.3273
54.7821
1128.39
1102.91
1080.72
1057.97
1035.56
1012.13
988.597
965.044
941.926
919.191
896.605
873.616
849.218
822.616
793.279
760.138
721.477
674.99
618.003
547.662
461.075
356.184
234.841
111.292
36.5042
-0.71231
-40.8396
-86.1181
-126.773
-184.519
-254.339
-322.366
-385.594
-440.075
-482.131
-508.221
-518.188
-513.072
-494.454
-464.971
-427.967
-380.951
-332.073
-283.929
-202.004
-105.968
-6.01675
97.6895
201.472
303.94
405.507
504.65
598.098
683.179
758.601
823.083
874.494
910.73
930.564
934.22
925.366
909.695
891.534
873.487
857.213
842.267
826.723
810.413
793.856
777.384
761.067
744.767
728.182
710.939
692.492
672.184
649.283
623.019
592.658
557.615
517.668
473.372
426.551
379.824
334.702
290.61
246.065
200.026
152.861
106.414
63.1488
25.938
-2.9471
-21.7168
-29.4915
-27.0359
-14.9702
14.7909
60.7978
63.1215
1127.85
1102.65
1080.97
1058.46
1036.27
1012.91
989.36
965.721
942.499
919.667
897.029
874.057
850.033
823.953
795.251
762.827
724.907
679.104
622.641
552.531
465.74
360.1
237.57
113.3
39.1868
0.748303
-42.8681
-91.675
-134.597
-194.019
-267.493
-338.456
-404.328
-460.994
-504.677
-531.912
-542.427
-537.078
-517.288
-485.593
-445.444
-394.633
-340.257
-291.79
-208.312
-108.198
-3.74735
104.794
212.84
318.974
423.602
525.204
620.66
707.201
783.219
847.167
896.98
930.84
947.902
948.821
937.297
918.778
897.573
876.359
856.888
839.732
822.654
804.946
786.888
769.03
751.518
734.343
717.223
699.821
681.687
662.252
640.865
616.844
589.53
558.382
523.164
484.264
443.016
401.288
360.11
319.04
277.023
233.448
188.863
144.836
103.825
68.4053
40.3482
20.9842
10.9323
9.41213
15.9549
38.4483
76.0832
71.0757
1127.34
1102.37
1081.27
1058.99
1037.05
1013.75
990.194
966.463
943.127
920.192
897.487
874.491
850.776
825.211
797.146
765.458
728.312
683.242
627.367
557.564
470.656
364.362
240.733
115.844
42.3701
2.51336
-44.6521
-97.0522
-142.55
-203.83
-281.004
-355
-423.621
-482.626
-528.112
-556.676
-567.904
-562.447
-541.56
-507.645
-464.185
-409.588
-349.977
-299.96
-215.262
-110.88
-1.59918
111.998
224.591
334.698
442.662
546.959
644.584
732.668
809.314
872.756
920.996
952.482
966.716
964.743
950.329
928.76
904.328
879.78
856.932
837.097
818.352
799.235
779.843
760.605
741.927
723.856
706.235
688.726
670.955
652.447
632.629
610.89
586.624
559.312
528.675
494.921
458.965
422.076
384.905
347.08
307.867
266.976
224.951
183.23
144.402
110.502
82.8987
62.5796
49.9941
44.3969
45.4222
60.964
91.1547
78.6451
1126.8
1102.1
1081.6
1059.59
1037.9
1014.67
991.1
967.272
943.814
920.765
897.972
874.94
851.445
826.383
798.956
768.02
731.684
687.398
632.174
562.758
475.828
368.985
244.357
118.944
46.0481
4.5841
-46.1534
-102.178
-150.586
-214.026
-294.864
-371.988
-443.472
-504.971
-552.447
-582.53
-594.638
-589.204
-567.301
-531.179
-484.267
-425.782
-361.315
-308.94
-222.859
-114.051
0.422467
119.273
236.71
351.114
462.696
569.927
669.894
759.622
836.957
899.948
946.662
975.782
987.122
982.088
964.559
939.722
911.859
883.796
857.443
834.475
813.834
793.309
772.673
752.124
732.308
713.346
695.229
677.665
660.307
642.774
624.573
605.145
583.924
560.387
534.188
505.351
474.422
442.187
408.986
374.481
338.181
299.986
260.337
220.86
184.047
151.389
123.934
102.428
87.2143
77.595
73.2659
82.327
105.904
85.8271
1126.21
1101.83
1081.97
1060.23
1038.81
1015.66
992.083
968.151
944.562
921.381
898.477
875.41
852.038
827.46
800.671
770.503
735.012
691.563
637.057
568.111
481.26
373.984
248.472
122.627
50.2071
6.95021
-47.3273
-106.982
-158.658
-224.674
-309.064
-389.401
-463.867
-528.024
-577.685
-609.482
-622.642
-617.365
-594.538
-556.237
-505.787
-443.294
-374.127
-318.567
-231.025
-117.73
2.30195
126.568
249.177
368.219
483.712
594.131
696.628
788.123
866.235
928.856
974.106
1000.86
1009.23
1000.96
980.089
951.749
920.237
888.472
858.475
832.033
809.206
787.262
765.251
743.584
722.667
702.867
684.229
666.64
649.75
633.237
616.686
599.595
581.409
561.586
539.692
515.562
489.419
461.647
432.331
401.148
367.765
332.112
294.66
257.409
222.409
190.73
163.181
140.34
122.49
108.969
99.5157
102.598
120.234
92.6276
1125.58
1101.57
1082.39
1060.93
1039.8
1016.73
993.145
969.105
945.372
922.041
899.002
875.902
852.559
828.434
802.283
772.899
738.288
695.728
642.009
573.619
486.956
379.376
253.105
126.913
54.8184
9.57846
-48.1202
-111.405
-166.755
-235.812
-323.572
-407.212
-484.789
-551.772
-603.819
-637.531
-651.919
-646.938
-623.284
-582.851
-528.825
-462.192
-388.048
-328.028
-239.545
-121.881
4.00022
133.826
261.967
386.004
505.715
619.595
724.829
818.241
897.25
959.605
1003.46
1027.85
1033.16
1021.48
997.025
964.936
929.538
893.87
860.067
829.946
804.557
781.032
757.611
734.956
713.022
692.42
673.283
655.653
639.274
623.826
608.957
594.215
579.052
562.881
545.166
525.558
503.982
480.49
454.957
427.05
396.495
363.158
327.862
292.782
259.378
228.44
200.605
176.331
155.875
138.595
124.267
121.85
134.086
99.0614
1124.86
1101.31
1082.86
1061.69
1040.87
1017.88
994.288
970.134
946.246
922.747
899.556
876.413
853.039
829.298
803.782
775.197
741.501
699.883
647.022
579.277
492.916
385.173
258.286
131.823
59.8594
12.4734
-48.4958
-115.483
-174.89
-247.372
-338.348
-425.384
-506.208
-576.189
-630.831
-666.664
-682.458
-677.919
-653.541
-611.035
-553.439
-482.508
-402.744
-336.759
-248.255
-126.406
5.44239
140.997
275.061
404.455
528.71
646.345
754.548
850.059
930.115
992.325
1034.84
1056.85
1059
1043.74
1015.48
979.378