/*--------------------------------*- C++ -*----------------------------------*\
| =========                 |                                                 |
| \\      /  F ield         | OpenFOAM: The Open Source CFD Toolbox           |
|  \\    /   O peration     | Version:  4.1                                   |
|   \\  /    A nd           | Web:      www.OpenFOAM.org                      |
|    \\/     M anipulation  |                                                 |
\*---------------------------------------------------------------------------*/
FoamFile
{
    version     2.0;
    format      ascii;
    class       surfaceScalarField;
    location    "2000";
    object      phi;
}
// * * * * * * * * * * * * * * * * * * * * * * * * * * * * * * * * * * * * * //

dimensions      [0 3 -1 0 0 0 0];

internalField   nonuniform List<scalar> 
52920
(
-2439.73
128.161
-2555.62
115.888
-2645.02
89.4271
-2706.49
61.5103
-2735.39
28.9759
-2729.09
-6.26308
-2683.55
-45.4843
-2594.98
-88.5312
-2463.95
-130.972
-2294.44
-169.453
-2088.94
-205.423
-1847.85
-241.024
-1570.81
-276.963
-1262.45
-308.28
-943.807
-318.574
-626.002
-317.725
-218.692
-407.23
458.531
-677.126
1581.18
-1122.56
2579.98
-998.677
2839.15
-259.045
2852.77
-13.5047
3126.44
-273.595
3339.7
-213.183
3396.86
-57.1011
3319.2
77.7362
3155.62
163.638
2959.79
195.899
2788.89
170.968
2869.52
-80.5586
3118.18
-248.594
3345.47
-227.202
3655.57
-310.043
4090.74
-435.112
4637.3
-546.511
5235.38
-598.042
5809.96
-574.535
6312.56
-502.562
6740.21
-427.612
7123.08
-382.835
7488.86
-365.741
7830.46
-341.568
8110.66
-280.167
8265.17
-154.482
8224.66
40.5335
7982.05
242.635
7585.93
396.167
7066.69
519.254
6451.53
615.204
5783.13
668.403
5119.05
664.133
4515.91
603.14
3995.06
520.907
3428.21
566.856
2406.26
1022
480.936
1925.32
-1910.5
2391.5
-3894.13
1983.62
-4970.76
1076.69
-5349.74
378.967
-5171.77
-177.951
-4851.44
-320.335
-4596.62
-254.801
-4243
-353.639
-3775.11
-467.878
-3319.58
-455.545
-2895.74
-423.828
-2395.35
-500.404
-1765.35
-629.983
-854.111
-911.254
231.196
-1085.29
1394.74
-1163.54
2739.43
-1344.67
4365.75
-1626.32
6404.57
-2038.81
9106.44
-2701.87
12561.7
-3455.23
16513
-3951.33
20426.9
-3913.85
23733.8
-3306.99
26072.8
-2338.98
27403.9
-1331.04
27949.5
-545.64
28047.2
-97.6746
28016.3
30.8421
28086.8
-70.4768
28378.1
-291.248
28908.5
-530.454
29627.8
-719.257
30453
-825.265
31294.2
-841.196
32067.2
-772.978
32701.9
-634.645
33147.6
-445.77
33376.5
-228.905
33385
-8.47444
33196.6
188.393
32848.2
348.402
32418.2
430.01
489.328
-2547.83
255.932
-2665.22
233.278
-2758.41
182.653
-2828.37
131.507
-2873.74
74.4242
-2893.51
13.5357
-2885.08
-53.8504
-2843.54
-130.036
-2766.24
-208.211
-2654.37
-281.27
-2507.54
-352.181
-2322.93
-425.568
-2094.66
-505.175
-1812.6
-590.271
-1464.97
-666.141
-1060.23
-722.396
-640.226
-827.165
-236.529
-1080.74
151.672
-1510.69
802.139
-1649.07
1713.39
-1170.21
2317.71
-617.716
2588.21
-544.012
2820.96
-445.848
2898.76
-134.829
2739.13
237.457
2514.58
388.259
2267.15
443.444
1915.54
522.72
1861.31
-26.1578
2051.86
-439.019
2259.23
-434.463
2599.1
-649.827
3090.53
-926.478
3691.72
-1147.64
4319.95
-1226.22
4897.66
-1152.2
5386.1
-990.958
5788.48
-829.947
6136.93
-731.244
6465
-693.768
6777.03
-653.557
7049.16
-552.259
7230.17
-335.458
7254.08
16.6439
7098.69
398.062
6791.65
703.249
6351.04
959.878
5796.02
1170.27
5160.89
1303.53
4493.77
1331.3
3844.14
1252.77
3247.13
1117.97
2638.01
1175.97
1720.27
1939.77
189.136
3456.44
-1727.65
4308.33
-3358.35
3614.32
-4503.27
2221.66
-5194.69
1070.4
-5253.85
-118.759
-4918.7
-655.491
-4517.2
-656.284
-4114.85
-756
-3724.58
-858.132
-3322.42
-857.725
-2861.61
-884.627
-2314.46
-1047.58
-1667.62
-1276.81
-918.173
-1660.71
23.579
-2027.03
1163.49
-2303.44
2401.52
-2582.68
3708.61
-2933.4
5171.05
-3501.23
7009.87
-4540.69
9431.82
-5877.17
12456.4
-6975.9
15864.5
-7321.96
19238.8
-6681.23
22113.9
-5214.09
24188.5
-3405.71
25441.9
-1799.03
26082.1
-737.818
26405.8
-292.899
26680.4
-345.09
27078.1
-688.906
27660.6
-1112.97
28404.3
-1462.99
29239.3
-1660.25
30080.4
-1682.27
30845.7
-1538.26
31467.5
-1256.42
31897.4
-875.726
32108.5
-440.016
32095.2
4.82038
31877.6
406.054
31488.4
737.565
31002.4
916.007
1034.87
-2686.62
400.495
-2804.87
351.527
-2902.98
280.792
-2978.52
207.072
-3031.87
127.851
-3062.18
43.8713
-3068.66
-47.319
-3047.43
-151.229
-2994.74
-260.856
-2911.01
-364.95
-2795.64
-467.493
-2646.05
-575.105
-2457.62
-693.554
-2223.07
-824.772
-1932.46
-956.696
-1582.47
-1072.34
-1189.69
-1219.9
-777.19
-1493.18
-384.504
-1903.32
55.9898
-2089.52
719.501
-1833.67
1498.14
-1396.29
2047.24
-1093.04
2347.87
-746.417
2472.05
-258.944
2197.12
512.491
2022.61
562.852
2059.18
407.029
1662.18
919.849
1240.7
395.495
1035.86
-234.057
1217.04
-615.521
1650.7
-1083.42
2249.1
-1524.82
2913.08
-1811.58
3545.68
-1858.78
4088.28
-1694.76
4528.39
-1431.03
4882.49
-1184.01
5184.23
-1032.94
5468.87
-978.37
5747.97
-932.617
6007.83
-812.084
6202.56
-530.153
6265.88
-46.6475
6169.16
494.828
5924.85
947.607
5539.68
1345.07
5026.18
1683.82
4411.14
1918.58
3733.3
2009.19
3033.04
1953.02
2354.04
1797.04
1684.57
1845.44
826.274
2798.13
-368.698
4651.41
-1749.02
5688.68
-3085.79
4951.09
-4227.62
3363.51
-4927.46
1770.22
-4943.72
-102.484
-4608.41
-990.816
-4319.21
-945.465
-4069.7
-1005.52
-3770.22
-1157.6
-3392.36
-1235.6
-2938.58
-1338.39
-2418.16
-1568
-1809.28
-1885.69
-1131.72
-2338.28
-332.321
-2826.42
613.495
-3249.26
1624.54
-3593.72
2619.09
-3927.96
3606.42
-4488.55
4720.36
-5654.64
6135.94
-7292.74
8000.73
-8840.68
10409.3
-9730.55
13284.8
-9556.7
16309.6
-8238.95
19052.6
-6148.68
21190.7
-3937.08
22652.1
-2199.28
23594.6
-1235.35
24272.6
-1023.07
24906.8
-1323.13
25620.6
-1826.73
26441.3
-2283.75
27333.1
-2552.01
28230.6
-2579.85
29062.7
-2370.31
29764.5
-1958.26
30283.6
-1394.77
30583.9
-740.311
30649.4
-60.7305
30485.6
569.93
30119
1104.09
29602.4
1432.66
1644.04
-2809.49
556.292
-2930.99
473.029
-3033.8
383.636
-3113.77
287.066
-3172.03
186.189
-3208.4
80.2635
-3223.34
-32.3166
-3214.47
-160.063
-3177.63
-297.644
-3112.28
-430.249
-3018.03
-561.689
-2892.6
-700.475
-2732.13
-853.97
-2531.13
-1025.72
-2282.26
-1205.51
-1980.37
-1374.18
-1632.75
-1567.47
-1256.5
-1869.37
-877.414
-2282.36
-454.363
-2512.52
99.7635
-2387.75
794.878
-2091.35
1465.98
-1764.08
1913.66
-1194.02
2066.26
-411.463
1616.66
962.21
1102.65
1076.93
423.098
1086.7
-254.212
1597.25
-62.8838
204.275
355.426
-652.269
667.404
-927.377
1099.42
-1515.34
1709.71
-2135.04
2351.17
-2452.99
2922.83
-2430.38
3387.79
-2159.68
3755.25
-1798.44
4047.87
-1476.57
4293.32
-1278.34
4520.94
-1205.94
4744.66
-1156.28
4962.03
-1029.41
5142.16
-710.24
5230.08
-134.543
5200.61
524.337
5042.12
1106.16
4730.39
1656.81
4269.44
2144.81
3681.92
2506.09
3001.65
2689.5
2260.23
2694.44
1502.68
2554.64
765.313
2582.81
-70.1395
3633.64
-1032.99
5614.26
-2053.27
6708.99
-3197.19
6095.01
-4271.99
4438.35
-4845.97
2344.2
-4773.23
-175.19
-4501.2
-1262.85
-4314.52
-1132.12
-4119.28
-1200.78
-3844.29
-1432.57
-3498.62
-1581.29
-3083.75
-1753.26
-2600.22
-2051.54
-2042.11
-2443.78
-1423.74
-2956.65
-704.409
-3545.75
138.523
-4092.19
1070.59
-4525.77
2043.83
-4901.2
3023.43
-5468.14
3992.72
-6623.92
4971.54
-8271.56
6042.66
-9911.8
7383.31
-11071.2
9173.04
-11346.4
11426.9
-10492.8
13930
-8651.86
16334.2
-6341.24
18343.8
-4208.84
19862.5
-2754.09
21001.1
-2161.62
21967.5
-2289.54
22935.2
-2794.48
23977.6
-3326.09
25080.8
-3655.2
26185.3
-3684.42
27215.1
-3400.04
28094.4
-2837.56
28758.7
-2059.11
29165.6
-1147.19
29300.7
-195.835
29168.7
701.883
28804.7
1468.08
28242.3
1995.07
2321.37
-2909.74
719.169
-3036.52
599.805
-3145.09
492.231
-3230.7
372.695
-3294.72
250.281
-3337.39
122.955
-3359.59
-10.0639
-3360.59
-159.035
-3336.51
-321.681
-3285.66
-481.052
-3208.02
-639.285
-3101.6
-806.847
-2963
-992.528
-2787.7
-1200.98
-2569.77
-1423.4
-2303.52
-1640.4
-1991.67
-1879.28
-1647.68
-2213.32
-1291.13
-2638.88
-890.181
-2913.43
-385.268
-2892.64
244.357
-2720.94
931.415
-2451.1
1491.06
-1753.61
1628.62
-548.948
860.239
1730.69
-285.968
2223.18
-1147.33
1948.11
-1185.87
1635.83
-723.042
-258.508
-255.04
-1120.22
194.469
-1376.82
678.934
-1999.75
1247.24
-2703.3
1821.07
-3026.79
2312.44
-2921.71
2701.35
-2548.55
3011.84
-2108.89
3267.87
-1732.56
3486.53
-1496.95
3682.36
-1401.73
3857.07
-1330.94
4008.01
-1180.31
4117.89
-820.072
4153.21
-169.833
4142.26
535.338
4073.73
1174.77
3861.46
1869.09
3484.65
2521.67
2954.9
3035.85
2302.62
3341.84
1550.67
3446.4
734.368
3371
-70.4248
3387.61
-875.882
4439.15
-1646.58
6384.95
-2469.25
7531.69
-3480.75
7106.5
-4425.42
5383.03
-4845.4
2764.16
-4685.36
-335.209
-4461.06
-1487.17
-4323.51
-1269.66
-4151.47
-1372.83
-3911.28
-1672.74
-3616.78
-1875.8
-3252.89
-2117.14
-2809.98
-2494.45
-2290.46
-2963.3
-1712.65
-3534.46
-1062.05
-4196.34
-302.394
-4851.85
586.339
-5414.5
1593.43
-5908.3
2673.85
-6548.55
3736.31
-7686.39
4718.48
-9253.73
5628.01
-10821.3
6546.29
-11989.5
7629.04
-12429.2
9020.52
-11884.2
10733.7
-10365
12627.8
-8235.4
14486.4
-6067.38
16158.8
-4426.48
17649.4
-3652.22
19062
-3702.14
20478.1
-4210.58
21907.9
-4755.91
23313.3
-5060.64
24635.1
-5006.15
25804.1
-4569.04
26754.9
-3788.36
27435.6
-2739.86
27821.3
-1532.91
27913.2
-287.746
27721.8
893.283
27293.7
1896.27
26653.3
2635.41
3064.46
-2990.34
867.57
-3127.48
736.945
-3242.07
606.852
-3334.68
465.329
-3405.33
321.002
-3454.62
172.271
-3483.48
18.8529
-3493.04
-149.441
-3479.9
-334.775
-3441.2
-519.702
-3377.32
-703.105
-3286.61
-897.511
-3165.98
-1113.1
-3011.58
-1355.33
-2818.32
-1616.62
-2580.33
-1878.34
-2297.76
-2161.81
-1981.21
-2529.82
-1645.97
-2974.08
-1266.67
-3292.69
-796.683
-3362.58
-227.362
-3290.22
423.994
-3102.42
1077.58
-2407.15
1063.66
-534.94
195.823
2598.61
-869.417
3288.46
-1627.67
2706.41
-1633.67
1641.89
-1146.46
-745.662
-698.053
-1568.58
-264.573
-1810.23
241.346
-2505.61
771.26
-3233.15
1277.12
-3532.61
1700.25
-3344.79
2031.35
-2879.6
2308.61
-2386.1
2561.36
-1985.26
2797.97
-1733.51
3010.76
-1614.46
3174.65
-1494.77
3274.63
-1280.24
3294.72
-840.111
3197.15
-72.2156
3095.33
637.206
3041.8
1228.37
2902.43
2008.48
2621.21
2802.94
2179.82
3477.24
1596.03
3925.67
879.653
4162.77
43.37
4207.34
-795.595
4226.58
-1527.92
5171.52
-2164.4
7021.43
-2908.1
8275.42
-3792.71
7991.11
-4569.5
6159.85
-4864.39
3059.04
-4667.14
-532.435
-4468.89
-1685.42
-4335.64
-1402.89
-4182.23
-1526.25
-3984.86
-1870.1
-3736.54
-2124.12
-3415.61
-2438.06
-3016.98
-2893.09
-2543.84
-3436.43
-2005.02
-4073.29
-1400.81
-4800.55
-710.853
-5541.81
101.92
-6227.26
1061.75
-6868.13
2138.52
-7625.31
3227.81
-8775.68
4252.75
-10278.7
5211.56
-11780.1
6137.03
-12914.9
7105.72
-13397.9
8216.12
-12994.6
9509.75
-11658.7
10957
-9682.65
12503.1
-7613.47
14117.1
-6040.5
15778.8
-5313.9
17444.7
-5368.08
19060.5
-5826.3
20586.8
-6282.29
21996.7
-6470.54
23258.5
-6267.93
24328.6
-5639.14
25163.6
-4623.37
25727.6
-3303.79
26010.4
-1815.79
26020
-297.322
25760.6
1152.64
25275.5
2381.4
24584.3
3326.57
3844.38
-3063.75
1028.45
-3207.8
880.998
-3329.5
728.574
-3429.47
565.32
-3507.09
398.678
-3563.02
228.225
-3598.11
53.9857
-3615.3
-132.228
-3611.85
-338.182
-3583.81
-547.702
-3531.89
-754.985
-3454.72
-974.634
-3349.52
-1218.26
-3212.82
-1491.99
-3040.09
-1789.32
-2825.47
-2092.93
-2567.56
-2419.69
-2274.67
-2822.67
-1958.78
-3289.95
-1599.53
-3651.91
-1158.7
-3803.39
-628.285
-3820.61
-29.4048
-3701.27
575.944
-3012.47
494.097
-453.037
-317.201
3409.96
-1188.52
4159.81
-1871.93
3389.84
-1964.48
1734.47
-1532.27
-1177.85
-1077.96
-2022.87
-646.46
-2241.69
-172.356
-2979.68
313.977
-3719.45
766.726
-3985.33
1136.1
-3714.13
1427.07
-3170.54
1692.56
-2651.55
1964.98
-2257.64
2239.9
-2008.38
2484.36
-1858.88
2650.68
-1661.05
2719.12
-1348.63
2677.04
-797.978
2459.59
145.282
2228.45
868.411
2102.21
1354.7
1954.84
2155.87
1725.55
3032.29
1362.71
3840.09
862.263
4426.18
216.138
4808.9
-580.839
5004.37
-1369.41
5015.16
-2005.23
5807.38
-2611.04
7627.24
-3325.76
8990.16
-4071.59
8736.93
-4683.49
6771.76
-4892.43
3267.96
-4684.51
-740.343
-4493.68
-1876.26
-4358.96
-1537.6
-4225.85
-1659.38
-4061.27
-2034.66
-3843.33
-2342.07
-3555.44
-2725.94
-3197.41
-3251.12
-2770.25
-3863.58
-2279.19
-4564.35
-1728.23
-5351.5
-1111.51
-6158.54
-399.802
-6938.97
448.354
-7716.29
1430.52
-8607.47
2456.57
-9801.74
3445.43
-11267.5
4396.46
-12731.2
5354.3
-13872.8
6382.45
-14426
7539.06
-14151.2
8835.31
-12954.9
10237
-11084.3
11710.1
-9086.58
13237.5
-7567.93
14780.4
-6856.82
16275.9
-6863.54
17679.9
-7230.26
18979.3
-7581.75
20170
-7661.24
21236.8
-7334.7
22143.6
-6545.9
22846.7
-5326.48
23302
-3759.1
23498.1
-2011.9
23446
-245.256
23149.7
1449
22644.8
2886.24
21953.1
4018.25
4624.77
-3130.67
1199.18
-3280.68
1031.01
-3409.87
857.789
-3517.26
672.739
-3602.06
483.536
-3664.78
290.975
-3706.12
95.3802
-3730.15
-108.165
-3735.12
-333.162
-3716.69
-566.089
-3675.42
-796.208
-3610.25
-1039.75
-3518.61
-1309.86
-3397.32
-1613.23
-3242.19
-1944.41
-3047.49
-2287.58
-2810.88
-2656.27
-2538.8
-3094.71
-2240.51
-3588.2
-1899.36
-3993.03
-1484.03
-4218.7
-986.319
-4318.28
-428.063
-4259.5
86.9374
-3527.43
23.2113
-389.245
-651.781
4085.01
-1395.04
4903.11
-2048.42
4043.25
-2211.6
1897.69
-1854.77
-1534.64
-1418.44
-2459.16
-991.579
-2668.5
-553.256
-3417.96
-110.164
-4162.5
293.847
-4389.3
622.065
-4042.3
888.779
-3437.2
1155.75
-2918.46
1451.02
-2552.85
1752.55
-2309.85
2009.1
-2115.37
2164.64
-1816.53
2202.4
-1386.34
2105.11
-700.639
1811.13
439.323
1516.6
1163
1316.54
1554.84
1108.48
2363.96
872.265
3268.57
546.63
4165.73
111.997
4860.86
-449.518
5370.42
-1132.73
5687.64
-1795.79
5678.22
-2384.56
6396.19
-3019.14
8261.82
-3695.78
9666.83
-4308.38
9349.54
-4779.18
7242.58
-4922.79
3411.57
-4714.7
-948.413
-4539.84
-2051.12
-4417.23
-1660.19
-4298.72
-1777.9
-4151.91
-2181.46
-3951.72
-2542.26
-3690.7
-2986.95
-3371.35
-3570.48
-2992.89
-4242.03
-2559.96
-4997.28
-2077.81
-5833.64
-1543.26
-6693.09
-936.654
-7545.57
-222.92
-8430.03
621.235
-9451.62
1544.4
-10724.9
2471.43
-12194.5
3389.3
-13649
4342.12
-14825.6
5391.44
-15475.3
6586.33
-15346.1
7920.15
-14288.7
9316.66
-12480.8
10694.8
-10464.7
12023
-8896.2
13290.6
-8124.41
14482
-8054.92
15596.3
-8344.56
16652.8
-8638.28
17668.1
-8676.52
18629.3
-8295.9
19478.7
-7395.25
20141.7
-5989.49
20544.9
-4162.34
20669.8
-2136.73
20536.8
-112.316
20168.3
1817.52
19608.9
3445.66
18901
4726.09
5406.48
-3192.32
1378.04
-3348.07
1186.75
-3484.61
994.354
-3599.48
787.624
-3691.62
575.731
-3761.31
360.682
-3809.15
143.262
-3839.35
-77.9401
-3851.47
-321.003
-3841.82
-575.709
-3810.2
-827.788
-3755.84
-1094.07
-3676.35
-1389.31
-3568.75
-1720.8
-3429.08
-2084.05
-3251.77
-2464.86
-3033.93
-2874.09
-2780.46
-3348.15
-2498.4
-3870.23
-2173.82
-4317.58
-1780.72
-4611.78
-1311.52
-4787.46
-788.845
-4782.15
-327.907
-3988.34
-325.218
-391.897
-805.475
4565.3
-1506.37
5604.02
-2202.21
4739.1
-2399.68
2095.19
-2115.82
-1818.48
-1712.7
-2862.26
-1306.12
-3075.06
-902.441
-3821.62
-506.979
-4557.94
-152.342
-4743.91
143.062
-4337.67
404.792
-3698.9
681.303
-3194.94
990.129
-2861.64
1299.67
-2619.35
1550.93
-2366.59
1686.34
-1951.89
1691.16
-1391.11
1528.78
-538.202
1172.18
795.99
868.546
1466.71
627.55
1795.93
356.752
2634.78
89.0071
3536.39
-233.469
4488.22
-631.544
5259
-1086.67
5825.55
-1593.33
6194.35
-2145.53
6230.42
-2741.26
6991.94
-3386.12
8906.68
-4004.74
10285.5
-4505.73
9850.52
-4861.93
7598.79
-4950.84
3500.46
-4766.02
-1133.22
-4629.94
-2187.22
-4524.75
-1765.37
-4413.88
-1888.77
-4278.33
-2317
-4093.79
-2726.81
-3859.76
-3220.97
-3581.08
-3849.17
-3257.02
-4566.09
-2892.17
-5362.13
-2490.5
-6235.31
-2044.87
-7138.72
-1534.95
-8055.49
-935.582
-9029.41
-226.522
-10160.7
575.204
-11526.6
1427.59
-13046.9
2316.73
-14538.2
3267.05
-15775.9
4317.78
-16526.1
5504.04
-16532.4
6804.03
-15588.7
8105.62
-13782.4
9291.31
-11650.4
10336.3
-9941.16
11273.9
-9062.04
12148.1
-8929.07
13023
-9219.52
13960.5
-9575.8
14969.1
-9685.07
15985.2
-9311.98
16887.7
-8297.79
17562.4
-6664.17
17919
-4519
17952.5
-2170.25
17695.6
144.585
17181.4
2331.75
16472.2
4154.91
15661.4
5536.84
6233.48
-3250.11
1563.93
-3411.09
1347.75
-3554.81
1138.1
-3677.15
909.988
-3776.76
675.396
-3853.5
437.458
-3907.85
197.656
-3943.69
-42.0669
-3962.13
-302.512
-3960.57
-577.228
-3937.8
-850.513
-3893.3
-1138.52
-3824.85
-1457.71
-3729.6
-1816.01
-3603.76
-2209.85
-3441.93
-2626.65
-3240.89
-3075.09
-3004.29
-3584.71
-2737.36
-4137.14
-2428.18
-4626.73
-2054.98
-4984.94
-1611.09
-5231.33
-1120.04
-5273.17
-703.178
-4405.18
-646.86
-448.162
-935.334
4853.82
-1589.4
6258.11
-2338.55
5488.28
-2556.02
2312.7
-2327.47
-2047
-1965.01
-3224.68
-1591.02
-3449.01
-1223.25
-4189.35
-869.206
-4911.96
-558.542
-5054.54
-302.446
-4593.72
-53.287
-3948.02
240.783
-3488.96
564.029
-3184.84
872.721
-2927.98
1112.79
-2606.6
1227.59
-2066.62
1199.97
-1363.43
982.97
-321.144
571.518
1207.51
257.597
1780.7
-10.1824
2063.81
-334.751
2959.37
-634.217
3835.92
-956.583
4810.59
-1286.52
5588.99
-1609.26
6148.29
-1979.91
6565.05
-2480.79
6731.3
-3084.38
7595.57
-3700.63
9522.94
-4251.31
10836.2
-4665.77
10265
-4932.27
7865.31
-4982.1
3550.29
-4849.65
-1265.64
-4766.24
-2270.64
-4680.18
-1851.41
-4578.56
-1990.41
-4457.84
-2437.71
-4295.23
-2889.42
-4093.49
-3422.7
-3859.72
-4082.94
-3593.86
-4831.95
-3299.3
-5656.68
-2977.05
-6557.56
-2614.87
-7500.9
-2188.45
-8481.91
-1675.52
-9542.34
-1069.95
-10766.2
-386.033
-12210.5
366.186
-13799.1
1193.09
-15365.1
2117.98
-16700.8
3163.22
-17571.3
4332.2
-17701.4
5568.14
-16824.7
6718.55
-14932.8
7636.04
-12567.9
8325.7
-10630.8
8913.59
-9649.94
9557.54
-9573.02
10385.1
-10047.1
11414.6
-10605.3
12548.6
-10819.1
13638.8
-10402.1
14530.4
-9189.46
15121.3
-7255.07
15342.3
-4739.99
15236.2
-2064.11
14856.6
524.13
14204.4
2983.94
13320.3
5039
12359.3
6497.85
7144.48
-3302.47
1739.78
-3471.09
1516.36
-3621.12
1288.14
-3750.96
1039.85
-3858.04
782.52
-3941.88
521.32
-4002.59
258.397
-4043.66
-0.971082
-4067.96
-278.169
-4073.92
-571.235
-4059.3
-865.096
-4023.88
-1173.91
-3965.58
-1515.98
-3881.61
-1899.94
-3768.33
-2323.1
-3620.51
-2774.45
-3434.74
-3260.84
-3213.64
-3805.79
-2960.91
-4389.84
-2666.22
-4921.4
-2311.17
-5339.97
-1890.23
-5652.26
-1428.39
-5734.99
-1050.81
-4782.74
-987.044
-511.906
-1196.4
5063.2
-1764.81
6826.54
-2462.6
6186.09
-2697.01
2547.12
-2506.73
-2237.25
-2188.03
-3543.38
-1851.19
-3785.83
-1523.16
-4517.37
-1207.15
-5227.94
-921.259
-5340.42
-683.176
-4831.78
-465.262
-4165.9
-191.546
-3762.64
143.539
-3519.89
461.149
-3245.55
691.914
-2837.32
788.29
-2162.95
731.211
-1306.29
476.747
-66.6125
19.1461
1665.18
-322.843
2122.76
-618.801
2359.87
-988.586
3329.18
-1285.2
4132.6
-1539.93
5065.33
-1781.97
5831.09
-2035.06
6401.38
-2348.11
6878.13
-2822.47
7205.66
-3404.79
8177.9
-3966.27
10084.4
-4445.85
11315.7
-4794.89
10614
-4999.51
8069.93
-5034.72
3585.49
-4974.28
-1326.07
-4942.45
-2302.48
-4878.26
-1915.59
-4792.76
-2075.91
-4693.39
-2537.06
-4559.91
-3022.91
-4395.92
-3586.69
-4209.87
-4268.99
-4001.23
-5040.58
-3770.94
-5886.98
-3516.89
-6811.61
-3224.38
-7793.41
-2870.29
-8836
-2435.81
-9976.82
-1919.18
-11282.9
-1336.25
-12793.5
-691.548
-14443.8
38.9403
-16095.6
893.388
-17555.2
1897.23
-18575.2
3028.05
-18832.2
4174.84
-17971.5
5131.55
-15889.5
5738.77
-13175.1
6088.98
-10981
6472.71
-10033.7
7135.13
-10235.4
8113.38
-11025.4
9256.99
-11748.9
10379.8
-11941.9
11347.4
-11369.8
12059.9
-9901.95
12452.8
-7647.95
12444.4
-4731.58
12128.9
-1748.59
11646.7
1006.34
10964.6
3666.04
10008.6
5994.95
8964.41
7542.06
8133.06
-3354.11
1922.85
-3528.14
1690.4
-3684.22
1444.24
-3821.39
1177.04
-3935.89
897.071
-4026.8
612.256
-4093.71
325.346
-4139.69
45.0474
-4169.56
-248.248
-4182.59
-558.164
-4175.51
-872.126
-4148.5
-1200.87
-4099.6
-1564.84
-4026.08
-1973.43
-3924.36
-2424.78
-3789.4
-2909.37
-3617.69
-3432.51
-3410.97
-4012.47
-3171.73
-4629.06
-2890.81
-5202.28
-2552.61
-5678.15
-2152.91
-6051.93
-1718.64
-6169.24
-1377.21
-5124.14
-1337.48
-551.588
-1545.99
5271.76
-2014.36
7294.94
-2585.2
6756.95
-2821.66
2783.61
-2664.21
-2394.66
-2390.37
-3817.19
-2091.9
-4084.27
-1802.91
-4806.34
-1525.4
-5505.42
-1260.61
-5605.18
-1017.46
-5074.9
-798.141
-4385.19
-566.427
-3994.31
-274.55
-3811.72
42.2919
-3562.34
279.622
-3074.59
369.3
-2252.56
286.816
-1223.74
1.39038
218.882
-491.116
2157.76
-892.844
2524.56
-1228.38
2695.52
-1572.22
3673.05
-1764.48
4324.93
-1945.84
5246.69
-2183.82
6069.12
-2432.1
6649.66
-2721.45
7167.52
-3165.07
7649.29
-3704.65
8717.51
-4200.72
10580.5
-4608.03
11723.1
-4908.93
10914.9
-5083.24
8244.26
-5129.38
3631.62
-5143.67
-1311.75
-5153.75
-2292.41
-5112.63
-1956.7
-5048.25
-2140.29
-4975.24
-2610.06
-4875.27
-3122.87
-4751.44
-3710.51
-4612.71
-4407.73
-4457.09
-5196.19
-4282.82
-6061.25
-4086
-7008.42
-3852.89
-8026.53
-3565.25
-9123.63
-3209.43
-10332.6
-2784.6
-11707.7
-2300.18
-13277.9
-1753.81
-14990.2
-1121.81
-16727.6
-364.666
-18312.4
548.972
-19488.8
1591.22
-19874.4
2614.72
-18995
3363.49
-16638.3
3695.79
-13507.4
3852.51
-11137.7
4264.88
-10446
5079.03
-11049.6
6115.02
-12061.4
7139.91
-12773.8
8034.44
-12836.5
8759.16
-12094.5
9286.31
-10429.1
9546.1
-7907.74
9367.26
-4552.75
8783.29
-1164.63
8095.47
1694.16
7401.12
4360.39
6456.88
6939.19
5492.85
8506.08
9130.01
-3404.76
2111.92
-3582.73
1868.37
-3744.68
1606.21
-3888.84
1321.21
-4010.65
1018.92
-4108.54
710.166
-4181.51
398.343
-4232.14
95.7056
-4267.36
-212.993
-4287.09
-538.408
-4287.02
-872.156
-4267.84
-1220.02
-4227.74
-1604.91
-4163.97
-2037.17
-4073.03
-2515.7
-3950.03
-3032.35
-3791.43
-3591.08
-3598.23
-4205.66
-3371.87
-4855.4
-3104.18
-5469.95
-2781.84
-6000.47
-2402.1
-6431.65
-1994.2
-6577.12
-1686.49
-5431.84
-1673.93
-564.126
-1883.91
5481.76
-2261.01
7672.05
-2711.64
7207.59
-2932.64
3004.62
-2808.12
-2519.16
-2577.58
-4047.71
-2316.84
-4345.01
-2064.03
-5059.13
-1821.93
-5747.51
-1580.47
-5846.63
-1336
-5319.35
-1098.21
-4622.96
-871.202
-4221.29
-629.554
-4053.34
-364.711
-3827.14
-144.881
-3294.38
-53.3132
-2344.07
-180.333
-1096.66
-492.973
531.6
-984.429
2649.29
-1493.7
3033.9
-1744.23
2946.15
-1918.59
3847.43
-2096.91
4503.3
-2312.33
5462.13
-2569.44
6326.26
-2823.98
6904.21
-3096.18
7439.75
-3502.7
8055.82
-3995.08
9209.91
-4424.82
11010.2
-4762.75
12061
-5030.78
11182.9
-5203.98
8417.47
-5278.72
3706.35
-5357.46
-1233
-5398.01
-2251.86
-5377.36
-1977.34
-5335.6
-2182.07
-5291.99
-2653.67
-5227.15
-3187.72
-5143
-3794.66
-5048.78
-4501.95
-4941.43
-5303.54
-4817.36
-6185.32
-4672.41
-7153.37
-4495.39
-8203.56
-4272.86
-9346.16
-3994.53
-10611
-3658.71
-12043.5
-3269.76
-13666.9
-2821.5
-15438.5
-2289.8
-17259.3
-1638.2
-18964
-842.211
-20284.8
63.7507
-20780.4
922.075
-19853.3
1472.35
-17188.6
1622.93
-13658
1743.05
-11257.9
2248.74
-10951.7
3073.8
-11874.6
3939.02
-12926.6
4690.47
-13525.2
5314.07
-13460.1
5827.89
-12608.3
6255.17
-10856.4
6516.04
-8168.61
6469.36
-4506.08
5857.71
-552.974
4876.47
2675.4
3957.03
5279.84
2973.34
7922.88
2170.52
9308.9
10222.8
-3454.3
2306.07
-3635.5
2049.57
-3802.91
1773.64
-3953.67
1472
-4082.63
1147.93
-4187.45
815.008
-4266.53
477.464
-4322.21
151.425
-4362.38
-172.784
-4387.76
-512.984
-4394.3
-865.57
-4382.45
-1231.82
-4350.64
-1636.69
-4296.08
-2091.68
-4215.3
-2596.44
-4103.57
-3144.04
-3957.34
-3737.29
-3776.94
-4386.02
-3563
-5069.31
-3308.12
-5724.8
-3000.89
-6307.68
-2640.09
-6792.43
-2257.37
-6959.81
-1980.94
-5708.25
-1989.66
-555.361
-2186.13
5678.27
-2487.63
7973.57
-2845.17
7565.16
-3037.75
3197.23
-2942.78
-2614.1
-2752.8
-4237.67
-2528.08
-4569.69
-2308.2
-5278.98
-2097.59
-5958.09
-1879.15
-6065.05
-1641.49
-5556.98
-1391.46
-4872.96
-1151.34
-4461.38
-926.774
-4277.87
-715.846
-4038.02
-564.58
-3445.59
-557.641
-2350.93
-881.958
-772.255
-922.807
572.537
-974.538
2701.09
-1586.9
3646.33
-1981.02
3340.36
-2191.52
4057.95
-2448.3
4760.13
-2700.3
5714.13
-2956.68
6582.68
-3201.96
7149.5
-3458.1
7695.92
-3836.09
8433.81
-4286.28
9660.11
-4654.7
11378.6
-4932.1
12338.4
-5180.74
11431.6
-5371.68
8608.43
-5480.56
3815.22
-5609.9
-1103.64
-5672.58
-2189.19
-5668.89
-1981.01
-5650.16
-2200.8
-5637.02
-2666.8
-5607.22
-3217.51
-5561.13
-3840.74
-5507.96
-4555.11
-5444.84
-5366.66
-5367.44
-6262.71
-5272.18
-7248.63
-5150.12
-8325.62
-4990.8
-9505.47
-4786.04
-10815.7
-4534.25
-12295.3
-4237.76
-13963.3
-3889.2
-15787
-3465.12
-17683.4
-2930.44
-19498.6
-2263.19
-20952.1
-1505.43
-21538.1
-814.147
-20544.6
-422.194
-17580.5
-360.703
-13719.4
-241.442
-11377.1
216.065
-11409.3
844.454
-12503
1423.89
-13506
1878.08
-13979.4
2220.64
-13802.6
2479.49
-12867.1
2689.91
-11066.8
2836.26
-8314.97
3059.25
-4729.08
2850.83
-344.566
1699.66
3826.57
296.525
6682.98
-864.251
9083.65
-1959.98
10404.6
11619.3
-3503.21
2504.57
-3686.88
2233.25
-3859.31
1946.08
-4016.25
1628.95
-4152.13
1283.84
-4263.77
926.66
-4349
562.728
-4410.13
212.579
-4454.8
-128.088
-4484.88
-482.874
-4497.68
-852.729
-4492.79
-1236.69
-4468.85
-1660.6
-4423.07
-2137.43
-4351.98
-2667.51
-4250.98
-3245.02
-4116.52
-3871.73
-3948.39
-4554.12
-3746.5
-5271.18
-3504.09
-5967.2
-3211.4
-6600.35
-2868.77
-7135.04
-2510.24
-7318.33
-2263.17
-5955.31
-2288.88
-529.643
-2466.81
5856.22
-2709.15
8215.92
-2989.68
7845.7
-3143.28
3350.84
-3070.56
-2686.8
-2917.67
-4390.54
-2726.28
-4761.07
-2536.61
-5468.64
-2354.29
-6140.4
-2158.4
-6260.93
-1932.56
-5782.81
-1680.44
-5125.07
-1428.26
-4713.53
-1198.04
-4508.07
-1016.21
-4219.83
-957.247
-3504.52
-1199.02
-2109.11
-2109.62
138.433
-2813.66
1276.68
-2310.5
2197.97
-2025.03
3360.91
-2360.27
3675.67
-2511.2
4208.89
-2778.4
5027.37
-3062.71
5998.45
-3330.07
6850.07
-3562.4
7381.83
-3804.13
7937.68
-4163.78
8793.46
-4579.59
10075.9
-4896.56
11695.6
-5127.47
12569.4
-5367.05
11671.1
-5579.73
8821.12
-5719.06
3954.53
-5890.14
-932.547
-5972.9
-2106.44
-5986.4
-1967.5
-5991.12
-2196.09
-6006.77
-2651.14
-6011.01
-3213.28
-6001.4
-3850.34
-5986.07
-4570.45
-5963.77
-5388.96
-5930.08
-6296.4
-5881.87
-7296.84
-5812.04
-8395.46
-5712.46
-9605.05
-5577.25
-10950.9
-5405.93
-12466.6
-5200.1
-14169.2
-4952.41
-16034.7
-4641.4
-17994.4
-4234.93
-19905.1
-3710.82
-21476.2
-3100.23
-22148.7
-2533.83
-21111
-2195.49
-17918.9
-2100.95
-13814
-1997.87
-11480.2
-1732.79
-11674.3
-1410.16
-12825.6
-1160.14
-13756
-1034.7
-14104.9
-1028.51
-13808.8
-1119.06
-12776.6
-1314.45
-10871.4
-1527.81
-8101.61
-1703.84
-4553.04
-2320.11
271.699
-2764.62
4271.09
-4031.5
7949.85
-5322.53
10374.7
-6781.35
11863.5
12931.5
-3549.41
2690.75
-3737.69
2421.54
-3914.15
2122.57
-4076.9
1791.71
-4219.37
1426.36
-4337.7
1045.01
-4429.02
654.085
-4495.39
278.989
-4544.16
-79.2785
-4578.66
-448.329
-4597.47
-833.873
-4599.23
-1234.88
-4582.84
-1676.95
-4545.51
-2174.72
-4483.75
-2729.24
-4393.07
-3335.66
-4269.93
-3994.84
-4113.65
-4710.37
-3923.53
-5461.27
-3693.34
-6197.36
-3414.77
-6878.89
-3089.74
-7460.05
-2754.67
-7653.38
-2535.7
-6174.26
-2576.02
-489.278
-2736.26
6016.49
-2931.84
8411.52
-3142.99
8056.87
-3250
3457.87
-3192.29
-2744.47
-3072.09
-4510.72
-2911.06
-4922.08
-2749.93
-5629.75
-2594.09
-6296.22
-2421.05
-6433.94
-2210.92
-5992.92
-1964
-5371.96
-1707.4
-4970.11
-1466.94
-4748.5
-1279.96
-4406.78
-1251.3
-3533.13
-1667.6
-1692.74
-2847.9
1318.84
-3705.05
2133.92
-3272.9
1765.88
-2754.88
2842.95
-2801.68
3722.54
-2834.76
4241.99
-3043.86
5236.51
-3338.46
6293.05
-3654.83
7166.47
-3915.34
7642.34
-4148.68
8171.05
-4482.77
9127.55
-4866.82
10460
-5146.31
11975.1
-5348.34
12771.4
-5583.74
11906.5
-5808.87
9046.27
-5972.12
4117.78
-6184.32
-720.338
-6293.43
-1997.33
-6329.27
-1931.65
-6357.02
-2168.34
-6397.62
-2610.53
-6434.24
-3176.66
-6459.41
-3825.16
-6479.04
-4550.83
-6494.34
-5373.64
-6501.18
-6289.56
-6496.67
-7301.34
-6475.63
-8416.51
-6432.34
-9648.33
-6363.28
-11020
-6269.07
-12560.8
-6151.44
-14286.8
-6004.63
-16181.5
-5810.8
-18188.2
-5541.4
-20174.5
-5171.93
-21845.6
-4714.42
-22606.2
-4253.68
-21571.7
-3924.05
-18248.5
-3775.07
-13963
-3694.63
-11560.6
-3595.5
-11773.5
-3524.27
-12896.9
-3553.07
-13727.2
-3713.66
-13944.3
-4000.38
-13522.1
-4389.77
-12387.2
-4880.86
-10380.3
-5469.6
-7512.87
-6190.23
-3832.43
-6783.52
864.986
-7699.02
5186.58
-8729.11
8979.95
-9790.57
11436.1
-10871.7
12944.5
13780.1
-3596.5
2881.43
-3787.8
2612.83
-3967.76
2302.54
-4135.86
1959.81
-4284.58
1575.12
-4409.46
1169.9
-4506.82
751.476
-4578.25
350.429
-4630.66
-26.8305
-4669.32
-409.649
-4693.92
-809.241
-4702.12
-1226.64
-4693.05
-1686
-4663.92
-2203.83
-4611.21
-2781.93
-4530.56
-3416.29
-4418.4
-4106.98
-4273.63
-4855.12
-4095.07
-5639.82
-3876.94
-6415.48
-3612.2
-7143.61
-3304.35
-7767.88
-2992.26
-7965.46
-2800.51
-6366
-2853.52
-436.251
-2996.61
6159.6
-3151.41
8566.33
-3297.35
8202.82
-3355.36
3515.9
-3307.51
-2792.31
-3215.15
-4603.06
-3082.25
-5054.96
-2948.75
-5763.25
-2819.15
-6425.81
-2670.31
-6582.77
-2479.34
-6183.88
-2243.35
-5607.93
-1989.08
-5224.36
-1743.62
-4993.94
-1547.15
-4603.23
-1533.92
-3546.33
-2096.94
-1129.68
-3157.51
2379.51
-3704.65
2681.12
-3701.84
1763.11
-3440.57
2581.72
-3299.94
3581.97
-3225.53
4167.59
-3297.89
5308.91
-3537.85
6533.01
-3901.49
7530.13
-4240.99
7981.85
-4493.73
8423.81
-4792.1
9425.92
-5140.81
10808.7
-5397.85
12232.1
-5587.35
12960.9
-5816.26
12135.4
-6038.96
9268.97
-6225.01
4303.82
-6486.11
-459.229
-6632.9
-1850.55
-6695.02
-1869.52
-6743.36
-2120.01
-6805.5
-2548.38
-6872.06
-3110.12
-6929.93
-3767.28
-6982
-4498.77
-7031.74
-5323.9
-7075.92
-6245.39
-7111.98
-7265.28
-7136.59
-8391.9
-7146.34
-9638.59
-7139.77
-11026.6
-7118.85
-12581.8
-7086.4
-14319.3
-7039.45
-16228.5
-6964.83
-18262.8
-6838.22
-20301.1
-6631.33
-22052.5
-6330.26
-22907.3
-5964.22
-21937.8
-5621.1
-18591.6
-5407.32
-14176.8
-5358.32
-11609.6
-5430.12
-11701.7
-5599.42
-12727.6
-5883.16
-13443.5
-6300.48
-13527
-6855.04
-12967.5
-7527.29
-11714.9
-8301.93
-9605.7
-9215.98
-6598.83
-10276.7
-2771.67
-11166.5
1754.74
-11999.8
6019.94
-12716.9
9696.98
-13405.4
12124.7
-14023.8
13562.9
14274.6
-3644.29
3076.18
-3837.26
2805.81
-4020.43
2485.73
-4193.32
2132.72
-4347.9
1729.75
-4479.12
1301.14
-4582.43
854.827
-4658.71
426.741
-4714.43
28.9385
-4757.08
-366.957
-4787.31
-778.965
-4801.78
-1212.13
-4799.84
-1687.9
-4778.74
-2224.88
-4734.93
-2825.71
-4664.08
-3487.1
-4562.64