/*--------------------------------*- C++ -*----------------------------------*\
| =========                 |                                                 |
| \\      /  F ield         | OpenFOAM: The Open Source CFD Toolbox           |
|  \\    /   O peration     | Version:  4.1                                   |
|   \\  /    A nd           | Web:      www.OpenFOAM.org                      |
|    \\/     M anipulation  |                                                 |
\*---------------------------------------------------------------------------*/
FoamFile
{
    version     2.0;
    format      ascii;
    class       volVectorField;
    location    "2000";
    object      U;
}
// * * * * * * * * * * * * * * * * * * * * * * * * * * * * * * * * * * * * * //

dimensions      [0 1 -1 0 0 0 0];

internalField   nonuniform List<vector> 
26785
(
(-2.45199e-13 0.0115986 -19.3448)
(-2.42257e-13 0.00764204 -19.7859)
(-2.44649e-13 -0.00286608 -19.8261)
(-2.4672e-13 -0.0141694 -19.7127)
(-2.08017e-13 -0.0274149 -19.3816)
(-1.50121e-13 -0.0415799 -18.8465)
(-9.3877e-14 -0.0565425 -18.1023)
(-1.05069e-13 -0.0716077 -17.1493)
(-7.06084e-14 -0.0848583 -15.9989)
(-4.75241e-14 -0.0950343 -14.6963)
(1.12239e-14 -0.102587 -13.2854)
(2.73014e-14 -0.107918 -11.7956)
(6.24892e-14 -0.110219 -10.2473)
(9.09115e-14 -0.105605 -8.67151)
(1.05465e-13 -0.0877038 -7.14134)
(9.04262e-14 -0.0734493 -5.74771)
(5.62211e-14 -0.128879 -4.31163)
(1.83538e-14 -0.284598 -2.16431)
(-1.68783e-14 -0.479555 1.01453)
(-4.32437e-14 -0.44617 5.97549)
(-6.04711e-14 -0.151823 8.68506)
(4.77674e-14 -0.0294465 8.84936)
(1.26633e-13 -0.0911949 10.2647)
(1.34397e-13 -0.097749 11.7663)
(7.96448e-14 -0.048295 12.8361)
(-6.61505e-15 0.0403978 13.0567)
(-7.34676e-14 0.0879586 11.9343)
(-1.20164e-13 0.0448498 10.4544)
(-1.45804e-13 0.0294148 9.69872)
(-1.87977e-13 -0.0148104 9.78624)
(-2.89566e-13 -0.0643822 10.4448)
(-3.5735e-13 -0.0705241 11.2539)
(-3.54251e-13 -0.0935452 12.1333)
(-2.67988e-13 -0.137571 13.3775)
(-1.94477e-13 -0.177871 15.0989)
(-2.01447e-13 -0.193928 17.0861)
(-2.03957e-13 -0.183249 18.996)
(-1.89627e-13 -0.156116 20.6005)
(-1.71922e-13 -0.128299 21.858)
(-1.65508e-13 -0.110745 22.8633)
(-1.52736e-13 -0.101461 23.7455)
(-1.24811e-13 -0.0877179 24.5487)
(-1.11015e-13 -0.0587301 25.1938)
(-1.27472e-13 -0.00671622 25.5221)
(-1.57748e-13 0.0629282 25.3545)
(-1.83055e-13 0.132825 24.6022)
(-2.09768e-13 0.187587 23.3387)
(-2.18073e-13 0.229561 21.7034)
(-2.09139e-13 0.260616 19.7899)
(-2.10795e-13 0.276825 17.6834)
(-1.85982e-13 0.273199 15.5096)
(-1.4812e-13 0.248881 13.4225)
(-1.30731e-13 0.215333 11.5528)
(-1.226e-13 0.22384 9.84313)
(-1.12421e-13 0.374259 7.7162)
(-7.74796e-14 0.701695 4.0406)
(-1.99552e-13 0.901075 -3.39921)
(-2.47364e-13 0.654997 -10.3339)
(-3.40243e-13 0.288246 -12.5809)
(-3.9791e-13 -0.000340367 -13.8679)
(-2.71625e-13 -0.170604 -13.9108)
(-2.83403e-13 -0.12693 -12.8036)
(-2.69757e-13 -0.015263 -12.0334)
(-2.67746e-13 -0.0580736 -11.3805)
(-2.62716e-13 -0.154391 -10.2531)
(-3.48493e-13 -0.178423 -9.02839)
(-4.37998e-13 -0.19186 -7.96237)
(-5.78668e-13 -0.274146 -6.78843)
(-5.26873e-13 -0.363062 -5.39275)
(-2.53072e-13 -0.509832 -4.05077)
(-3.69328e-13 -0.637958 -1.77052)
(-3.63596e-13 -0.751866 0.337346)
(-2.80936e-13 -0.704302 3.29249)
(-1.95555e-13 -0.726025 6.68563)
(-1.63049e-13 -0.844342 10.5502)
(-1.52115e-13 -1.08847 15.4306)
(-1.71803e-13 -1.37164 21.7662)
(-1.99249e-13 -1.53392 29.3566)
(-2.28308e-13 -1.46094 37.2927)
(-2.4358e-13 -1.1601 44.3648)
(-2.33182e-13 -0.742838 49.6151)
(-2.16417e-13 -0.34577 52.7028)
(-1.89442e-13 -0.0588273 53.9151)
(-1.53061e-13 0.0923548 53.9041)
(-1.20519e-13 0.125863 53.3738)
(-9.30856e-14 0.0794194 52.8674)
(-7.39819e-14 -0.00545194 52.7125)
(-6.05883e-14 -0.0931767 53.0221)
(-5.48618e-14 -0.160702 53.7417)
(-5.25878e-14 -0.197925 54.7249)
(-4.73483e-14 -0.203347 55.7994)
(-4.20225e-14 -0.179722 56.8026)
(-3.78724e-14 -0.132169 57.599)
(-3.42539e-14 -0.067436 58.0832)
(-3.13391e-14 0.00684625 58.203)
(-2.73612e-14 0.0818974 57.9146)
(-2.67039e-14 0.149007 57.3206)
(-2.54051e-14 0.203633 56.287)
(-2.44234e-14 0.232413 55.4443)
(-2.6258e-14 0.256534 53.5379)
(-1.41863e-13 0.0318432 -20.2303)
(-9.71345e-14 0.0171282 -20.6311)
(-5.55414e-14 -0.0112837 -20.6621)
(-3.98138e-14 -0.0390694 -20.5551)
(-1.53908e-14 -0.0698251 -20.2813)
(-8.3804e-15 -0.102064 -19.8596)
(2.95054e-14 -0.137045 -19.2895)
(3.11334e-14 -0.175112 -18.5711)
(6.67615e-14 -0.212011 -17.6877)
(8.98475e-14 -0.243852 -16.6629)
(8.38918e-14 -0.27186 -15.5196)
(8.29375e-14 -0.297641 -14.2668)
(8.19907e-14 -0.321196 -12.9003)
(1.04719e-13 -0.337296 -11.4057)
(1.43688e-13 -0.330576 -9.74684)
(1.47275e-13 -0.299791 -7.86121)
(8.66718e-14 -0.317568 -5.84513)
(5.49982e-14 -0.480919 -3.96883)
(5.01291e-14 -0.765924 -2.34796)
(2.45758e-14 -0.82344 -0.446124)
(9.17914e-14 -0.559663 3.09371)
(3.0062e-13 -0.318422 6.37556)
(2.3588e-13 -0.388534 7.86864)
(8.35996e-14 -0.340496 9.41725)
(5.21978e-15 -0.141335 10.5371)
(-5.53086e-14 0.186985 10.6699)
(-1.31537e-13 0.317081 9.07631)
(-1.66373e-13 0.138231 7.08921)
(-1.3919e-13 0.0929636 5.97471)
(-1.78599e-13 -0.0415935 5.73856)
(-1.98918e-13 -0.2114 6.18854)
(-1.21944e-13 -0.2486 7.07702)
(-9.54476e-14 -0.332395 8.14479)
(-1.25121e-13 -0.475289 9.67228)
(-1.76453e-13 -0.59197 11.704)
(-2.04673e-13 -0.624188 13.9147)
(-1.85437e-13 -0.574565 15.9302)
(-1.55025e-13 -0.479079 17.5642)
(-1.31857e-13 -0.384526 18.8121)
(-1.1116e-13 -0.323236 19.7748)
(-1.02874e-13 -0.291707 20.5882)
(-8.35351e-14 -0.254668 21.3284)
(-5.33449e-14 -0.181705 21.9598)
(-3.03178e-14 -0.0482479 22.3561)
(-2.79001e-15 0.138383 22.372)
(1.33103e-14 0.336198 21.9042)
(-6.40122e-15 0.499151 20.9346)
(-3.49946e-14 0.630761 19.5669)
(-7.64317e-14 0.734253 17.8752)
(-7.36677e-14 0.796632 15.925)
(-5.92886e-14 0.80297 13.8216)
(-6.02974e-14 0.750851 11.6964)
(-3.17906e-14 0.669172 9.66794)
(-7.48799e-14 0.694472 7.74179)
(-7.88798e-14 1.10034 5.62939)
(-1.66494e-14 1.92602 2.62595)
(-1.38847e-13 2.44014 -2.89008)
(-1.86009e-13 2.02121 -8.34135)
(-1.77242e-13 1.16642 -10.9258)
(-3.33857e-13 0.428682 -13.0071)
(-1.86573e-13 -0.212027 -13.9559)
(-1.28951e-13 -0.401892 -13.1027)
(-1.16599e-13 -0.358081 -11.9556)
(-2.34696e-13 -0.432755 -10.9951)
(-2.98969e-13 -0.473519 -9.95429)
(-2.48331e-13 -0.411301 -8.97136)
(-3.09811e-13 -0.384766 -7.89216)
(-4.37837e-13 -0.52198 -6.58319)
(-4.34446e-13 -0.733349 -5.13085)
(-4.70412e-14 -1.06564 -3.63297)
(1.35859e-13 -1.40725 -1.77713)
(-9.05472e-14 -1.66257 0.450425)
(-2.79401e-14 -1.75611 3.0854)
(-7.5151e-15 -1.90433 5.87082)
(-2.56952e-14 -2.21247 8.77873)
(-7.85526e-14 -2.79952 12.1332)
(-9.50792e-14 -3.52409 16.4305)
(-1.16498e-13 -4.03174 21.9024)
(-1.79887e-13 -4.01275 28.3302)
(-2.44847e-13 -3.39594 35.0433)
(-2.87349e-13 -2.37516 41.0916)
(-3.05042e-13 -1.28575 45.6564)
(-2.9184e-13 -0.418596 48.4366)
(-2.55837e-13 0.0910659 49.7112)
(-2.1659e-13 0.254777 50.0634)
(-1.82244e-13 0.165019 50.0872)
(-1.58062e-13 -0.0596595 50.2212)
(-1.33982e-13 -0.308559 50.6818)
(-1.01677e-13 -0.505125 51.4832)
(-6.84886e-14 -0.61289 52.5138)
(-4.13808e-14 -0.623484 53.615)
(-1.77307e-14 -0.543431 54.6291)
(2.12355e-15 -0.38844 55.425)
(1.81732e-14 -0.180569 55.9022)
(2.65274e-14 0.0549063 56.0118)
(3.25379e-14 0.290635 55.7092)
(3.53634e-14 0.49844 55.094)
(3.35296e-14 0.665133 54.0162)
(2.99032e-14 0.748558 53.1261)
(1.65148e-14 0.800079 51.0977)
(1.88424e-14 0.0493033 -21.3838)
(3.6332e-14 0.0206316 -21.7002)
(4.52349e-14 -0.0240918 -21.7349)
(5.9872e-14 -0.0678681 -21.6213)
(5.83579e-14 -0.114236 -21.359)
(6.73603e-14 -0.162437 -20.9641)
(9.87083e-14 -0.213992 -20.4382)
(8.49132e-14 -0.270636 -19.7966)
(1.0634e-13 -0.327279 -19.0131)
(1.0649e-13 -0.37769 -18.102)
(1.02632e-13 -0.42429 -17.0812)
(9.22872e-14 -0.470503 -15.9563)
(7.51216e-14 -0.518668 -14.7223)
(5.25491e-14 -0.567032 -13.368)
(4.78339e-14 -0.602085 -11.864)
(3.71431e-14 -0.608408 -10.1406)
(3.01264e-14 -0.628121 -8.20533)
(-3.27427e-14 -0.75621 -6.23176)
(-4.85983e-14 -1.01534 -4.35347)
(-3.25659e-14 -1.18602 -2.48152)
(9.41519e-14 -1.08971 -0.237171)
(1.33811e-13 -0.876377 2.83409)
(3.1449e-14 -0.749403 5.51468)
(-2.59396e-14 -0.583232 7.23851)
(-4.89862e-14 -0.210656 8.54048)
(-6.86419e-14 0.428985 8.59391)
(-1.73296e-13 0.56993 6.27329)
(-2.3502e-13 0.136437 3.85443)
(-2.06965e-13 0.311804 2.91613)
(-1.79226e-13 0.124366 2.6164)
(-1.48875e-13 -0.363513 1.71111)
(-7.39843e-14 -0.516683 2.85638)
(-8.98395e-14 -0.691121 4.40682)
(-2.18071e-13 -0.934501 6.48238)
(-3.37898e-13 -1.09218 8.92185)
(-3.24221e-13 -1.10134 11.2916)
(-2.9345e-13 -0.986709 13.2755)
(-2.87859e-13 -0.811397 14.8036)
(-2.58705e-13 -0.645338 15.945)
(-2.22086e-13 -0.536668 16.811)
(-1.93731e-13 -0.483225 17.531)
(-1.60354e-13 -0.431206 18.1954)
(-1.24362e-13 -0.330605 18.8034)
(-9.92883e-14 -0.136276 19.2497)
(-7.9033e-14 0.147736 19.3889)
(-5.42211e-14 0.464466 19.1256)
(-3.67301e-14 0.737539 18.3675)
(-2.95942e-14 0.967396 17.1952)
(-3.48207e-14 1.15711 15.6684)
(-2.73871e-14 1.28468 13.8335)
(-1.64414e-14 1.32553 11.7749)
(-1.00998e-14 1.27483 9.59891)
(1.28945e-15 1.16725 7.40907)
(-2.81173e-14 1.19258 5.2474)
(-3.61598e-14 1.76968 3.05448)
(-3.02885e-14 2.94394 0.512416)
(-7.87818e-14 3.67056 -3.4201)
(-7.51094e-14 3.1506 -7.24571)
(-9.28857e-14 2.02759 -10.0263)
(-2.52047e-13 0.939272 -12.3203)
(-2.70917e-13 -0.193741 -13.242)
(-3.26538e-13 -0.671962 -12.3001)
(-4.16811e-13 -0.620238 -11.2654)
(-4.40468e-13 -0.651723 -10.7211)
(-3.82751e-13 -0.709675 -9.94968)
(-2.66195e-13 -0.71835 -9.06943)
(-2.33718e-13 -0.763548 -7.97383)
(-1.39835e-13 -0.938507 -6.70829)
(-3.78041e-14 -1.20479 -5.32088)
(-1.53068e-14 -1.60578 -3.8332)
(1.92051e-13 -2.04397 -2.18983)
(-4.28032e-14 -2.38474 -0.345579)
(1.01698e-13 -2.52985 1.77199)
(2.20725e-14 -2.65261 3.97683)
(-7.03828e-14 -2.96552 6.09965)
(2.46781e-14 -3.7229 8.26452)
(6.0092e-14 -4.81776 10.8107)
(6.33215e-14 -5.8087 14.02)
(7.23439e-15 -6.23602 18.1622)
(-7.5542e-14 -5.83171 23.3372)
(-1.58242e-13 -4.65213 29.1512)
(-2.17686e-13 -3.07596 34.7619)
(-2.596e-13 -1.59192 39.3199)
(-2.75107e-13 -0.547862 42.4284)
(-2.57039e-13 -0.0503079 44.2484)
(-2.24265e-13 -0.0186474 45.2711)
(-1.85905e-13 -0.27362 46.0132)
(-1.43477e-13 -0.61888 46.8217)
(-9.77505e-14 -0.90813 47.8281)
(-5.87535e-14 -1.06579 49.0006)
(-2.84523e-14 -1.06971 50.2276)
(-3.27947e-15 -0.928279 51.378)
(1.37373e-14 -0.667816 52.3325)
(1.88547e-14 -0.323817 52.9881)
(2.12365e-14 0.0648022 53.2826)
(2.07652e-14 0.457636 53.1515)
(1.91517e-14 0.811634 52.683)
(1.70351e-14 1.10355 51.6809)
(1.64612e-14 1.26686 50.8434)
(1.23872e-14 1.36161 48.6734)
(1.53962e-13 0.0709114 -22.3862)
(1.3245e-13 0.0192573 -22.666)
(1.12031e-13 -0.0392855 -22.7048)
(1.11476e-13 -0.0985062 -22.588)
(1.01656e-13 -0.158933 -22.3243)
(1.07484e-13 -0.221057 -21.9334)
(1.07399e-13 -0.286491 -21.422)
(1.25747e-13 -0.358905 -20.8137)
(1.4165e-13 -0.433312 -20.0876)
(1.3007e-13 -0.50082 -19.2434)
(1.17957e-13 -0.564072 -18.2983)
(9.4156e-14 -0.627603 -17.2573)
(5.9107e-14 -0.694797 -16.1149)
(2.67531e-14 -0.765488 -14.8616)
(-7.96647e-15 -0.829114 -13.4744)
(7.50973e-15 -0.871245 -11.8942)
(-5.32793e-15 -0.925579 -10.1037)
(-3.43449e-14 -1.07396 -8.22264)
(-5.66402e-14 -1.32348 -6.36912)
(-1.57973e-14 -1.48988 -4.4588)
(-2.0111e-14 -1.46353 -2.28043)
(2.83628e-15 -1.34647 0.27642)
(2.02758e-15 -1.19666 3.04655)
(-1.19106e-14 -0.891389 5.23876)
(-4.46198e-14 -0.291671 6.77888)
(-5.39012e-14 0.751275 6.62447)
(-1.47219e-13 0.858955 3.41094)
(-2.06463e-13 0.12798 -1.16857)
(-1.88351e-13 0.55835 -3.16117)
(-2.00464e-13 -0.181646 -2.53072)
(-2.50097e-13 -0.712997 -1.00751)
(-3.39296e-13 -0.853334 0.818047)
(-3.27794e-13 -1.13699 2.35874)
(-3.28644e-13 -1.46165 4.55946)
(-3.77998e-13 -1.62204 7.03681)
(-3.14439e-13 -1.57073 9.27726)
(-2.51789e-13 -1.36892 11.0394)
(-2.76361e-13 -1.10962 12.3515)
(-2.53137e-13 -0.876665 13.3289)
(-2.04737e-13 -0.725117 14.0673)
(-2.01042e-13 -0.653885 14.663)
(-1.66462e-13 -0.595823 15.196)
(-1.05035e-13 -0.484386 15.6974)
(-9.05694e-14 -0.250266 16.093)
(-1.08455e-13 0.113009 16.2817)
(-1.09716e-13 0.538539 16.2213)
(-8.27825e-14 0.921499 15.7359)
(-1.80768e-14 1.25686 14.8162)
(4.00223e-14 1.54284 13.491)
(2.52342e-14 1.74901 11.7909)
(-2.46762e-16 1.84288 9.79265)
(-5.24887e-14 1.81851 7.5874)
(-5.34659e-14 1.70682 5.26291)
(1.00207e-14 1.72049 2.86743)
(9.50669e-15 2.39949 0.553404)
(-5.40562e-14 3.75776 -1.65968)
(-7.10203e-14 4.54051 -4.47871)
(4.35664e-14 4.03763 -7.31286)
(-6.13553e-14 2.80359 -10.1415)
(-1.57393e-13 1.36539 -12.2645)
(-2.09686e-13 -0.237175 -12.799)
(-2.54562e-13 -0.916574 -11.869)
(-4.00718e-13 -0.802624 -11.1326)
(-4.10692e-13 -0.818371 -10.7768)
(-4.25506e-13 -0.939239 -10.0468)
(-4.16114e-13 -1.01489 -9.20838)
(-3.65098e-13 -1.12118 -8.1962)
(-2.27283e-13 -1.34556 -7.01464)
(-8.32283e-14 -1.66428 -5.7069)
(-1.89459e-14 -2.09611 -4.32154)
(1.52931e-13 -2.5821 -2.8171)
(-9.32836e-14 -2.98291 -1.16498)
(6.86895e-14 -3.20871 0.702556)
(-8.08158e-14 -3.34413 2.78307)
(-3.33919e-14 -3.63122 4.93112)
(1.00075e-13 -4.38904 7.02337)
(1.1033e-13 -5.55488 9.03466)
(1.43271e-13 -6.73356 11.0113)
(8.76604e-14 -7.51553 13.2293)
(2.81296e-14 -7.55698 16.1379)
(-3.72392e-14 -6.7036 20.0247)
(-1.20191e-13 -5.15074 24.6781)
(-1.81377e-13 -3.36715 29.4401)
(-2.24816e-13 -1.85246 33.5701)
(-2.44398e-13 -0.917317 36.6528)
(-2.31672e-13 -0.60409 38.7535)
(-1.84502e-13 -0.744567 40.2713)
(-1.25601e-13 -1.08913 41.6434)
(-7.28305e-14 -1.42314 43.1159)
(-3.56443e-14 -1.61728 44.7178)
(-1.39626e-14 -1.62081 46.3588)
(-2.38895e-16 -1.43235 47.9075)
(3.46537e-15 -1.07864 49.2294)
(2.1892e-15 -0.600647 50.1994)
(3.89895e-15 -0.0484684 50.738)
(3.25536e-15 0.521141 50.7764)
(5.794e-15 1.0515 50.4218)
(5.36328e-15 1.49898 49.4531)
(6.75622e-15 1.79128 48.6392)
(8.41047e-15 1.96078 46.3077)
(1.65356e-13 0.0979978 -23.1899)
(1.51299e-13 0.0159794 -23.4681)
(1.32096e-13 -0.0553671 -23.5227)
(1.38431e-13 -0.131179 -23.4178)
(1.45153e-13 -0.206338 -23.165)
(1.41072e-13 -0.282584 -22.7865)
(1.4132e-13 -0.361077 -22.292)
(1.14213e-13 -0.446916 -21.7065)
(1.1898e-13 -0.536644 -21.0257)
(1.17206e-13 -0.619616 -20.2321)
(9.51253e-14 -0.697919 -19.3442)
(4.53786e-14 -0.777479 -18.3675)
(-1.72368e-14 -0.862793 -17.296)
(-4.11283e-14 -0.954729 -16.1212)
(-8.14689e-14 -1.04402 -14.8227)
(-7.69833e-14 -1.11628 -13.3491)
(-6.9845e-14 -1.19992 -11.675)
(-6.69585e-14 -1.36899 -9.88743)
(-4.99791e-14 -1.62891 -8.08943)
(-5.29092e-14 -1.82062 -6.22111)
(-5.18185e-14 -1.84642 -4.11096)
(-2.69099e-14 -1.78879 -1.71331)
(-4.47307e-15 -1.66025 0.934675)
(-4.02214e-14 -1.2655 3.31358)
(-5.16748e-14 -0.338175 5.15063)
(-6.14185e-14 1.20025 4.56024)
(-9.92757e-14 1.38447 0.105824)
(-1.29183e-13 0.698696 -5.98283)
(-1.9503e-13 0.660555 -6.69451)
(-3.55052e-13 -0.447149 -4.48201)
(-4.99089e-13 -1.10217 -2.87017)
(-4.73394e-13 -1.23988 -0.89309)
(-3.25039e-13 -1.57686 0.909295)
(-2.64873e-13 -1.95728 3.02471)
(-2.0687e-13 -2.10177 5.31849)
(-1.4731e-13 -1.98734 7.31748)
(-1.20005e-13 -1.70352 8.83602)
(-1.23896e-13 -1.37235 9.96591)
(-1.39472e-13 -1.08378 10.8485)
(-1.2577e-13 -0.892471 11.55)
(-1.04732e-13 -0.798758 12.116)
(-9.71589e-14 -0.729835 12.5761)
(-1.02635e-13 -0.611973 12.9475)
(-1.30039e-13 -0.35756 13.1684)
(-1.33752e-13 0.0508037 13.188)
(-1.1972e-13 0.543848 13.1133)
(-9.77955e-14 1.01505 12.8516)
(-5.7164e-14 1.46423 12.2369)
(2.05074e-16 1.86533 11.2001)
(-2.49256e-14 2.17183 9.71857)
(-6.44451e-14 2.34154 7.85728)
(-1.46276e-13 2.37094 5.70133)
(-1.67761e-13 2.28412 3.32118)
(-9.01205e-14 2.28283 0.72635)
(-4.25561e-14 2.99767 -1.72162)
(-2.68409e-14 4.40438 -3.515)
(-6.45344e-14 5.17527 -5.59747)
(6.53424e-14 4.77258 -8.0168)
(-1.01274e-13 3.48394 -10.6341)
(-1.61107e-13 1.69411 -12.4325)
(-1.81433e-13 -0.323533 -12.5623)
(-1.93277e-13 -1.09307 -11.6445)
(-3.71154e-13 -0.937319 -11.1124)
(-4.52316e-13 -0.988549 -10.799)
(-5.22054e-13 -1.17052 -10.1124)
(-4.48325e-13 -1.29151 -9.36922)
(-2.28217e-13 -1.44977 -8.48001)
(-1.46731e-13 -1.72913 -7.39905)
(-2.45691e-14 -2.09363 -6.17492)
(-1.58052e-14 -2.54765 -4.85956)
(1.16904e-13 -3.06825 -3.45726)
(-8.29845e-14 -3.54315 -1.95654)
(2.7938e-14 -3.87317 -0.241728)
(-2.11724e-14 -4.08265 1.79308)
(8.24538e-14 -4.3978 4.1063)
(1.14683e-13 -5.11822 6.44071)
(1.28237e-13 -6.20323 8.57244)
(1.43639e-13 -7.32318 10.432)
(8.42832e-14 -8.16165 12.1233)
(6.10386e-14 -8.43742 13.8953)
(3.54357e-14 -7.93665 16.152)
(-3.32767e-14 -6.69211 19.0952)
(-9.86396e-14 -5.01585 22.5697)
(-1.35174e-13 -3.35798 26.1398)
(-1.56605e-13 -2.12487 29.3525)
(-1.4975e-13 -1.53071 32.0485)
(-1.11018e-13 -1.52589 34.4146)
(-6.69383e-14 -1.85386 36.7033)
(-3.66611e-14 -2.22184 39.0052)
(-1.7387e-14 -2.43525 41.2721)
(-5.82324e-15 -2.41274 43.4067)
(-3.32044e-15 -2.14188 45.2944)
(-3.59286e-15 -1.65053 46.8199)
(-6.63118e-15 -0.989795 47.8809)
(-5.25276e-15 -0.229498 48.4267)
(-3.57709e-15 0.551077 48.4235)
(-4.33531e-15 1.2844 48.0054)
(-2.14805e-15 1.9008 46.9395)
(-3.92728e-16 2.34302 46.0548)
(8.28296e-16 2.58602 43.5628)
(1.76379e-13 0.11604 -23.7874)
(1.69363e-13 0.0163675 -24.161)
(1.59292e-13 -0.0700924 -24.2264)
(1.64605e-13 -0.16202 -24.1501)
(1.54235e-13 -0.25184 -23.9185)
(1.32001e-13 -0.341866 -23.5601)
(8.26274e-14 -0.43309 -23.0845)
(3.45734e-14 -0.53122 -22.5174)
(2.17431e-14 -0.635192 -21.8752)
(3.1251e-14 -0.733249 -21.1228)
(5.33317e-15 -0.825839 -20.2807)
(-2.62742e-14 -0.920363 -19.3555)
(-5.7998e-14 -1.02237 -18.3413)
(-7.31635e-14 -1.13377 -17.23)
(-8.81282e-14 -1.24703 -16.003)
(-9.21665e-14 -1.34914 -14.6148)
(-8.99622e-14 -1.46423 -13.0371)
(-9.199e-14 -1.65645 -11.335)
(-7.22135e-14 -1.92766 -9.59674)
(-7.07471e-14 -2.1428 -7.78022)
(-8.91315e-14 -2.21631 -5.74329)
(-5.01172e-14 -2.21005 -3.44686)
(-3.0472e-14 -2.12145 -0.967474)
(-6.89248e-14 -1.69055 1.44466)
(-2.19902e-14 -0.310651 3.61869)
(-5.14003e-14 1.66996 2.06679)
(-6.61621e-14 2.05814 -2.10228)
(-8.24364e-14 1.30236 -7.55868)
(-2.78115e-13 0.733682 -8.01074)
(-4.12209e-13 -0.833425 -6.07954)
(-3.59061e-13 -1.42855 -4.09016)
(-2.36432e-13 -1.60805 -2.46625)
(-1.63443e-13 -2.03216 -0.56755)
(-1.37596e-13 -2.4216 1.45999)
(-8.66284e-14 -2.53412 3.53724)
(-3.99746e-14 -2.36021 5.32422)
(-3.3509e-14 -2.00974 6.6575)
(-4.99395e-14 -1.62539 7.67205)
(-5.65944e-14 -1.29599 8.54544)
(-1.51406e-14 -1.071 9.33163)
(-2.35274e-14 -0.948889 10.0194)
(-7.35393e-14 -0.850183 10.5457)
(-9.25804e-14 -0.702982 10.8696)
(-1.06191e-13 -0.411459 10.9181)
(-1.38982e-13 0.0496855 10.6409)
(-1.42694e-13 0.565372 10.228)
(-1.27614e-13 1.05799 9.88244)
(-1.19893e-13 1.59351 9.42497)
(-1.11346e-13 2.10952 8.66893)
(-1.48586e-13 2.53058 7.47273)
(-1.96824e-13 2.79491 5.84567)
(-2.6797e-13 2.90426 3.85322)
(-2.7829e-13 2.87943 1.54218)
(-2.04958e-13 2.86491 -1.17059)
(-1.26924e-13 3.56569 -3.5934)
(-1.16565e-14 4.89606 -4.89783)
(-4.8475e-14 5.69258 -6.73708)
(1.08437e-14 5.40056 -8.93509)
(-1.49996e-13 4.05421 -11.1415)
(-1.37411e-13 1.92228 -12.5732)
(-9.50291e-14 -0.465842 -12.4808)
(-7.63452e-14 -1.2588 -11.6141)
(-1.92983e-13 -1.06179 -11.1302)
(-2.76356e-13 -1.14163 -10.8054)
(-3.68885e-13 -1.36968 -10.1983)
(-3.62951e-13 -1.53539 -9.56021)
(-3.03242e-13 -1.75155 -8.76665)
(-8.23405e-14 -2.08885 -7.78076)
(4.6334e-14 -2.50228 -6.66127)
(6.0215e-14 -2.98694 -5.4359)
(1.71307e-13 -3.53301 -4.10704)
(-7.04917e-14 -4.06308 -2.69977)
(-1.39181e-14 -4.49982 -1.13856)
(-2.72017e-14 -4.83648 0.730294)
(4.0413e-14 -5.22887 2.99229)
(1.27581e-13 -5.94219 5.36199)
(1.86446e-13 -6.9585 7.56602)
(1.32849e-13 -7.99614 9.53459)
(5.56177e-14 -8.77182 11.3347)
(3.2291e-14 -9.06264 13.0535)
(2.64728e-14 -8.68796 14.937)
(1.55839e-15 -7.62707 17.1663)
(-2.81271e-14 -6.10452 19.7405)
(-1.8108e-14 -4.512 22.527)
(-1.03323e-14 -3.27506 25.3934)
(-2.85713e-14 -2.66961 28.2845)
(-3.47794e-14 -2.6646 31.1608)
(-2.75399e-14 -2.97646 33.9409)
(-1.98395e-14 -3.29607 36.5417)
(-1.46363e-14 -3.43013 38.9093)
(-9.17682e-15 -3.29691 41.0009)
(-4.94606e-15 -2.87898 42.7563)
(-4.5356e-15 -2.20646 44.105)
(-7.2234e-15 -1.3392 44.9797)
(-8.80385e-15 -0.365858 45.353)
(-9.16206e-15 0.620193 45.2165)
(-8.06371e-15 1.55157 44.7079)
(-8.88364e-15 2.32984 43.5593)
(-1.14318e-14 2.92011 42.624)
(-1.10033e-14 3.22247 40.0663)
(1.44669e-13 0.131403 -24.3608)
(1.25897e-13 0.0205888 -24.7631)
(1.01593e-13 -0.0836411 -24.8575)
(6.1498e-14 -0.191572 -24.8138)
(2.97171e-14 -0.297074 -24.6094)
(1.76215e-15 -0.401603 -24.2743)
(-1.68254e-14 -0.506008 -23.8186)
(-3.19543e-14 -0.615325 -23.2674)
(-2.73485e-14 -0.731886 -22.6584)
(-3.33486e-14 -0.844288 -21.9418)
(-5.29329e-14 -0.950313 -21.1384)
(-8.95873e-14 -1.05891 -20.2567)
(-9.65365e-14 -1.17669 -19.2911)
(-1.17502e-13 -1.30637 -18.2333)
(-1.29411e-13 -1.44185 -17.0661)
(-1.21869e-13 -1.57174 -15.7489)
(-1.03078e-13 -1.71716 -14.2528)
(-9.92496e-14 -1.93355 -12.6272)
(-9.85098e-14 -2.21968 -10.9469)
(-9.65281e-14 -2.46008 -9.182)
(-1.02519e-13 -2.57917 -7.21644)
(-5.5002e-14 -2.61894 -5.00697)
(-5.64122e-14 -2.5629 -2.61398)
(-8.67197e-14 -2.1124 -0.324485)
(3.01093e-15 -0.28206 1.73933)
(-3.09365e-14 2.26961 -0.0753093)
(-7.0452e-14 2.77992 -3.69065)
(-1.34658e-13 1.80433 -8.12933)
(-2.95233e-13 0.754252 -8.89459)
(-3.83375e-13 -1.21725 -7.48855)
(-2.24707e-13 -1.79113 -5.39214)
(-1.01746e-13 -1.95201 -3.71539)
(-1.07131e-13 -2.43846 -1.91657)
(-8.42915e-14 -2.85861 -0.0593219)
(-5.82448e-14 -2.94658 1.85169)
(-6.14464e-14 -2.7008 3.4706)
(-5.99673e-14 -2.28856 4.6676)
(-3.41848e-14 -1.87667 5.62828)
(-4.8741e-15 -1.53298 6.55965)
(5.49695e-14 -1.28797 7.4952)
(2.45029e-14 -1.1323 8.35192)
(-2.40225e-14 -0.98164 8.97382)
(-7.80681e-14 -0.778695 9.29059)
(-1.26816e-13 -0.427275 9.23445)
(-1.26341e-13 0.130269 8.75286)
(-1.1733e-13 0.673419 7.99749)
(-1.37565e-13 1.12554 7.31848)
(-1.52688e-13 1.68934 6.74643)
(-1.62125e-13 2.28579 6.0915)
(-1.67562e-13 2.81421 5.11426)
(-1.54452e-13 3.18004 3.73208)
(-1.59751e-13 3.38839 1.96744)
(-2.23388e-13 3.45741 -0.161872)
(-2.26363e-13 3.45684 -2.80722)
(-1.6814e-13 4.0533 -4.86577)
(-3.25738e-14 5.30614 -5.98979)
(-2.20608e-14 6.16745 -7.86592)
(-4.17154e-14 5.92894 -9.82024)
(-1.93609e-13 4.50671 -11.5627)
(-1.1856e-13 2.07483 -12.6704)
(-1.09782e-13 -0.612355 -12.509)
(-1.4735e-13 -1.40451 -11.6505)
(-1.40849e-13 -1.18362 -11.169)
(-1.45981e-13 -1.28011 -10.8491)
(-2.11483e-13 -1.54402 -10.3181)
(-2.48157e-13 -1.75472 -9.74826)
(-2.99781e-13 -2.02638 -9.01809)
(-9.39449e-14 -2.41451 -8.1177)
(5.43628e-14 -2.87306 -7.0966)
(6.52282e-14 -3.39524 -5.96834)
(1.23631e-13 -3.97298 -4.74158)
(-6.34047e-14 -4.54556 -3.43766)
(-3.40149e-14 -5.06232 -2.0316)
(-8.51451e-14 -5.52253 -0.403179)
(-9.66682e-14 -6.01447 1.60715)
(8.60937e-14 -6.74421 3.81779)
(1.65526e-13 -7.71937 5.93185)
(1.0887e-13 -8.71583 7.86646)
(3.31809e-14 -9.47389 9.70284)
(1.96643e-14 -9.78448 11.5561)
(-1.6777e-14 -9.47377 13.5822)
(-7.06186e-14 -8.49514 15.8805)
(-7.23735e-14 -7.05125 18.4145)
(-4.85785e-14 -5.53872 21.0827)
(-2.87545e-14 -4.38615 23.8106)
(-2.09543e-14 -3.83013 26.5345)
(-1.74582e-14 -3.80254 29.1572)
(-1.32853e-14 -4.03741 31.5919)
(-8.94244e-15 -4.26284 33.8013)
(-4.6288e-15 -4.29887 35.7792)
(-2.9269e-15 -4.05633 37.5185)
(-4.08037e-15 -3.50548 38.9822)
(-6.84836e-15 -2.67439 40.1051)
(-7.74249e-15 -1.62554 40.8074)
(-6.6988e-15 -0.4675 41.0458)
(-1.13812e-14 0.696154 40.8154)
(-1.24978e-14 1.80628 40.2718)
(-1.63286e-14 2.73584 39.1117)
(-1.79304e-14 3.46649 38.1952)
(-2.01107e-14 3.82623 35.6959)
(8.34398e-14 0.152731 -24.8923)
(6.48609e-14 0.0264657 -25.3038)
(4.24818e-14 -0.0944265 -25.4358)
(9.50102e-15 -0.218592 -25.4257)
(-1.55262e-14 -0.340023 -25.2521)
(-3.60077e-14 -0.459324 -24.9429)
(-4.92187e-14 -0.57724 -24.5094)
(-6.14356e-14 -0.697414 -23.975)
(-6.90262e-14 -0.82579 -23.3909)
(-1.00234e-13 -0.95215 -22.7064)
(-1.13127e-13 -1.07119 -21.937)
(-1.18842e-13 -1.19325 -21.0929)
(-1.22395e-13 -1.32612 -20.1694)
(-1.23071e-13 -1.47326 -19.1579)
(-1.31362e-13 -1.62994 -18.0422)
(-1.43959e-13 -1.78647 -16.7854)
(-1.59323e-13 -1.96142 -15.3597)
(-1.28056e-13 -2.20217 -13.8028)
(-9.71759e-14 -2.50492 -12.1775)
(-9.04743e-14 -2.77044 -10.4617)
(-8.19825e-14 -2.93245 -8.56033)
(-6.08521e-14 -3.01759 -6.43275)
(-6.98585e-14 -2.99005 -4.12035)
(-8.87956e-14 -2.49562 -1.91147)
(4.42952e-15 -0.265858 -0.143416)
(-9.23454e-15 2.77337 -1.54679)
(-1.19781e-13 3.11912 -4.72658)
(-1.62735e-13 2.26373 -8.52906)
(-2.94359e-13 0.774906 -9.56677)
(-3.44776e-13 -1.54865 -8.59154)
(-1.86041e-13 -2.1582 -6.60787)
(-7.60296e-14 -2.30757 -4.8644)
(-7.15758e-14 -2.81813 -3.15943)
(-5.41949e-14 -3.26125 -1.45005)
(-2.33897e-14 -3.33776 0.279359)
(-5.58018e-14 -3.03062 1.76563)
(-8.87867e-14 -2.54741 2.87411)
(-2.55022e-14 -2.1201 3.8261)
(2.31396e-14 -1.78917 4.84254)
(5.93006e-14 -1.53912 5.90856)
(3.68379e-14 -1.34209 6.87096)
(8.11271e-16 -1.11997 7.52634)
(-9.03047e-14 -0.846288 7.8172)
(-1.59386e-13 -0.425819 7.68211)
(-1.44456e-13 0.261533 7.03048)
(-1.06697e-13 0.853394 6.17211)
(-1.12272e-13 1.25361 5.22833)
(-1.48655e-13 1.81008 4.44191)
(-1.58141e-13 2.44074 3.70675)
(-7.01545e-14 3.04742 2.80389)
(-3.15629e-14 3.50024 1.58591)
(3.25937e-14 3.80314 0.0312975)
(-7.02758e-14 3.9904 -1.83725)
(-1.48431e-13 3.97579 -4.07024)
(-1.53193e-13 4.47577 -5.73754)
(-6.3572e-14 5.71709 -7.00834)
(-2.68325e-14 6.61854 -8.90433)
(-4.54952e-14 6.36159 -10.5885)
(-1.49793e-13 4.85153 -11.9164)
(-5.58545e-14 2.17582 -12.7582)
(-2.08998e-13 -0.769207 -12.5728)
(-3.13255e-13 -1.56146 -11.717)
(-3.10562e-13 -1.30924 -11.2891)
(-2.86341e-13 -1.40859 -10.9792)
(-2.89073e-13 -1.70296 -10.4947)
(-3.03244e-13 -1.95959 -9.95639)
(-2.97679e-13 -2.28239 -9.2706)
(-1.54184e-13 -2.7158 -8.44843)
(-2.28316e-14 -3.21554 -7.52387)
(1.66978e-14 -3.77272 -6.5073)
(7.84907e-14 -4.37962 -5.41145)
(-5.80735e-14 -4.98553 -4.25248)
(-8.37727e-14 -5.5581 -3.01229)
(-1.35897e-13 -6.11474 -1.62241)
(-1.39419e-13 -6.72286 0.0592492)
(6.57543e-14 -7.49872 2.00836)
(8.77996e-14 -8.44793 3.97585)
(7.16385e-14 -9.4127 5.83748)
(2.06284e-14 -10.1803 7.65325)
(1.16303e-14 -10.554 9.55306)
(-6.56316e-14 -10.343 11.6648)
(-1.22263e-13 -9.458 14.0698)
(-9.39255e-14 -8.06233 16.6752)
(-5.09579e-14 -6.55415 19.2806)
(-1.97946e-14 -5.38772 21.7394)
(-1.008e-14 -4.80463 24.0091)
(-8.72176e-15 -4.73162 26.0895)
(-8.56405e-15 -4.90998 27.9884)
(-9.27812e-15 -5.07705 29.7317)
(-7.0423e-15 -5.05304 31.3591)
(-6.47576e-15 -4.73982 32.8877)
(-9.25703e-15 -4.08988 34.2589)
(-1.27385e-14 -3.12333 35.3518)
(-1.59755e-14 -1.90091 36.0236)
(-1.68985e-14 -0.561451 36.1958)
(-1.47372e-14 0.770281 35.8671)
(-1.81652e-14 2.04151 35.2424)
(-2.10149e-14 3.10556 34.007)
(-2.61422e-14 3.95567 33.0639)
(-2.83419e-14 4.37254 30.6285)
(6.26682e-14 0.177649 -25.3812)
(4.45406e-14 0.034305 -25.8024)
(3.91286e-14 -0.102683 -25.972)
(1.49186e-14 -0.243385 -25.9966)
(8.20378e-15 -0.381345 -25.8563)
(2.36623e-15 -0.516117 -25.5756)
(-3.36158e-14 -0.648145 -25.1663)
(-6.60012e-14 -0.779146 -24.6512)
(-8.21548e-14 -0.918496 -24.083)
(-1.01924e-13 -1.0579 -23.4275)
(-1.26544e-13 -1.18945 -22.6883)
(-1.3036e-13 -1.32435 -21.8777)
(-1.35733e-13 -1.47162 -20.9913)
(-1.44663e-13 -1.63546 -20.0207)
(-1.54101e-13 -1.81239 -18.9501)
(-1.53226e-13 -1.99439 -17.746)
(-1.4282e-13 -2.19786 -16.382)
(-1.10787e-13 -2.46306 -14.8872)
(-7.75088e-14 -2.784 -13.3137)
(-7.47445e-14 -3.07489 -11.6447)
(-8.32858e-14 -3.27725 -9.80135)
(-6.23797e-14 -3.40572 -7.74649)
(-7.66213e-14 -3.40457 -5.51213)
(-7.5837e-14 -2.84948 -3.38421)
(-7.26134e-15 -0.29231 -1.75186)
(-1.67624e-14 3.08556 -2.5411)
(-1.35425e-13 3.49009 -4.93343)
(-1.70636e-13 2.70277 -9.0246)
(-2.877e-13 0.815806 -10.0571)
(-2.6303e-13 -1.8504 -9.48372)
(-1.13652e-13 -2.52252 -7.61883)
(-5.44599e-14 -2.66297 -5.93472)
(-5.42606e-14 -3.17146 -4.31054)
(-4.76798e-14 -3.63554 -2.72483)
(-1.5308e-14 -3.6999 -1.19509)
(-6.71024e-14 -3.35507 0.145058)
(-1.0523e-13 -2.83457 1.23608)
(-1.92925e-14 -2.37901 2.23128)
(1.98542e-14 -2.04895 3.32002)
(2.85037e-14 -1.79725 4.45903)
(-4.59989e-14 -1.55998 5.46456)
(-4.83797e-14 -1.25955 6.11003)
(-8.174e-14 -0.910274 6.36358)
(-1.44492e-13 -0.412545 6.14597)
(-1.5141e-13 0.425919 5.29798)
(-1.00821e-13 1.06063 4.47568)
(-7.87495e-14 1.41997 3.36728)
(-1.09903e-13 1.9721 2.4194)
(-1.24741e-13 2.6068 1.5571)
(-1.57634e-14 3.25722 0.640092)
(2.69911e-14 3.77554 -0.508226)
(1.2456e-13 4.16679 -1.91971)
(3.59495e-14 4.42521 -3.34912)
(-3.79499e-14 4.41079 -4.99458)
(-9.82951e-14 4.88659 -6.55786)
(-6.93803e-14 6.14059 -7.98851)
(-5.61263e-14 7.03737 -9.78771)
(-5.63074e-14 6.71017 -11.2225)
(-1.24777e-13 5.10701 -12.2251)
(-7.8069e-14 2.23464 -12.8382)
(-2.88715e-13 -0.92735 -12.6463)
(-3.2873e-13 -1.70058 -11.8781)
(-3.36948e-13 -1.4225 -11.5318)
(-3.47461e-13 -1.53294 -11.2195)
(-3.47805e-13 -1.85765 -10.7614)
(-3.38486e-13 -2.15888 -10.2452)
(-2.94855e-13 -2.5243 -9.60333)
(-1.73572e-13 -2.99364 -8.85952)
(-3.38421e-14 -3.52698 -8.03821)
(-2.5629e-14 -4.11268 -7.15047)
(7.05743e-14 -4.7437 -6.20945)
(-4.74225e-14 -5.37781 -5.22161)
(-6.90676e-14 -5.9948 -4.15718)
(-1.20312e-13 -6.62164 -2.95259)
(-1.39818e-13 -7.3295 -1.53827)
(7.25152e-14 -8.18554 0.105828)
(4.61708e-14 -9.15662 1.87843)
(3.44902e-14 -10.1178 3.66437)
(2.16841e-15 -10.901 5.48496)
(8.42257e-15 -11.3315 7.41668)
(-5.65219e-14 -11.2179 9.54864)
(-1.09504e-13 -10.4235 11.9436)
(-6.32303e-14 -9.04782 14.4659)
(3.27627e-15 -7.49101 16.8279)
(1.2728e-14 -6.26411 18.8422)
(-3.80115e-15 -5.63263 20.53)
(-1.47613e-14 -5.51118 22.0053)
(-1.6579e-14 -5.6466 23.4005)
(-1.33312e-14 -5.79401 24.8494)
(-1.11744e-14 -5.76893 26.4218)
(-1.32271e-14 -5.4408 28.0651)
(-1.5477e-14 -4.7198 29.5981)
(-1.34713e-14 -3.61525 30.801)
(-1.5821e-14 -2.19348 31.4814)
(-1.08664e-14 -0.641809 31.5645)
(-1.24695e-14 0.885891 31.0915)
(-1.5269e-14 2.32444 30.291)
(-1.71689e-14 3.50799 28.8171)
(-2.57494e-14 4.43899 27.6893)
(-3.14754e-14 4.88642 25.1844)
(4.61781e-14 0.208047 -25.8415)
(4.11183e-14 0.0432052 -26.2679)
(3.1046e-14 -0.108089 -26.4743)
(6.72686e-15 -0.265491 -26.5341)
(-1.38117e-14 -0.420201 -26.4288)