/*--------------------------------*- C++ -*----------------------------------*\
| =========                 |                                                 |
| \\      /  F ield         | OpenFOAM: The Open Source CFD Toolbox           |
|  \\    /   O peration     | Version:  4.1                                   |
|   \\  /    A nd           | Web:      www.OpenFOAM.org                      |
|    \\/     M anipulation  |                                                 |
\*---------------------------------------------------------------------------*/
FoamFile
{
    version     2.0;
    format      ascii;
    class       volScalarField;
    location    "1500";
    object      nut;
}
// * * * * * * * * * * * * * * * * * * * * * * * * * * * * * * * * * * * * * //

dimensions      [0 2 -1 0 0 0 0];

internalField   nonuniform List<scalar> 
6820
(
4.53774e-05
4.96674e-05
5.35596e-05
5.7033e-05
6.00872e-05
6.27329e-05
6.49892e-05
6.68824e-05
6.84449e-05
6.97114e-05
7.07177e-05
7.14978e-05
7.20841e-05
7.25058e-05
7.27893e-05
7.29578e-05
7.30314e-05
7.30275e-05
7.29609e-05
7.28442e-05
7.26882e-05
7.25016e-05
7.22921e-05
7.20657e-05
7.18277e-05
7.15822e-05
7.13329e-05
7.10825e-05
7.08333e-05
7.05874e-05
7.03459e-05
7.01145e-05
6.99707e-05
0.000389004
0.000214804
0.000161971
0.000134577
0.000117082
0.000104841
9.58724e-05
8.91195e-05
8.39493e-05
7.99547e-05
7.68576e-05
7.44593e-05
7.26133e-05
7.12095e-05
7.01639e-05
6.94111e-05
6.88998e-05
6.85893e-05
6.84467e-05
6.84457e-05
6.85646e-05
6.87854e-05
6.90931e-05
6.94752e-05
6.99209e-05
7.04212e-05
7.09681e-05
7.15548e-05
7.21759e-05
7.28246e-05
7.35008e-05
7.41943e-05
7.51909e-05
0.000867009
0.000638273
0.00050769
0.000428082
0.000375014
0.000336916
0.000308048
0.000285295
0.000266813
0.00025144
0.000238413
0.00022721
0.000217458
0.00020889
0.000201303
0.000194545
0.000188496
0.000183062
0.000178166
0.00017375
0.000169743
0.000166041
0.000162606
0.000159413
0.000156443
0.00015368
0.000151107
0.000148711
0.000146478
0.000144399
0.000142458
0.000140657
0.000139055
0.000991214
0.000902164
0.000807377
0.000726622
0.000661863
0.000610175
0.000568431
0.000534166
0.000505567
0.000481331
0.000460513
0.000442414
0.000426509
0.0004124
0.00039978
0.000388413
0.000378111
0.000368724
0.000360134
0.000352242
0.000344971
0.00033822
0.000331916
0.000326008
0.000320452
0.000315214
0.000310264
0.000305579
0.000301135
0.000296916
0.000292902
0.000289081
0.000285433
0.00101005
0.00098739
0.000948626
0.000902916
0.000857083
0.00081444
0.000776076
0.000742011
0.000711858
0.000685132
0.000661359
0.000640115
0.000621037
0.000603821
0.00058821
0.00057399
0.000560984
0.000549041
0.000538035
0.000527861
0.000518429
0.000509658
0.000501477
0.000493823
0.000486643
0.000479889
0.000473523
0.000467508
0.000461815
0.000456416
0.000451288
0.000446407
0.000441712
0.00101185
0.00100724
0.000995356
0.000976942
0.000954121
0.000929118
0.000903659
0.000878801
0.000855099
0.000832805
0.000812001
0.000792668
0.000774737
0.000758113
0.000742692
0.000728374
0.00071506
0.000702662
0.000691095
0.000680287
0.00067017
0.000660683
0.000651773
0.000643389
0.000635487
0.000628027
0.000620973
0.000614293
0.000607959
0.000601943
0.000596222
0.000590768
0.0005855
0.00101178
0.00101089
0.00100777
0.00100182
0.000992905
0.000981471
0.000968242
0.00095392
0.000939072
0.000924117
0.000909347
0.000894953
0.000881053
0.000867715
0.00085497
0.000842827
0.00083128
0.000820311
0.000809899
0.000800017
0.000790637
0.000781725
0.000773254
0.0007652
0.000757539
0.000750246
0.0007433
0.00073668
0.000730366
0.000724339
0.000718581
0.000713066
0.000707706
0.00101168
0.00101136
0.00101047
0.00100868
0.00100565
0.0010012
0.000995412
0.000988494
0.000980691
0.000972245
0.000963375
0.000954264
0.000945058
0.000935871
0.000926788
0.00091787
0.000909162
0.000900694
0.000892486
0.000884548
0.000876885
0.000869497
0.00086238
0.000855529
0.000848937
0.000842597
0.000836499
0.000830636
0.000824999
0.000819577
0.00081436
0.000809329
0.000804393
0.00101165
0.00101137
0.00101095
0.0010103
0.00100928
0.00100769
0.00100543
0.00100251
0.000998941
0.000994803
0.000990178
0.00098516
0.000979838
0.000974296
0.000968606
0.00096283
0.000957019
0.000951215
0.00094545
0.00093975
0.000934136
0.000928624
0.000923226
0.000917951
0.000912805
0.000907792
0.000902914
0.000898172
0.000893566
0.000889095
0.000884756
0.000880532
0.000876338
0.00101164
0.00101135
0.00101102
0.00101063
0.00101016
0.00100951
0.0010086
0.00100738
0.00100583
0.00100394
0.00100172
0.000999201
0.000996409
0.000993382
0.000990158
0.000986773
0.000983263
0.000979658
0.000975986
0.000972273
0.000968538
0.0009648
0.000961074
0.000957374
0.000953709
0.000950089
0.000946521
0.000943011
0.000939564
0.000936182
0.000932867
0.000929606
0.000926318
0.00101163
0.00101134
0.00101103
0.0010107
0.00101036
0.00100998
0.00100952
0.00100894
0.00100823
0.00100736
0.00100632
0.00100511
0.00100373
0.00100219
0.00100049
0.000998656
0.000996699
0.000994636
0.000992481
0.00099025
0.000987958
0.000985618
0.000983241
0.000980839
0.000978421
0.000975996
0.000973572
0.000971156
0.000968753
0.000966369
0.000964005
0.000961652
0.000959227
0.00101163
0.00101134
0.00101103
0.00101072
0.00101041
0.0010101
0.00100977
0.00100939
0.00100897
0.00100849
0.00100793
0.0010073
0.00100658
0.00100577
0.00100487
0.00100388
0.00100282
0.00100167
0.00100045
0.000999166
0.000997824
0.00099643
0.000994992
0.000993517
0.00099201
0.000990479
0.000988927
0.000987362
0.000985787
0.000984206
0.000982622
0.000981024
0.000979332
0.00101163
0.00101133
0.00101104
0.00101073
0.00101043
0.00101014
0.00100984
0.00100953
0.00100921
0.00100886
0.0010085
0.0010081
0.00100766
0.00100719
0.00100667
0.00100611
0.00100551
0.00100486
0.00100416
0.00100342
0.00100265
0.00100183
0.00100098
0.0010001
0.000999189
0.000998253
0.000997294
0.000996317
0.000995323
0.000994316
0.000993296
0.00099225
0.000991102
0.00101163
0.00101133
0.00101104
0.00101074
0.00101045
0.00101016
0.00100987
0.00100958
0.00100929
0.00100899
0.00100869
0.00100837
0.00100804
0.0010077
0.00100734
0.00100696
0.00100657
0.00100615
0.0010057
0.00100524
0.00100476
0.00100425
0.00100372
0.00100317
0.00100261
0.00100202
0.00100142
0.00100081
0.00100018
0.000999537
0.000998884
0.000998207
0.000997426
0.00101163
0.00101133
0.00101104
0.00101075
0.00101046
0.00101018
0.00100989
0.00100961
0.00100933
0.00100905
0.00100877
0.00100848
0.0010082
0.00100791
0.00100761
0.00100732
0.00100701
0.0010067
0.00100638
0.00100604
0.0010057
0.00100536
0.001005
0.00100463
0.00100425
0.00100386
0.00100346
0.00100306
0.00100264
0.00100222
0.00100179
0.00100134
0.00100078
0.00101163
0.00101133
0.00101105
0.00101075
0.00101047
0.00101019
0.00100991
0.00100963
0.00100936
0.00100908
0.00100881
0.00100854
0.00100827
0.001008
0.00100773
0.00100746
0.00100719
0.00100692
0.00100665
0.00100637
0.0010061
0.00100582
0.00100553
0.00100525
0.00100496
0.00100467
0.00100437
0.00100407
0.00100377
0.00100346
0.00100315
0.00100282
0.0010024
0.00101163
0.00101133
0.00101105
0.00101076
0.00101048
0.0010102
0.00100992
0.00100965
0.00100938
0.00100911
0.00100884
0.00100858
0.00100831
0.00100805
0.0010078
0.00100754
0.00100729
0.00100704
0.00100679
0.00100654
0.00100629
0.00100605
0.0010058
0.00100556
0.00100531
0.00100507
0.00100483
0.00100458
0.00100434
0.0010041
0.00100385
0.00100359
0.00100323
0.00101163
0.00101133
0.00101105
0.00101076
0.00101048
0.00101021
0.00100994
0.00100966
0.0010094
0.00100913
0.00100887
0.00100861
0.00100835
0.00100809
0.00100784
0.00100759
0.00100735
0.00100711
0.00100687
0.00100663
0.00100639
0.00100616
0.00100593
0.00100571
0.00100548
0.00100526
0.00100504
0.00100482
0.00100461
0.00100439
0.00100418
0.00100395
0.00100363
0.00101163
0.00101133
0.00101105
0.00101077
0.00101049
0.00101022
0.00100994
0.00100968
0.00100941
0.00100915
0.00100889
0.00100863
0.00100838
0.00100812
0.00100788
0.00100763
0.00100739
0.00100716
0.00100692
0.00100669
0.00100647
0.00100624
0.00100602
0.00100581
0.00100559
0.00100538
0.00100517
0.00100497
0.00100477
0.00100457
0.00100437
0.00100416
0.00100386
0.00101163
0.00101133
0.00101105
0.00101077
0.00101049
0.00101022
0.00100995
0.00100969
0.00100942
0.00100916
0.0010089
0.00100865
0.0010084
0.00100815
0.00100791
0.00100767
0.00100743
0.0010072
0.00100697
0.00100674
0.00100652
0.0010063
0.00100608
0.00100587
0.00100567
0.00100546
0.00100526
0.00100506
0.00100487
0.00100468
0.00100449
0.00100428
0.00100399
0.00101163
0.00101133
0.00101105
0.00101077
0.0010105
0.00101023
0.00100996
0.00100969
0.00100943
0.00100917
0.00100892
0.00100867
0.00100842
0.00100817
0.00100793
0.00100769
0.00100746
0.00100723
0.001007
0.00100678
0.00100656
0.00100635
0.00100614
0.00100593
0.00100572
0.00100552
0.00100533
0.00100513
0.00100495
0.00100476
0.00100457
0.00100438
0.00100409
0.00101163
0.00101133
0.00101105
0.00101077
0.0010105
0.00101023
0.00100996
0.0010097
0.00100944
0.00100918
0.00100893
0.00100868
0.00100843
0.00100819
0.00100795
0.00100772
0.00100749
0.00100726
0.00100704
0.00100682
0.0010066
0.00100639
0.00100618
0.00100597
0.00100577
0.00100557
0.00100538
0.00100519
0.00100501
0.00100482
0.00100464
0.00100445
0.00100416
0.00101163
0.00101133
0.00101105
0.00101077
0.0010105
0.00101023
0.00100997
0.00100971
0.00100945
0.00100919
0.00100894
0.00100869
0.00100845
0.00100821
0.00100797
0.00100774
0.00100751
0.00100728
0.00100706
0.00100684
0.00100663
0.00100642
0.00100621
0.00100601
0.00100581
0.00100562
0.00100542
0.00100524
0.00100505
0.00100487
0.00100469
0.0010045
0.00100422
0.00101163
0.00101133
0.00101105
0.00101077
0.0010105
0.00101023
0.00100997
0.00100971
0.00100945
0.0010092
0.00100895
0.0010087
0.00100846
0.00100822
0.00100798
0.00100775
0.00100753
0.0010073
0.00100708
0.00100687
0.00100665
0.00100644
0.00100624
0.00100604
0.00100584
0.00100565
0.00100546
0.00100527
0.00100509
0.00100491
0.00100474
0.00100455
0.00100427
0.00101163
0.00101133
0.00101105
0.00101077
0.0010105
0.00101024
0.00100997
0.00100971
0.00100946
0.0010092
0.00100895
0.00100871
0.00100847
0.00100823
0.00100799
0.00100776
0.00100754
0.00100731
0.00100709
0.00100688
0.00100667
0.00100646
0.00100626
0.00100606
0.00100586
0.00100567
0.00100548
0.00100529
0.00100511
0.00100493
0.00100476
0.00100457
0.00100429
0.00101163
0.00101133
0.00101105
0.00101077
0.0010105
0.00101024
0.00100997
0.00100971
0.00100946
0.0010092
0.00100895
0.00100871
0.00100847
0.00100823
0.001008
0.00100777
0.00100754
0.00100732
0.0010071
0.00100689
0.00100668
0.00100647
0.00100627
0.00100607
0.00100588
0.00100568
0.0010055
0.00100531
0.00100513
0.00100496
0.00100478
0.00100459
0.00100432
0.00101163
0.00101133
0.00101105
0.00101077
0.0010105
0.00101024
0.00100997
0.00100971
0.00100946
0.0010092
0.00100896
0.00100871
0.00100847
0.00100823
0.001008
0.00100777
0.00100754
0.00100732
0.0010071
0.00100688
0.00100667
0.00100646
0.00100626
0.00100606
0.00100586
0.00100567
0.00100548
0.0010053
0.00100512
0.00100494
0.00100476
0.00100457
0.00100429
0.00101163
0.00101133
0.00101105
0.00101077
0.0010105
0.00101024
0.00100997
0.00100971
0.00100945
0.0010092
0.00100895
0.00100871
0.00100847
0.00100823
0.00100799
0.00100776
0.00100754
0.00100732
0.0010071
0.00100689
0.00100667
0.00100647
0.00100627
0.00100607
0.00100587
0.00100568
0.00100549
0.00100531
0.00100513
0.00100495
0.00100478
0.00100459
0.00100431
0.00101163
0.00101133
0.00101105
0.00101077
0.0010105
0.00101023
0.00100997
0.00100971
0.00100945
0.0010092
0.00100894
0.0010087
0.00100845
0.00100821
0.00100797
0.00100774
0.00100751
0.00100729
0.00100706
0.00100684
0.00100663
0.00100642
0.00100621
0.00100601
0.00100581
0.00100562
0.00100542
0.00100524
0.00100505
0.00100487
0.00100469
0.0010045
0.00100422
0.00101163
0.00101133
0.00101105
0.00101077
0.0010105
0.00101023
0.00100997
0.0010097
0.00100945
0.00100919
0.00100894
0.00100869
0.00100845
0.00100821
0.00100798
0.00100775
0.00100752
0.0010073
0.00100708
0.00100686
0.00100665
0.00100644
0.00100623
0.00100603
0.00100583
0.00100564
0.00100544
0.00100526
0.00100507
0.00100489
0.00100471
0.00100451
0.00100423
0.00101163
0.00101133
0.00101105
0.00101077
0.0010105
0.00101023
0.00100996
0.00100969
0.00100943
0.00100917
0.00100891
0.00100866
0.00100841
0.00100816
0.00100791
0.00100767
0.00100744
0.0010072
0.00100697
0.00100674
0.00100652
0.0010063
0.00100608
0.00100587
0.00100566
0.00100545
0.00100525
0.00100505
0.00100486
0.00100466
0.00100447
0.00100426
0.00100397
0.00101163
0.00101133
0.00101105
0.00101077
0.00101049
0.00101022
0.00100996
0.0010097
0.00100944
0.00100918
0.00100893
0.00100868
0.00100843
0.00100819
0.00100795
0.00100771
0.00100747
0.00100723
0.00100699
0.00100676
0.00100653
0.0010063
0.00100606
0.00100584
0.00100561
0.00100538
0.00100516
0.00100493
0.00100471
0.00100449
0.00100426
0.00100403
0.00100369
0.00101163
0.00101133
0.00101105
0.00101077
0.00101048
0.0010102
0.00100992
0.00100964
0.00100935
0.00100907
0.00100879
0.00100851
0.00100822
0.00100794
0.00100766
0.00100738
0.0010071
0.00100681
0.00100653
0.00100624
0.00100595
0.00100566
0.00100536
0.00100507
0.00100477
0.00100447
0.00100416
0.00100386
0.00100355
0.00100325
0.00100293
0.00100261
0.00100218
0.00101163
0.00101134
0.00101105
0.00101077
0.00101049
0.00101021
0.00100993
0.00100964
0.00100934
0.00100903
0.00100871
0.00100837
0.00100802
0.00100766
0.00100728
0.00100689
0.00100648
0.00100606
0.00100562
0.00100516
0.00100469
0.00100421
0.00100371
0.0010032
0.00100268
0.00100215
0.00100161
0.00100106
0.00100051
0.000999942
0.00099937
0.000998776
0.000998084
0.00101163
0.00101134
0.00101103
0.00101069
0.00101033
0.00100994
0.00100951
0.00100904
0.00100853
0.00100796
0.00100734
0.00100667
0.00100594
0.00100515
0.00100431
0.00100342
0.00100248
0.00100149
0.00100047
0.000999414
0.000998324
0.000997207
0.000996067
0.000994906
0.00099373
0.000992542
0.000991344
0.000990139
0.00098893
0.00098772
0.000986508
0.000985283
0.000983969
0.00101164
0.00101133
0.00101094
0.00101042
0.00100973
0.00100883
0.0010077
0.00100635
0.00100478
0.001003
0.00100104
0.000998909
0.000996631
0.000994228
0.000991719
0.000989125
0.000986463
0.00098375
0.000981
0.000978226
0.00097544
0.000972653
0.000969872
0.000967103
0.000964354
0.00096163
0.000958937
0.000956278
0.000953656
0.000951075
0.000948535
0.000946023
0.000943466
0.00101162
0.0010106
0.00100853
0.00100543
0.0010014
0.000996513
0.00099091
0.000984747
0.000978174
0.000971314
0.000964272
0.000957136
0.000949978
0.000942854
0.000935809
0.000928876
0.000922082
0.000915443
0.000908975
0.000902685
0.000896578
0.000890657
0.000884923
0.000879373
0.000874006
0.000868819
0.000863806
0.000858963
0.000854286
0.000849769
0.000845405
0.000841179
0.000837016
0.00100895
0.000995379
0.000976042
0.000953694
0.00093032
0.000907093
0.000884657
0.000863329
0.000843228
0.000824388
0.000806781
0.000790352
0.000775024
0.00076072
0.000747357
0.00073486
0.000723158
0.000712183
0.000701876
0.000692182
0.000683051
0.000674439
0.000666305
0.000658613
0.000651329
0.000644424
0.000637871
0.000631644
0.000625722
0.000620084
0.00061471
0.00060958
0.000604632
0.000892788
0.000742255
0.000649202
0.00058554
0.000538566
0.000502138
0.000472884
0.000448753
0.000428416
0.000410981
0.000395823
0.000382492
0.000370655
0.000360056
0.0003505
0.000341831
0.000333927
0.000326686
0.000320026
0.000313879
0.000308188
0.000302904
0.000297984
0.000293395
0.000289104
0.000285084
0.000281313
0.000277768
0.000274431
0.000271286
0.000268318
0.000265514
0.000262862
0.000126722
0.000129956
0.000133005
0.000135891
0.000138628
0.00014123
0.000143705
0.000146063
0.000148309
0.00015045
0.000152489
0.000154433
0.000156285
0.00015805
0.000159732
0.000161334
0.00016286
0.000164313
0.000165696
0.000167014
0.000168268
0.000169462
0.000170599
0.00017168
0.00017271
0.000173689
0.000174621
0.000175508
0.000176352
0.000177155
0.000177919
0.000178647
0.000179344
8.54725e-05
0.000115337
0.00014582
0.000176026
0.000203029
0.000226764
0.000248173
0.000268306
0.000288068
0.000308056
0.000328516
0.000349423
0.000370727
0.000392323
0.000414094
0.00043589
0.000457538
0.000479049
0.000500261
0.000521154
0.00054176
0.000562176
0.000582536
0.000602956
0.000623516
0.000644294
0.00066541
0.000687013
0.000709236
0.000732161
0.000755833
0.000780307
0.000805653
0.000831938
0.000859194
0.000887412
0.000916558
0.000946585
0.000977437
0.00100904
0.00104131
0.00107413
0.00110739
0.00114099
0.00117479
0.00120869
0.00124256
0.0012763
0.0013098
0.00134295
0.00137568
0.00140791
0.00143957
0.00147059
0.00150094
0.00153058
0.00155948
0.00158765
0.00161507
0.00164178
0.00166779
0.00169315
0.00171792
0.00174216
0.00176595
0.00178936
0.00181248
0.0018354
0.00185821
0.00188101
0.00190388
0.00192691
0.00195019
0.00197378
0.00199775
0.00202214
0.00204696
0.00207219
0.00209779
0.00212368
0.00214976
0.00217596
0.00220218
0.00222832
0.00225427
0.00227992
0.00230514
0.00232983
0.00235385
0.00237709
0.00239946
0.00242085
0.0024412
0.00246053
0.00247895
0.00249692
0.00251532
0.00253632
0.00256347
0.0026123
7.83551e-05
8.4745e-05
9.52599e-05
0.000110473
0.000129532
0.000151377
0.000174504
0.000197725
0.00022045
0.000242482
0.000263875
0.000284815
0.000305546
0.000326288
0.000347189
0.000368294
0.000389553
0.000410901
0.000432331
0.000453675
0.000474845
0.000495833
0.000516686
0.000537462
0.000558209
0.000578979
0.000599852
0.000620934
0.000642332
0.000664132
0.000686402
0.000709208
0.000732623
0.000756723
0.000781566
0.000807185
0.000833593
0.000860787
0.000888748
0.000917445
0.000946827
0.00097683
0.00100738
0.00103838
0.00106975
0.00110138
0.00113318
0.00116503
0.00119685
0.00122854
0.00126001
0.00129118
0.00132198
0.00135234
0.00138222
0.00141157
0.00144036
0.00146859
0.00149626
0.00152336
0.00154994
0.00157602
0.00160166
0.00162692
0.00165186
0.00167656
0.00170108
0.00172552
0.00174995
0.00177445
0.00179909
0.00182396
0.00184911
0.0018746
0.00190049
0.00192679
0.00195353
0.00198066
0.00200814
0.00203589
0.00206381
0.00209181
0.00211981
0.00214768
0.00217533
0.00220263
0.00222948
0.00225574
0.00228132
0.00230609
0.00232995
0.00235281
0.00237463
0.00239541
0.00241526
0.00243464
0.00245434
0.00247636
0.00250378
0.00254838
0.00013774
0.000137412
0.000137922
0.000139207
0.000141083
0.000143446
0.000147852
0.00015529
0.000165893
0.000179173
0.000194713
0.000212083
0.000230848
0.000250617
0.000271071
0.000291959
0.000313055
0.000334192
0.000355458
0.000376761
0.000398021
0.000419197
0.000440285
0.000461291
0.000482218
0.000503078
0.000523906
0.000544771
0.000565748
0.000586913
0.000608328
0.000630062
0.000652188
0.000674787
0.000697928
0.000721667
0.000746048
0.000771097
0.000796832
0.000823252
0.000850342
0.000878071
0.000906396
0.000935257
0.000964587
0.000994307
0.00102433
0.00105458
0.00108496
0.00111538
0.00114577
0.00117603
0.00120611
0.00123594
0.00126547
0.00129466
0.00132348
0.00135191
0.00137995
0.00140761
0.00143491
0.00146187
0.00148855
0.00151499
0.00154124
0.00156738
0.00159345
0.00161954
0.0016457
0.001672
0.0016985
0.00172525
0.00175231
0.00177973
0.00180752
0.00183572
0.00186431
0.00189327
0.00192253
0.00195201
0.00198162
0.00201127
0.00204086
0.00207027
0.00209941
0.00212816
0.00215641
0.00218404
0.00221095
0.00223702
0.00226216
0.00228629
0.00230935
0.00233137
0.00235247
0.00237305
0.00239387
0.00241668
0.00244417
0.00248399
0.000281176
0.000277081
0.000273364
0.000270022
0.000266857
0.000263254
0.000258684
0.000253001
0.000246344
0.000240655
0.00023688
0.000235502
0.000236881
0.000241158
0.000248274
0.000258011
0.000270023
0.000283893
0.000299283
0.000315913
0.00033348
0.000351732
0.000370482
0.00038959
0.000408948
0.000428486
0.00044817
0.000468
0.000488001
0.000508202
0.000528634
0.000549333
0.000570348
0.000591735
0.000613552
0.000635853
0.000658685
0.000682087
0.000706089
0.000730712
0.000755964
0.000781838
0.000808318
0.000835371
0.000862954
0.000891015
0.000919489
0.00094831
0.000977405
0.0010067
0.00103612
0.00106561
0.00109508
0.0011245
0.0011538
0.00118296
0.00121193
0.0012407
0.00126926
0.00129761
0.00132577
0.00135376
0.00138161
0.00140935
0.00143704
0.00146471
0.00149243
0.00152023
0.00154818
0.00157631
0.00160467
0.0016333
0.00166224
0.00169151
0.00172114
0.00175111
0.00178143
0.00181204
0.0018429
0.00187391
0.00190499
0.00193604
0.00196696
0.00199765
0.00202801
0.00205793
0.0020873
0.00211601
0.00214396
0.00217106
0.0021972
0.00222233
0.00224639
0.0022694
0.00229149
0.00231304
0.00233472
0.00235809
0.00238539
0.00241994
0.000436014
0.000430299
0.000424734
0.000419454
0.000414492
0.000409767
0.000405048
0.000399964
0.000394014
0.000386884
0.000378734
0.000369961
0.000360896
0.000351991
0.000343791
0.000336858
0.000331683
0.000328585
0.000327831
0.000329545
0.000333674
0.000340077
0.000348554
0.000358874
0.000370786
0.000384047
0.000398441
0.000413791
0.000429959
0.000446839
0.000464349
0.000482439
0.000501079
0.000520263
0.000539997
0.000560295
0.000581174
0.000602653
0.000624749
0.000647479
0.000670852
0.00069487
0.000719528
0.000744811
0.000770693
0.000797139
0.000824108
0.000851547
0.000879402
0.000907613
0.00093612
0.000964864
0.000993787
0.00102284
0.00105197
0.00108114
0.00111032
0.00113948
0.00116861
0.00119771
0.00122678
0.00125583
0.00128487
0.00131394
0.00134307
0.00137227
0.0014016
0.00143107
0.00146073
0.0014906
0.00152071
0.00155108
0.00158173
0.00161267
0.0016439
0.00167542
0.00170719
0.00173918
0.00177133
0.00180355
0.00183576
0.00186786
0.00189976
0.00193137
0.00196259
0.00199331
0.00202345
0.00205289
0.00208155
0.00210934
0.00213617
0.00216197
0.00218672
0.00221043
0.00223322
0.00225546
0.00227773
0.00230137
0.00232822
0.00235706
0.000579025
0.000572595
0.000566233
0.000560009
0.000553989
0.0005482
0.00054266
0.000537349
0.000532144
0.000526846
0.000521231
0.000515226
0.000508629
0.000501296
0.000493143
0.000484178
0.00047452
0.00046438
0.000454142
0.000444289
0.0004353
0.000427612
0.000421588
0.000417495
0.000415494
0.000415646
0.000417934
0.000422281
0.000428567
0.000436647
0.000446363
0.000457562
0.000470103
0.000483867
0.000498756
0.000514689
0.000531604
0.000549453
0.0005682
0.000587817
0.000608284
0.000629578
0.000651681
0.000674569
0.000698213
0.000722582
0.000747637
0.000773335
0.000799627
0.000826462
0.000853786
0.000881545
0.000909685
0.000938157
0.000966913
0.00099591
0.00102511
0.00105449
0.00108403
0.0011137
0.0011435
0.00117342
0.00120348
0.00123368
0.00126402
0.00129454
0.00132523
0.00135611
0.0013872
0.0014185
0.00145003
0.00148179
0.00151378
0.001546
0.00157843
0.00161106
0.00164385
0.00167676
0.00170974
0.0017427
0.00177556
0.00180825
0.00184067
0.00187273
0.00190436
0.00193546
0.00196594
0.00199571
0.00202468
0.00205278
0.00207993
0.00210607
0.00213117
0.00215526
0.00217844
0.00220106
0.00222363
0.00224723
0.00227336
0.00229615
0.000701047
0.000694453
0.00068796
0.000681542
0.00067528
0.000669198
0.000663319
0.00065767
0.000652233
0.00064699
0.00064189
0.000636897
0.000631936
0.000626897
0.000621643
0.000616019
0.000609863
0.000603013
0.000595346
0.000586857
0.000577615
0.000567783
0.000557621
0.000547452
0.00053764
0.000528554
0.000520542
0.000513904
0.000508881
0.000505642
0.000504288
0.00050486
0.000507351
0.000511719
0.000517896
0.000525799
0.000535339
0.000546426
0.000558975
0.000572909
0.000588156
0.000604651
0.000622337
0.000641159
0.000661063
0.000681997
0.000703908
0.000726743
0.000750446
0.000774959
0.000800223
0.000826182
0.000852776
0.00087995
0.00090765
0.000935826
0.000964432
0.000993426
0.00102277
0.00105245
0.00108242
0.00111267
0.00114318
0.00117394
0.00120495
0.0012362
0.00126768
0.00129937
0.00133129
0.00136341
0.00139573
0.00142824
0.00146092
0.00149376
0.00152673
0.00155981
0.00159297
0.00162616
0.00165932
0.00169239
0.00172531
0.00175799
0.00179036
0.00182234
0.00185387
0.00188485
0.00191521
0.00194487
0.00197375
0.00200178
0.00202888
0.00205501
0.00208013
0.00210429
0.00212756
0.00215028
0.00217284
0.00219613
0.00222128
0.00223787
0.000798149
0.000792013
0.000785946
0.000779924
0.000773977
0.000768116
0.000762357
0.000756729
0.00075126
0.000745971
0.000740873
0.000735979
0.000731288
0.000726784
0.000722432
0.000718179
0.000713947
0.000709633
0.000705109
0.00070025
0.000694934
0.000689067
0.000682575
0.000675442
0.000667722
0.000659534
0.000651057
0.000642517
0.000634178
0.00062631
0.000619181
0.000613039
0.000608102
0.000604551
0.000602524
0.00060212
0.000603399
0.000606389
0.000611093
0.000617496
0.000625564
0.000635257
0.000646527
0.00065932
0.000673578
0.000689242
0.000706252
0.000724543
0.000744051
0.00076471
0.000786452
0.00080921
0.000832916
0.000857503
0.000882906
0.000909062
0.00093591
0.000963394
0.000991459
0.00102006
0.00104914
0.00107868
0.00110862
0.00113894
0.0011696
0.00120058
0.00123185
0.00126337
0.00129513
0.00132709
0.00135924
0.00139153
0.00142396
0.00145649
0.0014891
0.00152176
0.00155443
0.00158707
0.00161965
0.0016521
0.00168437
0.00171639
0.0017481
0.00177944
0.00181034
0.00184073
0.00187054
0.0018997
0.00192812
0.00195574
0.0019825
0.00200835
0.00203324
0.00205722
0.00208035
0.00210293
0.00212527
0.00214802
0.00217203
0.00218252
0.000870887
0.000865604
0.000860342
0.000855102
0.000849871
0.000844671
0.000839517
0.000834429
0.000829427
0.000824528
0.000819745
0.000815085
0.000810568
0.000806214
0.000802037
0.000798044
0.000794232
0.000790585
0.000787071
0.000783626
0.000780195
0.000776707
0.000773083
0.000769244
0.000765123
0.000760673
0.000755874
0.000750744
0.000745343
0.000739723
0.000734002
0.000728337
0.000722905
0.000717895
0.000713494
0.000709879
0.000707214
0.000705647
0.000705301
0.00070628
0.000708664
0.00071251
0.000717859
0.000724732
0.000733134
0.000743057
0.000754483
0.00076738
0.000781711
0.000797429
0.000814482
0.000832812
0.000852357
0.000873051
0.000894827
0.000917617
0.000941351
0.000965962
0.000991381
0.00101755
0.00104439
0.00107186
0.00109989
0.00112843
0.00115743
0.00118684
0.0012166
0.00124668
0.00127703
0.00130761
0.00133839
0.00136932
0.00140038
0.00143153
0.00146275
0.001494
0.00152527
0.00155651
0.0015877
0.00161879
0.00164974
0.00168049
0.00171101
0.00174122
0.00177108
0.00180052
0.00182948
0.00185787
0.00188562
0.00191267
0.00193893
0.00196437
0.00198893
0.00201265
0.00203555
0.00205791
0.00207994
0.00210208
0.00212493
0.00212979
0.000921864
0.000917653
0.000913422
0.000909175
0.000904908
0.000900622
0.000896334
0.000892053
0.000887789
0.000883555
0.000879362
0.000875223
0.000871153
0.000867167
0.000863285
0.000859524
0.000855902
0.000852438
0.000849141
0.000846016
0.000843065
0.000840271
0.000837613
0.000835063
0.000832586
0.000830143
0.000827694
0.000825206
0.000822654
0.000820024
0.000817318
0.000814561
0.000811802
0.000809119
0.00080656
0.000804224
0.000802228
0.000800696
0.000799752
0.000799517
0.000800109
0.000801634
0.000804189
0.000807858
0.000812712
0.000818806
0.000826182
0.00083487
0.000844884
0.000856228
0.000868891
0.000882854
0.000898088
0.000914554
0.000932205
0.00095099
0.000970852
0.000991728
0.00101355
0.00103626
0.00105979
0.00108407
0.00110903
0.00113461
0.00116075
0.00118738
0.00121445
0.00124191
0.00126969
0.00129775
0.00132606
0.00135456
0.00138323
0.00141204
0.00144097
0.00146998
0.00149907
0.0015282
0.00155737
0.00158653
0.00161567
0.00164474
0.00167371
0.00170253
0.00173114
0.00175948
0.00178749
0.00181509
0.0018422
0.00186873
0.0018946
0.00191975
0.00194412
0.00196772
0.00199055
0.00201283
0.0020347
0.00205638
0.00207829
0.00207846
0.000955744
0.000952591
0.000949392
0.000946151
0.000942872
0.000939552
0.000936196
0.000932812
0.000929409
0.000925994
0.000922575
0.00091916
0.000915755
0.000912367
0.000909011
0.000905702
0.000902459
0.000899302
0.000896244
0.000893305
0.000890507
0.000887866
0.000885396
0.000883107
0.000881003
0.000879084
0.000877345
0.000875776
0.000874365
0.000873098
0.000871963
0.000870953
0.000870068
0.000869319
0.00086872
0.000868302
0.00086809
0.00086812
0.000868453
0.000869162
0.000870324
0.000872022
0.000874339
0.000877356
0.000881151
0.000885795
0.000891355
0.000897887
0.00090544
0.000914051
0.000923747
0.000934545
0.00094645
0.000959459
0.000973556
0.000988718
0.00100491
0.0010221
0.00104023
0.00105927
0.00107914
0.00109979
0.00112117
0.00114321
0.00116586
0.00118905
0.00121273
0.00123684
0.00126134
0.00128619
0.00131133
0.00133674
0.00136239
0.00138826
0.00141433
0.0014406
0.00146704
0.00149367
0.00152047
0.00154743
0.00157453
0.00160176
0.00162908
0.00165646
0.00168386
0.0017112
0.00173842
0.00176544
0.00179216
0.00181849
0.00184433
0.00186958
0.00189417
0.00191807
0.00194126
0.00196389
0.00198602
0.00200768
0.00202915
0.00202617
0.000976687
0.000974454
0.000972165
0.000969824
0.000967435
0.000965
0.000962515
0.000959986
0.000957418
0.000954814
0.000952179
0.000949516
0.000946828
0.000944122
0.000941403
0.000938679
0.000935963
0.000933266
0.000930605
0.000927996
0.00092546
0.000923021
0.000920698
0.000918512
0.000916483
0.00091463
0.00091297
0.000911517
0.00091028
0.000909267
0.000908481
0.000907925
0.000907601
0.00090751
0.000907656
0.000908047
0.000908683
0.000909569
0.000910726
0.000912183
0.000913976
0.000916149
0.000918748
0.000921824
0.00092543
0.00092962
0.000934447
0.000939963
0.000946215
0.000953248
0.000961098
0.000969796
0.000979365
0.000989821
0.00100117
0.00101341
0.00102654
0.00104052
0.00105535
0.00107099
0.0010874
0.00110454
0.00112237
0.00114084
0.0011599
0.00117951
0.00119963
0.0012202
0.00124119
0.00126258
0.00128431
0.00130639
0.00132878
0.00135149
0.0013745
0.00139782
0.00142146
0.00144543
0.00146975
0.00149441
0.00151942
0.00154479
0.00157049
0.00159651
0.0016228
0.00164932
0.00167599
0.00170272
0.00172941
0.00175596
0.00178223
0.00180811
0.00183349
0.00185831
0.0018825
0.00190613
0.00192919
0.00195155
0.00197337
0.00196936
0.000989089
0.00098756
0.000985979
0.000984348
0.00098267
0.000980945
0.000979173
0.000977355
0.000975493
0.000973591
0.000971648
0.000969668
0.00096765
0.000965597
0.000963513
0.000961399
0.000959262
0.000957107
0.000954945
0.000952785
0.000950643
0.000948536
0.00094648
0.000944495
0.000942602
0.000940823
0.00093918
0.000937694
0.000936384
0.00093527
0.000934367
0.00093369
0.000933245
0.000933037
0.000933075
0.000933368
0.000933924
0.000934751
0.000935858
0.000937258
0.000938966
0.000941002
0.00094339
0.000946156
0.00094933
0.000952944