/*--------------------------------*- C++ -*----------------------------------*\
| =========                 |                                                 |
| \\      /  F ield         | OpenFOAM: The Open Source CFD Toolbox           |
|  \\    /   O peration     | Version:  4.1                                   |
|   \\  /    A nd           | Web:      www.OpenFOAM.org                      |
|    \\/     M anipulation  |                                                 |
\*---------------------------------------------------------------------------*/
FoamFile
{
    version     2.0;
    format      ascii;
    class       volScalarField;
    location    "1500";
    object      p;
}
// * * * * * * * * * * * * * * * * * * * * * * * * * * * * * * * * * * * * * //

dimensions      [0 2 -2 0 0 0 0];

internalField   nonuniform List<scalar> 
6820
(
-8.2431
-8.50066
-8.59828
-8.619
-8.65224
-8.69757
-8.7392
-8.77538
-8.80912
-8.84125
-8.87134
-8.89925
-8.92525
-8.94959
-8.97246
-8.99401
-9.01441
-9.03382
-9.05237
-9.07017
-9.08733
-9.10395
-9.12011
-9.13588
-9.15134
-9.16654
-9.18155
-9.19641
-9.21122
-9.22586
-9.24124
-9.25511
-9.28523
-8.35589
-8.52194
-8.60066
-8.62156
-8.6485
-8.68377
-8.7154
-8.74234
-8.76766
-8.79242
-8.81631
-8.83922
-8.86129
-8.88269
-8.90347
-8.92365
-8.9433
-8.96245
-8.98116
-8.99946
-9.01739
-9.03499
-9.05229
-9.06933
-9.08615
-9.10278
-9.11926
-9.13561
-9.15191
-9.16814
-9.18453
-9.20104
-9.21775
-8.41214
-8.51685
-8.59488
-8.6268
-8.65501
-8.68822
-8.71869
-8.74502
-8.76966
-8.7936
-8.81663
-8.83862
-8.85971
-8.88004
-8.89968
-8.91867
-8.93708
-8.95497
-8.97239
-8.98938
-9.006
-9.0223
-9.0383
-9.05406
-9.0696
-9.08497
-9.10021
-9.11535
-9.13044
-9.14548
-9.16066
-9.17555
-9.19108
-8.46193
-8.53692
-8.60958
-8.64475
-8.67223
-8.70381
-8.73385
-8.7602
-8.7846
-8.80804
-8.83042
-8.85168
-8.87197
-8.89147
-8.91026
-8.92841
-8.94599
-8.96308
-8.97973
-8.99599
-9.01191
-9.02754
-9.0429
-9.05805
-9.07301
-9.08782
-9.10251
-9.11713
-9.1317
-9.14625
-9.16084
-9.17542
-9.19008
-8.50342
-8.55465
-8.61486
-8.64973
-8.67698
-8.70724
-8.73649
-8.76253
-8.78668
-8.8099
-8.83218
-8.85346
-8.87388
-8.89355
-8.91256
-8.93096
-8.94881
-8.96615
-8.98305
-8.99954
-9.01566
-9.03146
-9.04698
-9.06225
-9.0773
-9.09217
-9.1069
-9.12151
-9.13605
-9.15054
-9.16503
-9.17955
-9.19415
-8.53821
-8.57406
-8.62491
-8.6602
-8.68786
-8.71692
-8.74528
-8.771
-8.79497
-8.81797
-8.84005
-8.86115
-8.88137
-8.90083
-8.91959
-8.93773
-8.95531
-8.97237
-8.98898
-9.00518
-9.02101
-9.03652
-9.05175
-9.06672
-9.08149
-9.09607
-9.11051
-9.12483
-9.13907
-9.15326
-9.16745
-9.18167
-9.19601
-8.56805
-8.59361
-8.63551
-8.66868
-8.69517
-8.72227
-8.74918
-8.77411
-8.79749
-8.81996
-8.8416
-8.86236
-8.88232
-8.90159
-8.92023
-8.9383
-8.95584
-8.97291
-8.98954
-9.00579
-9.02168
-9.03725
-9.05254
-9.06757
-9.08238
-9.097
-9.11146
-9.12578
-9.13999
-9.15413
-9.16822
-9.18232
-9.19648
-8.59399
-8.61257
-8.64699
-8.67784
-8.70357
-8.72945
-8.75536
-8.77977
-8.80279
-8.82494
-8.84632
-8.86688
-8.88669
-8.90583
-8.92434
-8.94229
-8.95971
-8.97664
-8.99314
-9.00924
-9.02497
-9.04038
-9.05549
-9.07033
-9.08494
-9.09934
-9.11357
-9.12764
-9.14158
-9.15542
-9.16919
-9.18291
-9.19661
-8.61684
-8.63068
-8.65898
-8.68708
-8.71154
-8.73585
-8.76032
-8.78374
-8.80602
-8.82752
-8.84834
-8.86845
-8.88787
-8.90668
-8.92492
-8.94263
-8.95985
-8.97662
-8.99297
-9.00895
-9.02458
-9.03989
-9.05492
-9.06968
-9.08421
-9.09852
-9.11264
-9.1266
-9.14041
-9.15409
-9.16766
-9.18114
-9.19454
-8.63722
-8.64776
-8.67111
-8.69642
-8.71951
-8.74245
-8.7657
-8.78831
-8.81003
-8.83107
-8.85151
-8.87131
-8.8905
-8.90911
-8.92719
-8.94476
-8.96186
-8.97852
-8.99477
-9.01063
-9.02615
-9.04134
-9.05623
-9.07085
-9.08522
-9.09935
-9.11328
-9.12701
-9.14057
-9.15396
-9.16721
-9.1803
-9.19323
-8.65555
-8.66375
-8.68317
-8.70581
-8.72741
-8.74898
-8.77094
-8.79257
-8.81352
-8.83389
-8.85376
-8.87308
-8.89184
-8.91009
-8.92784
-8.94512
-8.96196
-8.97838
-8.99441
-9.01007
-9.0254
-9.04041
-9.05513
-9.06957
-9.08376
-9.09771
-9.11144
-9.12497
-9.1383
-9.15144
-9.1644
-9.17718
-9.18977
-8.67217
-8.67868
-8.69496
-8.71514
-8.73521
-8.75546
-8.77621
-8.79688
-8.81711
-8.83689
-8.85626
-8.87517
-8.8936
-8.91156
-8.92908
-8.94615
-8.96281
-8.97907
-8.99496
-9.01048
-9.02567
-9.04055
-9.05512
-9.06941
-9.08344
-9.09721
-9.11075
-9.12406
-9.13715
-9.15001
-9.16266
-9.17508
-9.18724
-8.6873
-8.69256
-8.70635
-8.72432
-8.74289
-8.76187
-8.78144
-8.80115
-8.8206
-8.83972
-8.85851
-8.87693
-8.89493
-8.91251
-8.92968
-8.94645
-8.96282
-8.97882
-8.99446
-9.00975
-9.02471
-9.03936
-9.05371
-9.06778
-9.08158
-9.09512
-9.10841
-9.12145
-9.13426
-9.14683
-9.15915
-9.17123
-9.18303
-8.70113
-8.70543
-8.71724
-8.73326
-8.7504
-8.76816
-8.78662
-8.80537
-8.82405
-8.84252
-8.86076
-8.8787
-8.89629
-8.91352
-8.93038
-8.94688
-8.96302
-8.9788
-8.99423
-9.00934
-9.02412
-9.03859
-9.05276
-9.06665
-9.08025
-9.09359
-9.10667
-9.11948
-9.13204
-9.14433
-9.15636
-9.1681
-9.17953
-8.71379
-8.71735
-8.72755
-8.7419
-8.75768
-8.77429
-8.79169
-8.80953
-8.82744
-8.84526
-8.86292
-8.88035
-8.89751
-8.91435
-8.93086
-8.94704
-8.96287
-8.97838
-8.99355
-9.0084
-9.02294
-9.03716
-9.05109
-9.06473
-9.07809
-9.09117
-9.10397
-9.1165
-9.12876
-9.14074
-9.15243
-9.16384
-9.17492
-8.72538
-8.72835
-8.73726
-8.75015
-8.76469
-8.78023
-8.79663
-8.81359
-8.83075
-8.84792
-8.86501
-8.88195
-8.89867
-8.91512
-8.93129
-8.94715
-8.96271
-8.97795
-8.99288
-9.0075
-9.02181
-9.03582
-9.04953
-9.06295
-9.07608
-9.08893
-9.10149
-9.11378
-9.12577
-9.13748
-9.14888
-9.15997
-9.17073
-8.73596
-8.73847
-8.74631
-8.75796
-8.77138
-8.78591
-8.8014
-8.81752
-8.83395
-8.85049
-8.86702
-8.88346
-8.89974
-8.9158
-8.9316
-8.94714
-8.96239
-8.97734
-8.992
-9.00635
-9.0204
-9.03416
-9.04761
-9.06078
-9.07365
-9.08623
-9.09852
-9.11051
-9.12221
-9.13361
-9.1447
-9.15547
-9.1659
-8.74559
-8.74772
-8.75469
-8.76528
-8.7777
-8.79131
-8.80594
-8.82128
-8.83702
-8.85295
-8.86893
-8.88489
-8.90073
-8.91639
-8.93184
-8.94705
-8.96199
-8.97666
-8.99104
-9.00514
-9.01894
-9.03245
-9.04566
-9.05858
-9.0712
-9.08353
-9.09556
-9.1073
-9.11873
-9.12985
-9.14066
-9.15114
-9.16127
-8.75431
-8.75612
-8.76238
-8.77206
-8.78359
-8.79638
-8.81022
-8.82483
-8.83992
-8.85526
-8.87072
-8.8862
-8.90161
-8.91689
-8.93198
-8.94685
-8.96149
-8.97586
-8.98997
-9.00379
-9.01733
-9.03057
-9.04352
-9.05618
-9.06854
-9.0806
-9.09236
-9.10381
-9.11496
-9.12579
-9.1363
-9.14649
-9.15633
-8.76214
-8.76369
-8.76936
-8.77828
-8.78903
-8.80106
-8.81419
-8.82814
-8.84262
-8.85741
-8.87237
-8.88739
-8.90239
-8.91728
-8.93202
-8.94657
-8.96089
-8.97497
-8.9888
-9.00235
-9.01562
-9.02861
-9.04131
-9.05371
-9.06581
-9.07761
-9.08911
-9.1003
-9.11118
-9.12174
-9.13198
-9.14189
-9.15146
-8.76908
-8.77043
-8.7756
-8.78387
-8.79395
-8.80533
-8.81782
-8.83116
-8.84508
-8.85936
-8.87385
-8.88844
-8.90303
-8.91755
-8.93195
-8.94617
-8.9602
-8.97399
-8.98753
-9.00081
-9.01382
-9.02654
-9.03898
-9.05112
-9.06296
-9.0745
-9.08573
-9.09665
-9.10726
-9.11755
-9.12752
-9.13716
-9.14646
-8.77514
-8.77631
-8.78108
-8.78882
-8.79833
-8.80913
-8.82106
-8.83386
-8.84727
-8.86107
-8.87513
-8.88931
-8.90353
-8.9177
-8.93176
-8.94567
-8.9594
-8.9729
-8.98617
-8.99918
-9.01192
-9.02439
-9.03657
-9.04845
-9.06003
-9.07131
-9.08229
-9.09295
-9.1033
-9.11333
-9.12304
-9.13242
-9.14147
-8.7803
-8.78133
-8.78578
-8.79308
-8.80211
-8.81242
-8.82386
-8.83619
-8.84915
-8.86253
-8.87618
-8.88999
-8.90385
-8.91769
-8.93144
-8.94505
-8.95848
-8.97171
-8.98471
-8.99746
-9.00994
-9.02215
-9.03407
-9.0457
-9.05703
-9.06806
-9.07878
-9.08919
-9.09929
-9.10907
-9.11852
-9.12766
-9.13647
-8.78454
-8.78546
-8.78965
-8.79661
-8.80525
-8.81516
-8.82619
-8.83812
-8.85068
-8.86368
-8.87698
-8.89044
-8.90398
-8.91751
-8.93096
-8.94428
-8.95744
-8.9704
-8.98313
-8.99562
-9.00785
-9.0198
-9.03147
-9.04285
-9.05393
-9.06471
-9.07518
-9.08534
-9.09519
-9.10472
-9.11393
-9.12283
-9.1314
-8.78781
-8.78866
-8.79267
-8.79936
-8.80771
-8.8173
-8.828
-8.83959
-8.85182
-8.8645
-8.87748
-8.89064
-8.90388
-8.91712
-8.9303
-8.94335
-8.95625
-8.96895
-8.98144
-8.99368
-9.00566
-9.01738
-9.02881
-9.03995
-9.05079
-9.06133
-9.07157
-9.08149
-9.09111
-9.10041
-9.1094
-9.11807
-9.12642
-8.79007
-8.79087
-8.79475
-8.80127
-8.8094
-8.81876
-8.82921
-8.84053
-8.8525
-8.86491
-8.87762
-8.89052
-8.9035
-8.91649
-8.92941
-8.94221
-8.95486
-8.96732
-8.97956
-8.99155
-9.0033
-9.01477
-9.02595
-9.03685
-9.04745
-9.05775
-9.06775
-9.07744
-9.08681
-9.09588
-9.10463
-9.11308
-9.12121
-8.79124
-8.79202
-8.79583
-8.80225
-8.81027
-8.81948
-8.82976
-8.8409
-8.85266
-8.86486
-8.87736
-8.89004
-8.9028
-8.91556
-8.92826
-8.94084
-8.95327
-8.9655
-8.97752
-8.9893
-9.00082
-9.01208
-9.02305
-9.03373
-9.04412
-9.05421
-9.06399
-9.07347
-9.08264
-9.0915
-9.10006
-9.1083
-9.11622
-8.79125
-8.79204
-8.79586
-8.80227
-8.81027
-8.81943
-8.82963
-8.84067
-8.85231
-8.86436
-8.8767
-8.8892
-8.90177
-8.91433
-8.92683
-8.9392
-8.95141
-8.96342
-8.97522
-8.98677
-8.99806
-9.00909
-9.01983
-9.03028
-9.04044
-9.05029
-9.05985
-9.06909
-9.07803
-9.08667
-9.095
-9.10304
-9.11077
-8.79
-8.79085
-8.79476
-8.80128
-8.80937
-8.81859
-8.82881
-8.83983
-8.85143
-8.86342
-8.87566
-8.88804
-8.90048
-8.9129
-8.92524
-8.93745
-8.9495
-8.96134
-8.97296
-8.98434
-8.99546
-9.0063
-9.01686
-9.02713
-9.03711
-9.04678
-9.05615
-9.06522
-9.07398
-9.08244
-9.09059
-9.09844
-9.10597
-8.78736
-8.78832
-8.79242
-8.79918
-8.8075
-8.81691
-8.82726
-8.83837
-8.85001
-8.86198
-8.87417
-8.88647
-8.89879
-8.91107
-8.92325
-8.93529
-8.94714
-8.95879
-8.97021
-8.98137
-8.99228
-9.0029
-9.01324
-9.02329
-9.03305
-9.0425
-9.05165
-9.0605
-9.06905
-9.07729
-9.08524
-9.09291
-9.10028
-8.78317
-8.78428
-8.78872
-8.7959
-8.80461
-8.81434
-8.82496
-8.83628
-8.84807
-8.86015
-8.8724
-8.88472
-8.89704
-8.90928
-8.9214
-8.93336
-8.94512
-8.95666
-8.96796
-8.979
-8.98977
-9.00026
-9.01046
-9.02036
-9.02997
-9.03927
-9.04827
-9.05696
-9.06536
-9.07345
-9.08123
-9.08872
-9.09588
-8.77717
-8.77854
-8.7835
-8.79133
-8.80062
-8.81083
-8.82183
-8.83343
-8.84541
-8.8576
-8.86988
-8.88218
-8.89444
-8.90659
-8.91859
-8.9304
-8.94201
-8.95338
-8.9645
-8.97535
-8.98592
-8.99621
-9.00621
-9.01591
-9.02532
-9.03442
-9.04322
-9.05172
-9.05992
-9.06782
-9.07544
-9.08277
-9.08984
-8.76905
-8.7708
-8.77657
-8.78535
-8.7955
-8.80641
-8.81804
-8.83019
-8.84261
-8.85514
-8.86768
-8.88017
-8.89255
-8.90476
-8.91679
-8.9286
-8.94017
-8.95148
-8.96252
-8.97328
-8.98376
-8.99394
-9.00382
-9.01339
-9.02267
-9.03163
-9.0403
-9.04865
-9.05671
-9.06446
-9.07191
-9.07905
-9.08586
-8.75834
-8.7607
-8.76773
-8.77788
-8.78906
-8.8007
-8.81287
-8.82545
-8.83818
-8.85089
-8.86354
-8.87608
-8.88846
-8.90065
-8.9126
-8.92432
-8.93577
-8.94696
-8.95786
-8.96847
-8.97879
-8.9888
-8.99852
-9.00793
-9.01704
-9.02584
-9.03434
-9.04253
-9.05044
-9.05804
-9.06537
-9.07242
-9.07921
-8.74434
-8.74766
-8.75673
-8.76907
-8.782
-8.79505
-8.80844
-8.82199
-8.83541
-8.84862
-8.86163
-8.8744
-8.88693
-8.89919
-8.91117
-8.92287
-8.93428
-8.94539
-8.95621
-8.96671
-8.97691
-8.9868
-8.99638
-9.00565
-9.01461
-9.02326
-9.0316
-9.03963
-9.04736
-9.05479
-9.06192
-9.06874
-9.07524
-8.72595
-8.73104
-8.74313
-8.75763
-8.77158
-8.78545
-8.79973
-8.81404
-8.828
-8.84159
-8.85489
-8.86787
-8.88053
-8.89285
-8.90484
-8.91651
-8.92787
-8.9389
-8.94962
-8.96002
-8.97011
-8.97988
-8.98934
-8.99849
-9.00734
-9.01588
-9.02411
-9.03204
-9.03968
-9.04703
-9.05409
-9.06089
-9.06741
-8.70102
-8.71017
-8.72957
-8.74931
-8.76574
-8.78113
-8.79665
-8.81177
-8.82615
-8.83994
-8.85333
-8.86633
-8.87893
-8.89116
-8.90304
-8.91458
-8.92578
-8.93664
-8.94718
-8.95739
-8.96728
-8.97685
-8.9861
-8.99503
-9.00365
-9.01197
-9.01997
-9.02768
-9.03508
-9.04219
-9.04901
-9.05554
-9.06177
-8.66608
-8.67974
-8.70537
-8.72863
-8.74758
-8.7656
-8.78324
-8.79969
-8.8149
-8.82928
-8.84305
-8.85625
-8.86893
-8.88115
-8.89298
-8.90443
-8.91553
-8.9263
-8.93674
-8.94686
-8.95667
-8.96617
-8.97537
-8.98426
-8.99285
-9.00114
-9.00913
-9.01683
-9.02423
-9.03134
-9.03814
-9.04463
-9.05079
-8.61869
-8.66634
-8.70573
-8.726
-8.74227
-8.76062
-8.77858
-8.79453
-8.80908
-8.82301
-8.83644
-8.84933
-8.8617
-8.87364
-8.88519
-8.89638
-8.90722
-8.91773
-8.92792
-8.9378
-8.94737
-8.95665
-8.96564
-8.97433
-8.98273
-8.99086
-8.9987
-9.00628
-9.0136
-9.02068
-9.02755
-9.03425
-9.04081
-8.48436
-8.60654
-8.68119
-8.70542
-8.72174
-8.74276
-8.76324
-8.78044
-8.79577
-8.81058
-8.82511
-8.83922
-8.85294
-8.86635
-8.8795
-8.89238
-8.90498
-8.91729
-8.92931
-8.94103
-8.95244
-8.96353
-8.97429
-8.98473
-8.99482
-9.00458
-9.014
-9.02307
-9.0318
-9.04017
-9.0482
-9.05585
-9.06325
-9.33269
-9.48865
-9.706
-9.81044
-9.92133
-10.0275
-10.1089
-10.1718
-10.2211
-10.2576
-10.2828
-10.2975
-10.3034
-10.3031
-10.2993
-10.2947
-10.2897
-10.2815
-10.2763
-10.2788
-10.2906
-10.3116
-10.3399
-10.3732
-10.4094
-10.447
-10.485
-10.5227
-10.5591
-10.5931
-10.6239
-10.6506
-10.6726
-10.6894
-10.7006
-10.7057
-10.7046
-10.6972
-10.6833
-10.6627
-10.6351
-10.6005
-10.5585
-10.509
-10.4519
-10.3869
-10.314
-10.2329
-10.1434
-10.0454
-9.9386
-9.82277
-9.69772
-9.56325
-9.41922
-9.26553
-9.10211
-8.92897
-8.74614
-8.55376
-8.352
-8.14113
-7.92149
-7.69348
-7.45763
-7.21452
-6.96482
-6.70925
-6.44859
-6.18364
-5.91524
-5.64423
-5.37152
-5.09804
-4.82479
-4.55279
-4.28316
-4.01706
-3.7557
-3.50027
-3.25178
-3.01088
-2.77796
-2.55336
-2.3374
-2.13033
-1.93238
-1.74367
-1.56419
-1.39392
-1.2325
-1.07983
-0.934795
-0.797858
-0.665116
-0.541372
-0.410658
-0.302198
-0.144499
-0.0949789
-9.24807
-9.30069
-9.39286
-9.439
-9.49249
-9.56018
-9.62653
-9.68981
-9.75038
-9.80577
-9.85408
-9.89454
-9.92738
-9.95371
-9.97545
-9.99502
-10.0145
-10.0297
-10.0451
-10.0652
-10.0922
-10.1261
-10.1656
-10.2087
-10.2537
-10.2992
-10.3443
-10.3881
-10.4297
-10.4681
-10.5026
-10.5326
-10.5573
-10.5764
-10.5894
-10.596
-10.5961
-10.5896
-10.5763
-10.5562
-10.5289
-10.4945
-10.4526
-10.4032
-10.3462
-10.2813
-10.2084
-10.1274
-10.0381
-9.94032
-9.8338
-9.71836
-9.59379
-9.45995
-9.31668
-9.1639
-9.00156
-8.82965
-8.64825
-8.45747
-8.25751
-8.04862
-7.83115
-7.6055
-7.37219
-7.1318
-6.88497
-6.63242
-6.3749
-6.1132
-5.84814
-5.58055
-5.3113
-5.04133
-4.77159
-4.5031
-4.23692
-3.97418
-3.71605
-3.46366
-3.21797
-2.97965
-2.74909
-2.52664
-2.31261
-2.10728
-1.91085
-1.72345
-1.54509
-1.37573
-1.21505
-1.06295
-0.918339
-0.781729
-0.649251
-0.525874
-0.39574
-0.288577
-0.133521
-0.0881432
-9.20952
-9.23089
-9.27542
-9.30297
-9.32636
-9.35902
-9.39432
-9.42906
-9.46413
-9.49891
-9.53223
-9.56339
-9.5922
-9.61915
-9.64542
-9.67263
-9.70185
-9.73184
-9.76276
-9.79758
-9.83813
-9.88446
-9.93543
-9.98932
-10.0445
-10.0995
-10.1533
-10.2051
-10.2538
-10.2988
-10.3391
-10.3742
-10.4035
-10.4266
-10.4432
-10.4529
-10.4558
-10.4517
-10.4405
-10.4222
-10.3966
-10.3636
-10.3231
-10.2749
-10.219
-10.1552
-10.0835
-10.0036
-9.91538
-9.81874
-9.71344
-9.5993
-9.47615
-9.34383
-9.20221
-9.05121
-8.8908
-8.72097
-8.5418
-8.35342
-8.15602
-7.94986
-7.73527
-7.51267
-7.28256
-7.0455
-6.80214
-6.55315
-6.29929
-6.04131
-5.78003
-5.51624
-5.25083
-4.98467
-4.71872
-4.45396
-4.19142
-3.9322
-3.67742
-3.42816
-3.18535
-2.94963
-2.72145
-2.50113
-2.28902
-2.08538
-1.89041
-1.70425
-1.52691
-1.35838
-1.19834
-1.04672
-0.902437
-0.766061
-0.633792
-0.5107
-0.381197
-0.275188
-0.123169
-0.0811724
-9.2074
-9.23045
-9.26677
-9.29492
-9.31384
-9.33439
-9.3548
-9.37212
-9.38748
-9.40169
-9.4146
-9.42626
-9.43718
-9.44828
-9.46085
-9.47638
-9.49605
-9.52018
-9.5479
-9.58092
-9.62058
-9.66683
-9.71854
-9.7741
-9.83182
-9.89021
-9.948
-10.0041
-10.0573
-10.1068
-10.1517
-10.1913
-10.225
-10.2522
-10.2727
-10.2861
-10.2925
-10.2916
-10.2834
-10.2678
-10.2447
-10.2141
-10.1758
-10.1298
-10.076
-10.0143
-9.9445
-9.86659
-9.78039
-9.68576
-9.58252
-9.4705
-9.34954
-9.21949
-9.08026
-8.93176
-8.77397
-8.60689
-8.43061
-8.24526
-8.05103
-7.84817
-7.63704
-7.41802
-7.19161
-6.95836
-6.71889
-6.47388
-6.22404
-5.97012
-5.71291
-5.4532
-5.19183
-4.92968
-4.66767
-4.40676
-4.14796
-3.89232
-3.64093
-3.39481
-3.15486
-2.92173
-2.69586
-2.47763
-2.26734
-2.06529
-1.87168
-1.68665
-1.51022
-1.34239
-1.18287
-1.03159
-0.887527
-0.751268
-0.619126
-0.496208
-0.367369
-0.262312
-0.113672
-0.0742134
-9.21175
-9.23381
-9.26156
-9.28519
-9.30204
-9.31888
-9.33593
-9.35072
-9.36323
-9.37389
-9.38246
-9.38888
-9.39359
-9.39748
-9.40178
-9.40796
-9.41739
-9.43085
-9.44859
-9.47179
-9.50157
-9.53804
-9.58043
-9.62749
-9.67783
-9.73009
-9.78301
-9.8354
-9.88612
-9.93411
-9.9784
-10.0182
-10.0526
-10.0812
-10.1033
-10.1188
-10.1272
-10.1286
-10.1227
-10.1094
-10.0886
-10.0603
-10.0243
-9.98058
-9.92899
-9.86948
-9.80195
-9.72629
-9.64237
-9.55004
-9.44917
-9.33958
-9.22114
-9.09371
-8.95721
-8.81155
-8.65673
-8.49276
-8.31971
-8.13773
-7.94699
-7.74777
-7.54038
-7.32523
-7.10278
-6.87358
-6.63822
-6.39737
-6.15172
-5.902
-5.64897
-5.39342
-5.13617
-4.87807
-4.62002
-4.36296
-4.10787
-3.85577
-3.60769
-3.36464
-3.12747
-2.89682
-2.67317
-2.45689
-2.24831
-2.04771
-1.85531
-1.67126
-1.49559
-1.3283
-1.16914
-1.01806
-0.874071
-0.737785
-0.605665
-0.482789
-0.3546
-0.250287
-0.105219
-0.067527
-9.21313
-9.2337
-9.25732
-9.27972
-9.29793
-9.31497
-9.33148
-9.34576
-9.35741
-9.36675
-9.3738
-9.3786
-9.3816
-9.38359
-9.38558
-9.38879
-9.39436
-9.40313
-9.41573
-9.43288
-9.45549
-9.48377
-9.51724
-9.55502
-9.59606
-9.63925
-9.68353
-9.72788
-9.77129
-9.81279
-9.85149
-9.88655
-9.9172
-9.9428
-9.96277
-9.9767
-9.98427
-9.98522
-9.97933
-9.96642
-9.94631
-9.91887
-9.88395
-9.84145
-9.79126
-9.73327
-9.66737
-9.59346
-9.51139
-9.42103
-9.32224
-9.21486
-9.09876
-8.97381
-8.83992
-8.69703
-8.54511
-8.3842
-8.21435
-8.03571
-7.84846
-7.65285
-7.4492
-7.23789
-7.01938
-6.7942
-6.56292
-6.32618
-6.08467
-5.83908
-5.59017
-5.33869
-5.08546
-4.83131
-4.57711
-4.32377
-4.07226
-3.82356
-3.57866
-3.33853
-3.10398
-2.87567
-2.65408
-2.43959
-2.23255
-2.03323
-1.84186
-1.6586
-1.48351
-1.31659
-1.15762
-1.00656
-0.862485
-0.726013
-0.593789
-0.470804
-0.343218
-0.239418
-0.0979959
-0.0613227
-9.21317
-9.23293
-9.25425
-9.27489
-9.2925
-9.30838
-9.32335
-9.33655
-9.34755
-9.35655
-9.36363
-9.36885
-9.37253
-9.37527
-9.37791
-9.3814
-9.3867
-9.3946
-9.40574
-9.42067
-9.44007
-9.46414
-9.49254
-9.52454
-9.55928
-9.59582
-9.63325
-9.67065
-9.70716
-9.74195
-9.77422
-9.80325
-9.82835
-9.8489
-9.8644
-9.87442
-9.87863
-9.87674
-9.8685
-9.8537
-9.83214
-9.80362
-9.76798
-9.72509
-9.67479
-9.61697
-9.55148
-9.4782
-9.39698
-9.30767
-9.21013
-9.1042
-8.98974
-8.86664
-8.73478
-8.59412
-8.44462
-8.28631
-8.11925
-7.94356
-7.75943
-7.56709
-7.36684
-7.15907
-6.94421
-6.72276
-6.49529
-6.26241
-6.02477
-5.78307
-5.53803
-5.2904
-5.04096
-4.79053
-4.53996
-4.29014
-4.04199
-3.79648
-3.55455
-3.31712
-3.08501
-2.85885
-2.63912
-2.42623
-2.22052
-2.02229
-1.83176
-1.64912
-1.47441
-1.30767
-1.14869
-0.99747
-0.85314
-0.716312
-0.583843
-0.460586
-0.333519
-0.229991
-0.0921563
-0.0558176
-9.21257
-9.23129
-9.25081
-9.26978
-9.28684
-9.30238
-9.31696
-9.33007
-9.34128
-9.35062
-9.35815
-9.36396
-9.36834
-9.37182
-9.37513
-9.37908
-9.38451
-9.39215
-9.40257
-9.41633
-9.43389
-9.45542
-9.48063
-9.50894
-9.53958
-9.57174
-9.60456
-9.63722
-9.6689
-9.69885
-9.72632
-9.75063
-9.77116
-9.78735
-9.79872
-9.80488
-9.8055
-9.80032
-9.7891
-9.77161
-9.74766
-9.71706
-9.67964
-9.63525
-9.58375
-9.52498
-9.45882
-9.38511
-9.30372
-9.21448
-9.11724
-9.01185
-8.89817
-8.77608
-8.64548
-8.5063
-8.35852
-8.20213
-8.03721
-7.86387
-7.68228
-7.49266
-7.29531
-7.09058
-6.87889
-6.66074
-6.43664
-6.20721
-5.97308
-5.7349
-5.49339
-5.24928
-5.00332
-4.75631
-4.50909
-4.26251
-4.01747
-3.77489
-3.5357
-3.30076
-3.07086
-2.84663
-2.62857
-2.41708
-2.21251
-2.01517
-1.8253
-1.64306
-1.46855
-1.3018
-1.14264
-0.991072
-0.846311
-0.708957
-0.576096
-0.452402
-0.325742
-0.222241
-0.087812
-0.0511849
-9.21011
-9.22803
-9.24633
-9.26416
-9.28065
-9.29578
-9.30979
-9.32243
-9.33338
-9.34266
-9.35035
-9.35659
-9.36165
-9.366
-9.37024
-9.37504
-9.38111
-9.38908
-9.39948
-9.41278
-9.42931
-9.44921
-9.47226
-9.49795
-9.52565
-9.55461
-9.58407
-9.61325
-9.64141
-9.66782
-9.69179
-9.71267
-9.72987
-9.74285
-9.75114
-9.75438
-9.75222
-9.74441
-9.73071
-9.7109
-9.68478
-9.65219
-9.61295
-9.56692
-9.51396
-9.45392
-9.38667
-9.31206
-9.22997
-9.14023
-9.04271
-8.93725
-8.82373
-8.70202
-8.57203
-8.43369
-8.28698
-8.1319
-7.96851
-7.79692
-7.61729
-7.42983
-7.23483
-7.03262
-6.82361
-6.60827
-6.3871
-6.16069
-5.92965
-5.69461
-5.45627
-5.21532
-4.97252
-4.72864
-4.48447
-4.24086
-3.99867
-3.75879
-3.52209
-3.28942
-3.06152
-2.83904
-2.62245
-2.41218
-2.20858
-2.01195
-1.82254
-1.64054
-1.46605
-1.29912
-1.1396
-0.987521
-0.842167
-0.704127
-0.57073
-0.446437
-0.320052
-0.216334
-0.085022
-0.0475558
-9.20806
-9.22512
-9.24233
-9.25913
-9.27487
-9.28946
-9.303
-9.31535
-9.3263
-9.3358
-9.34393
-9.35081
-9.35668
-9.36191
-9.36702
-9.37259
-9.37921
-9.38745
-9.39776
-9.41056
-9.42614
-9.44459
-9.46574
-9.48916
-9.51429
-9.54048
-9.56703
-9.59324
-9.6184
-9.64185
-9.66292
-9.68099
-9.69549
-9.70591
-9.71179
-9.71275
-9.70846
-9.69865
-9.68307
-9.6615
-9.63374
-9.59962
-9.55897
-9.51165
-9.4575
-9.39639
-9.32819
-9.25277
-9.16999
-9.07971
-8.98179
-8.8761
-8.76252
-8.64093
-8.51126
-8.37345
-8.22746
-8.07332
-7.91107
-7.74084
-7.56276
-7.37706
-7.18401
-6.98392
-6.7772
-6.56429
-6.34568
-6.12194
-5.89364
-5.66142
-5.42594
-5.18788
-4.94796
-4.70694
-4.46558
-4.22471
-3.98515
-3.74775
-3.51335
-3.28276
-3.05671
-2.8358
-2.62054
-2.41133
-2.20854
-2.01248
-1.82339
-1.64148
-1.46686
-1.2996
-1.13958
-0.986839
-0.840751
-0.701883
-0.567818
-0.442776
-0.316522
-0.212354
-0.0837803
-0.0449965
-9.20422
-9.22061
-9.23699
-9.25299
-9.26813
-9.28227
-9.29547
-9.30759
-9.31848
-9.32808
-9.33647
-9.34376
-9.35019
-9.35609
-9.36189
-9.36809
-9.37521
-9.38372
-9.39404
-9.40651
-9.42137
-9.43867
-9.45826
-9.47979
-9.50275
-9.52657
-9.55062
-9.57426
-9.59685
-9.61773
-9.63629
-9.65194
-9.66414
-9.67239
-9.67624
-9.67531
-9.66927
-9.65784
-9.64076
-9.61781
-9.58878
-9.5535
-9.51178
-9.46348
-9.40845
-9.34656
-9.27767
-9.20165
-9.11836
-9.02769
-8.92949
-8.82365
-8.71005
-8.5886
-8.45921
-8.32185
-8.17649
-8.02316
-7.86191
-7.69285
-7.51614
-7.33198
-7.14065
-6.94246
-6.73779
-6.52708
-6.3108
-6.08948
-5.86371
-5.63409
-5.40125
-5.16587
-4.92865
-4.6903
-4.45158
-4.21328
-3.97619
-3.74112
-3.50889
-3.28025
-3.05591
-2.83647
-2.62242
-2.41416
-2.21208
-2.01647
-1.82759
-1.64566
-1.47079
-1.30308
-1.14244
-0.988928
-0.841989
-0.702175
-0.567327
-0.441405
-0.315131
-0.210293
-0.0840166
-0.0435069
-9.20105
-9.21675
-9.23238
-9.24763
-9.2622
-9.27589
-9.2887
-9.30056
-9.31134
-9.32102
-9.32964
-9.33735
-9.34432
-9.35085
-9.3573
-9.36409
-9.37165
-9.38039
-9.39068
-9.40278
-9.41692
-9.4331
-9.45123
-9.47097
-9.49188
-9.51347
-9.53517
-9.55639
-9.57654
-9.595
-9.6112
-9.62458
-9.63463
-9.64085
-9.64281
-9.64015
-9.63251
-9.61962
-9.60121
-9.57706
-9.54694
-9.51067
-9.46808
-9.41901
-9.3633
-9.30082
-9.23143
-9.155
-9.0714
-8.9805
-8.88218
-8.77633
-8.66283
-8.54161
-8.41259
-8.27574
-8.13104
-7.97853
-7.81826
-7.65035
-7.47495
-7.29228
-7.10259
-6.90621
-6.70348
-6.49485
-6.28078
-6.06178
-5.83841
-5.61126
-5.38096
-5.14814
-4.91349
-4.67771
-4.44153
-4.20569
-3.97098
-3.73815
-3.50799
-3.28123
-3.05854
-2.84049
-2.62757
-2.4202
-2.21875
-2.02352
-1.83478
-1.65275
-1.47755
-1.30931
-1.14796
-0.993587
-0.845708
-0.704857
-0.569129
-0.442217
-0.315772
-0.210062
-0.0856009
-0.0430193
-9.19647
-9.21161
-9.2266
-9.24124
-9.2553
-9.26861
-9.28109
-9.29272
-9.30344
-9.3132
-9.32203
-9.33006
-9.33745
-9.34447
-9.3514
-9.35862
-9.36649
-9.37536
-9.38554
-9.39727
-9.4107
-9.42588
-9.44267
-9.46079
-9.47986
-9.49942
-9.51898
-9.538
-9.55591
-9.57216
-9.5862
-9.59751
-9.60558
-9.60994
-9.61019
-9.60594
-9.59686
-9.58265
-9.56305
-9.53782
-9.50675
-9.46964
-9.42631
-9.37659
-9.32034
-9.2574
-9.18764
-9.11093
-9.02714
-8.93614
-8.83782
-8.73206
-8.61878
-8.49788
-8.36932
-8.23305
-8.08908
-7.93744
-7.77819
-7.61146
-7.43739
-7.2562
-7.06815
-6.87354
-6.67274
-6.46616
-6.25425
-6.03752
-5.81651
-5.59179
-5.36396
-5.13366
-4.90153
-4.66827
-4.43457
-4.20115
-3.96876
-3.73813
-3.51001
-3.28508
-3.06398
-2.8473
-2.63549
-2.42897
-2.22811
-2.03322
-1.84457
-1.66238
-1.48681
-1.31798
-1.15587
-1.00056
-0.851676
-0.709718
-0.573033
-0.445036
-0.318272
-0.211503
-0.0883592
-0.0434113
-9.19245
-9.20702
-9.22144
-9.23552
-9.24908
-9.26199
-9.27414
-9.28552
-9.29612
-9.30591
-9.31489
-9.32317
-9.33091
-9.33832
-9.34566
-9.35323
-9.36133
-9.37028
-9.38032
-9.39165
-9.40439
-9.41859
-9.43411
-9.45069
-9.46799
-9.48563
-9.50314
-9.52004
-9.5358
-9.54992
-9.56187
-9.57115
-9.5773
-9.57986
-9.57842
-9.57263
-9.56213
-9.54664
-9.52588
-9.49962
-9.46764
-9.42973
-9.3857
-9.3354
-9.27866
-9.21532
-9.14527
-9.06835
-8.98444
-8.89342
-8.79518
-8.68961
-8.57662
-8.45613
-8.3281
-8.19249
-8.04931
-7.8986
-7.74043
-7.57491
-7.40221
-7.22254
-7.03614
-6.84333
-6.64446
-6.43993
-6.23019
-6.01572
-5.79706
-5.57475
-5.34939
-5.12159
-4.89198
-4.66122
-4.42999
-4.19898
-3.9689
-3.74045
-3.51434
-3.29123
-3.07174
-2.8564
-2.64569
-2.44002
-2.23974
-2.04517
-1.85658
-1.67422
-1.49823
-1.32877
-1.16585
-1.00958
-0.859636
-0.716519
-0.578809
-0.449649
-0.322418
-0.214418
-0.0920945
-0.0445263
-9.18748
-9.20156
-9.21546
-9.22904
-9.24216
-9.25471
-9.2666
-9.27777
-9.28823
-9.298
-9.3071
-9.31558
-9.32359
-9.3313
-9.33893
-9.34675
-9.35499
-9.36392
-9.37375
-9.38464
-9.39668
-9.40991
-9.4242
-9.43932
-9.45497
-9.47079
-9.48638
-9.50129
-9.51504
-9.52715
-9.53713
-9.54452
-9.54885
-9.5497
-9.54668
-9.53942
-9.52759
-9.51089
-9.48906
-9.46183
-9.429
-9.39035
-9.3457
-9.29487
-9.2377
-9.17403
-9.10374
-9.02667
-8.94271
-8.85173
-8.75363
-8.6483
-8.53566
-8.41564
-8.28819
-8.1533
-8.01096
-7.86123
-7.70418
-7.53992
-7.36863
-7.1905
-7.00579
-6.8148
-6.61788
-6.41542
-6.20786
-5.99567
-5.77936
-5.55948
-5.3366
-5.11131
-4.88422
-4.65598
-4.42722
-4.19863
-3.97086
-3.74461
-3.52053
-3.29925
-3.08137
-2.8674
-2.65779
-2.45297
-2.25327
-2.05902
-1.87049
-1.68793
-1.51151
-1.3414
-1.17764
-1.02037
-0.869337
-0.72502
-0.586225
-0.455832
-0.327986
-0.218595
-0.0966085
-0.0461971
-9.18285
-9.19647
-9.2099
-9.22303
-9.23574
-9.24795
-9.25957
-9.27055
-9.28088
-9.29058
-9.29971
-9.30832
-9.31651
-9.32442
-9.33226
-9.34022
-9.34853
-9.35737
-9.36694
-9.37736
-9.38872
-9.40099
-9.41409
-9.42782
-9.44188
-9.45598
-9.46973
-9.48273
-9.49453
-9.5047
-9.51277
-9.5183
-9.52086
-9.52003
-9.51544
-9.50673
-9.49357
-9.47567
-9.45275
-9.42456
-9.39088
-9.3515
-9.30622
-9.25487
-9.19728
-9.13329
-9.06277
-8.98558
-8.90159
-8.81069
-8.71276
-8.60771
-8.49546
-8.37594
-8.24912
-8.11498
-7.97352
-7.82481
-7.66891
-7.50595
-7.33609
-7.15954
-6.97654
-6.7874
-6.59245
-6.39209
-6.18672
-5.97683
-5.76291
-5.54548
-5.3251
-5.10233
-4.87779
-4.65208
-4.42582
-4.19966
-3.97424
-3.7502
-3.52817
-3.30875
-3.0925
-2.87991
-2.67144
-2.46748
-2.26838
-2.07446
-1.88599
-1.70324
-1.52638
-1.35561
-1.191
-1.0327
-0.880552
-0.735001
-0.595066
-0.463377
-0.334764
-0.223832
-0.101721
-0.0482712
-9.17768
-9.19086
-9.20385
-9.21656
-9.22889
-9.24077
-9.25213
-9.26292
-9.27313
-9.28276
-9.29187
-9.30054
-9.30884
-9.31689
-9.32485
-9.33288
-9.34115
-9.34985
-9.3591
-9.36903
-9.37967
-9.39099
-9.40293
-9.4153
-9.42786
-9.44031
-9.45232
-9.4635
-9.47346
-9.48178
-9.48802
-9.49177
-9.49263
-9.4902
-9.4841
-9.47399
-9.45955
-9.44048
-9.41652
-9.38741
-9.35291
-9.31283
-9.26695
-9.21511
-9.15713
-9.09286
-9.02215
-8.94486
-8.86087
-8.77007
-8.67234
-8.5676
-8.45576
-8.33678
-8.21061
-8.07724
-7.9367
-7.78902
-7.6343
-7.47266
-7.30426
-7.1293
-6.94804
-6.76076
-6.56781
-6.36955
-6.16641
-5.95883
-5.74731
-5.53235
-5.31449
-5.09428
-4.8723
-4.64915
-4.42542
-4.20172
-3.97867
-3.75687
-3.53692
-3.31939
-3.10481
-2.89365
-2.68634
-2.48328
-2.2848
-2.09123
-1.90284
-1.7199
-1.54261
-1.37118
-1.20571
-1.04638
-0.893082
-0.746272
-0.605145
-0.4721
-0.342571
-0.229961
-0.10729
-0.0506356
-9.17268
-9.18546
-9.19805
-9.21037
-9.22235
-9.23393
-9.24503
-9.25564
-9.26572
-9.27528
-9.28434
-9.293
-9.30133
-9.30943
-9.31744
-9.32546
-9.33363
-9.3421
-9.351
-9.36038
-9.37028
-9.38067
-9.39149
-9.40258
-9.4137
-9.42459
-9.43493
-9.44437
-9.45255
-9.45908
-9.46356
-9.46559
-9.46478
-9.46076
-9.45317
-9.44168
-9.42596
-9.40574
-9.38072
-9.35067
-9.31535
-9.27455
-9.22807
-9.17573
-9.11735
-9.05278
-8.98187
-8.90449
-8.8205
-8.7298
-8.63228
-8.52785
-8.41644
-8.298
-8.1725
-8.03992
-7.9003
-7.75368
-7.60015
-7.43984
-7.2729
-7.09955
-6.92004
-6.73464
-6.54368
-6.34755
-6.14664
-5.94139
-5.73228
-5.5198
-5.30448
-5.08685
-4.86747
-4.6469
-4.42572
-4.20451
-3.98386
-3.76434
-3.5465
-3.3309
-3.11802
-2.90832
-2.70222
-2.50009
-2.30227
-2.10907
-1.92079
-1.73768
-1.55997
-1.38788
-1.22155
-1.06118
-0.906734
-0.758647
-0.616283
-0.481833
-0.351241
-0.236837
-0.113199
-0.0532174
-9.16741
-9.17981
-9.19201
-9.20397
-9.21561
-9.22688
-9.23773
-9.24813
-9.25806
-9.26752
-9.27653
-9.28514
-9.29343
-9.3015
-9.30946
-9.3174
-9.32542
-9.33363
-9.34212
-9.35092
-9.36008
-9.36958
-9.37933
-9.38918
-9.39892
-9.40831
-9.41705
-9.42483
-9.43131
-9.43613
-9.4389
-9.43927
-9.43685
-9.4313
-9.42227
-9.40943
-9.39247
-9.3711
-9.34506
-9.31409
-9.27797
-9.23647
-9.1894
-9.13657
-9.0778
-9.01294
-8.94185
-8.86437
-8.7804
-8.68981
-8.59251
-8.48841
-8.37743
-8.25955
-8.13471
-8.00293
-7.86423
-7.71867
-7.56634
-7.40735
-7.24189
-7.07015
-6.89238
-6.70885
-6.5199
-6.32589
-6.12722
-5.9243
-5.71762
-5.50764
-5.29487
-5.07983
-4.86306
-4.64509
-4.42649
-4.2078
-3.98957
-3.77236
-3.55667
-3.34302
-3.13188
-2.92368
-2.71882
-2.51766
-2.32053
-2.12773
-1.93958
-1.75632
-1.57821
-1.40548
-1.2383
-1.0769
-0.921293
-0.771922
-0.628285
-0.492391
-0.360605
-0.244313
-0.119342
-0.055966
-9.16222
-9.17425
-9.1861
-9.19772
-9.20904
-9.22003
-9.23063
-9.24083
-9.2506
-9.25994
-9.26886
-9.27741
-9.28562
-9.29359
-9.30141
-9.30919
-9.31697
-9.32486
-9.3329
-9.34114
-9.34959
-9.35822
-9.36694
-9.3756
-9.38402
-9.39198
-9.3992
-9.40539
-9.41024
-9.4134
-9.41453
-9.41329
-9.40931
-9.40226
-9.39181
-9.37763
-9.35944
-9.33694