/*--------------------------------*- C++ -*----------------------------------*\
| =========                 |                                                 |
| \\      /  F ield         | OpenFOAM: The Open Source CFD Toolbox           |
|  \\    /   O peration     | Version:  4.1                                   |
|   \\  /    A nd           | Web:      www.OpenFOAM.org                      |
|    \\/     M anipulation  |                                                 |
\*---------------------------------------------------------------------------*/
FoamFile
{
    version     2.0;
    format      ascii;
    class       surfaceScalarField;
    location    "1500";
    object      phi;
}
// * * * * * * * * * * * * * * * * * * * * * * * * * * * * * * * * * * * * * //

dimensions      [0 3 -1 0 0 0 0];

internalField   nonuniform List<scalar> 
13452
(
5.95313e-05
7.37189e-07
5.86592e-05
8.72055e-07
5.78162e-05
8.43023e-07
5.69811e-05
8.35093e-07
5.61551e-05
8.26045e-07
5.53509e-05
8.04137e-07
5.4576e-05
7.74946e-07
5.38328e-05
7.43204e-07
5.31224e-05
7.10328e-07
5.24455e-05
6.76897e-07
5.1802e-05
6.43566e-07
5.11911e-05
6.10909e-07
5.06118e-05
5.79288e-07
5.00629e-05
5.4889e-07
4.95431e-05
5.19807e-07
4.9051e-05
4.9207e-07
4.85853e-05
4.65672e-07
4.81448e-05
4.40578e-07
4.7728e-05
4.16737e-07
4.73339e-05
3.94091e-07
4.69614e-05
3.72576e-07
4.66092e-05
3.5213e-07
4.62765e-05
3.32689e-07
4.59624e-05
3.14195e-07
4.56658e-05
2.96588e-07
4.53859e-05
2.79815e-07
4.51221e-05
2.63813e-07
4.48735e-05
2.48585e-07
4.46397e-05
2.33884e-07
4.44192e-05
2.20433e-07
4.42136e-05
2.05586e-07
4.40178e-05
1.95803e-07
1.67994e-07
4.38498e-05
6.23701e-05
3.5739e-07
6.26549e-05
5.87255e-07
6.28762e-05
6.21723e-07
6.30527e-05
6.58587e-07
6.31874e-05
6.91411e-07
6.32837e-05
7.07861e-07
6.33451e-05
7.1353e-07
6.33748e-05
7.13499e-07
6.33761e-05
7.09032e-07
6.33524e-05
7.00535e-07
6.33073e-05
6.88731e-07
6.32438e-05
6.74417e-07
6.31648e-05
6.58229e-07
6.30731e-05
6.40652e-07
6.29708e-05
6.22079e-07
6.286e-05
6.02837e-07
6.27425e-05
5.83188e-07
6.26197e-05
5.63339e-07
6.2493e-05
5.43454e-07
6.23635e-05
5.23661e-07
6.2232e-05
5.0406e-07
6.20994e-05
4.84727e-07
6.19663e-05
4.6572e-07
6.18335e-05
4.4708e-07
6.17012e-05
4.28836e-07
6.157e-05
4.11009e-07
6.14402e-05
3.93599e-07
6.13122e-05
3.76646e-07
6.1186e-05
3.6003e-07
6.10624e-05
3.44082e-07
6.09402e-05
3.27738e-07
6.08228e-05
3.13262e-07
2.97055e-07
6.06937e-05
6.38365e-05
2.82304e-07
6.38978e-05
5.25936e-07
6.39331e-05
5.86407e-07
6.39614e-05
6.30299e-07
6.39849e-05
6.67943e-07
6.40043e-05
6.88445e-07
6.40213e-05
6.96576e-07
6.40366e-05
6.98201e-07
6.40503e-05
6.95271e-07
6.40624e-05
6.88411e-07
6.40728e-05
6.78395e-07
6.40812e-05
6.66034e-07
6.40874e-05
6.51949e-07
6.40915e-05
6.36591e-07
6.40933e-05
6.20312e-07
6.40927e-05
6.03399e-07
6.40898e-05
5.8608e-07
6.40846e-05
5.68532e-07
6.40772e-05
5.50894e-07
6.40676e-05
5.33271e-07
6.40559e-05
5.15747e-07
6.40422e-05
4.98384e-07
6.40267e-05
4.81228e-07
6.40095e-05
4.64315e-07
6.39906e-05
4.47667e-07
6.39704e-05
4.31299e-07
6.39487e-05
4.15214e-07
6.3926e-05
3.99428e-07
6.39021e-05
3.83889e-07
6.38775e-05
3.68692e-07
6.38516e-05
3.53598e-07
6.3826e-05
3.38889e-07
3.24598e-07
6.37985e-05
6.5644e-05
2.21346e-07
6.57108e-05
4.59203e-07
6.57547e-05
5.4244e-07
6.57894e-05
5.95593e-07
6.5819e-05
6.38406e-07
6.58438e-05
6.63646e-07
6.5865e-05
6.75383e-07
6.58835e-05
6.79617e-07
6.59001e-05
6.78755e-07
6.59148e-05
6.73631e-07
6.59282e-05
6.6509e-07
6.59402e-05
6.53995e-07
6.59511e-05
6.41013e-07
6.59611e-05
6.26629e-07
6.59702e-05
6.11222e-07
6.59785e-05
5.95097e-07
6.59861e-05
5.785e-07
6.5993e-05
5.61618e-07
6.59993e-05
5.44596e-07
6.6005e-05
5.27548e-07
6.60102e-05
5.10559e-07
6.60149e-05
4.93692e-07
6.60191e-05
4.76995e-07
6.60229e-05
4.60502e-07
6.60264e-05
4.44233e-07
6.60295e-05
4.28202e-07
6.60323e-05
4.12409e-07
6.60348e-05
3.96863e-07
6.60372e-05
3.8153e-07
6.60394e-05
3.6645e-07
6.60415e-05
3.51527e-07
6.60435e-05
3.36867e-07
3.22828e-07
6.60453e-05
6.75014e-05
1.76691e-07
6.75606e-05
4.00047e-07
6.7606e-05
4.97073e-07
6.76451e-05
5.56441e-07
6.76814e-05
6.02161e-07
6.77143e-05
6.30727e-07
6.77441e-05
6.45523e-07
6.77716e-05
6.52145e-07
6.77972e-05
6.5321e-07
6.7821e-05
6.49744e-07
6.78435e-05
6.42667e-07
6.78646e-05
6.32877e-07
6.78845e-05
6.21069e-07
6.79034e-05
6.07749e-07
6.79213e-05
5.9331e-07
6.79383e-05
5.78071e-07
6.79546e-05
5.62282e-07
6.797e-05
5.46138e-07
6.79848e-05
5.2979e-07
6.7999e-05
5.13355e-07
6.80127e-05
4.96921e-07
6.80258e-05
4.80556e-07
6.80385e-05
4.64307e-07
6.80508e-05
4.48211e-07
6.80627e-05
4.3229e-07
6.80744e-05
4.16556e-07
6.80858e-05
4.01013e-07
6.8097e-05
3.85661e-07
6.8108e-05
3.70482e-07
6.8119e-05
3.55481e-07
6.81299e-05
3.40626e-07
6.81408e-05
3.25928e-07
3.1155e-07
6.81521e-05
6.94169e-05
1.43865e-07
6.94686e-05
3.48321e-07
6.95132e-05
4.52411e-07
6.95533e-05
5.16339e-07
6.95912e-05
5.64288e-07
6.96263e-05
5.95614e-07
6.96587e-05
6.1312e-07
6.9689e-05
6.21898e-07
6.97175e-05
6.24712e-07
6.97444e-05
6.22776e-07
6.977e-05
6.17078e-07
6.97944e-05
6.08534e-07
6.98176e-05
5.97852e-07
6.98398e-05
5.85555e-07
6.98611e-05
5.72047e-07
6.98815e-05
5.57654e-07
6.99011e-05
5.42633e-07
6.99201e-05
5.27186e-07
6.99384e-05
5.11469e-07
6.99561e-05
4.95605e-07
6.99734e-05
4.79685e-07
6.99902e-05
4.6378e-07
7.00065e-05
4.47943e-07
7.00225e-05
4.32211e-07
7.00382e-05
4.16606e-07
7.00536e-05
4.01145e-07
7.00688e-05
3.85829e-07
7.00838e-05
3.70658e-07
7.00987e-05
3.55618e-07
7.01135e-05
3.40695e-07
7.01282e-05
3.2587e-07
7.0143e-05
3.1109e-07
2.96421e-07
7.01582e-05
7.13907e-05
1.1945e-07
7.14348e-05
3.04264e-07
7.14764e-05
4.10818e-07
7.1515e-05
4.77778e-07
7.15522e-05
5.27082e-07
7.15874e-05
5.60332e-07
7.16206e-05
5.7999e-07
7.16519e-05
5.90599e-07
7.16816e-05
5.94956e-07
7.171e-05
5.94402e-07
7.17371e-05
5.89963e-07
7.17631e-05
5.82561e-07
7.1788e-05
5.72915e-07
7.1812e-05
5.61559e-07
7.18352e-05
5.4891e-07
7.18575e-05
5.35302e-07
7.18791e-05
5.20998e-07
7.19001e-05
5.06206e-07
7.19205e-05
4.91086e-07
7.19404e-05
4.75765e-07
7.19597e-05
4.6034e-07
7.19786e-05
4.44883e-07
7.19971e-05
4.29449e-07
7.20152e-05
4.14077e-07
7.2033e-05
3.98792e-07
7.20506e-05
3.83608e-07
7.20679e-05
3.68532e-07
7.2085e-05
3.53558e-07
7.21019e-05
3.38675e-07
7.21187e-05
3.23861e-07
7.21355e-05
3.09091e-07
7.21523e-05
2.94293e-07
2.79475e-07
7.21693e-05
7.34237e-05
1.00988e-07
7.34611e-05
2.66879e-07
7.34997e-05
3.72238e-07
7.35369e-05
4.40545e-07
7.35736e-05
4.90381e-07
7.36091e-05
5.2488e-07
7.36428e-05
5.46273e-07
7.36749e-05
5.58489e-07
7.37056e-05
5.64251e-07
7.3735e-05
5.64984e-07
7.37633e-05
5.61739e-07
7.37904e-05
5.55437e-07
7.38165e-05
5.46801e-07
7.38417e-05
5.36377e-07
7.3866e-05
5.24586e-07
7.38895e-05
5.11768e-07
7.39123e-05
4.9819e-07
7.39345e-05
4.84063e-07
7.3956e-05
4.69553e-07
7.3977e-05
4.54788e-07
7.39975e-05
4.39868e-07
7.40175e-05
4.24869e-07
7.40371e-05
4.09849e-07
7.40563e-05
3.94849e-07
7.40752e-05
3.79895e-07
7.40938e-05
3.65004e-07
7.41122e-05
3.50182e-07
7.41303e-05
3.35426e-07
7.41482e-05
3.20723e-07
7.41661e-05
3.06052e-07
7.41838e-05
2.91382e-07
7.42014e-05
2.76655e-07
2.61863e-07
7.4219e-05
7.55168e-05
8.66839e-08
7.55485e-05
2.35119e-07
7.55839e-05
3.36838e-07
7.56193e-05
4.05165e-07
7.56547e-05
4.5495e-07
7.56895e-05
4.90131e-07
7.5723e-05
5.12803e-07
7.57551e-05
5.2632e-07
7.57861e-05
5.33271e-07
7.5816e-05
5.35129e-07
7.58447e-05
5.32957e-07
7.58725e-05
5.27661e-07
7.58994e-05
5.19964e-07
7.59253e-05
5.10412e-07
7.59505e-05
4.99431e-07
7.59749e-05
4.87363e-07
7.59986e-05
4.74478e-07
7.60217e-05
4.60991e-07
7.60442e-05
4.47069e-07
7.60661e-05
4.32845e-07
7.60875e-05
4.18423e-07
7.61085e-05
4.03879e-07
7.61291e-05
3.89275e-07
7.61493e-05
3.74652e-07
7.61692e-05
3.60041e-07
7.61887e-05
3.4546e-07
7.6208e-05
3.30915e-07
7.6227e-05
3.16405e-07
7.62458e-05
3.0192e-07
7.62644e-05
2.87437e-07
7.62829e-05
2.72929e-07
7.63012e-05
2.58331e-07
2.43625e-07
7.63194e-05
7.76709e-05
7.53135e-08
7.76981e-05
2.08015e-07
7.77304e-05
3.0452e-07
7.77639e-05
3.71676e-07
7.7798e-05
4.20803e-07
7.78321e-05
4.56085e-07
7.78653e-05
4.79554e-07
7.78976e-05
4.94054e-07
7.79289e-05
5.01984e-07
7.79592e-05
5.04819e-07
7.79885e-05
5.03611e-07
7.80169e-05
4.99245e-07
7.80445e-05
4.92431e-07
7.80712e-05
4.83714e-07
7.80971e-05
4.7352e-07
7.81222e-05
4.6219e-07
7.81467e-05
4.49995e-07
7.81706e-05
4.37152e-07
7.81938e-05
4.23829e-07
7.82165e-05
4.10161e-07
7.82387e-05
3.96253e-07
7.82604e-05
3.82185e-07
7.82816e-05
3.6802e-07
7.83025e-05
3.53801e-07
7.83229e-05
3.39562e-07
7.83431e-05
3.25321e-07
7.83629e-05
3.11088e-07
7.83824e-05
2.96866e-07
7.84017e-05
2.82645e-07
7.84207e-05
2.68408e-07
7.84395e-05
2.54135e-07
7.84581e-05
2.39785e-07
2.25367e-07
7.84763e-05
7.98876e-05
6.60391e-08
7.99109e-05
1.84697e-07
7.99404e-05
2.7507e-07
7.99719e-05
3.40094e-07
8.00047e-05
3.88063e-07
8.00378e-05
4.22992e-07
8.00705e-05
4.46855e-07
8.01025e-05
4.62055e-07
8.01337e-05
4.70762e-07
8.01641e-05
4.74418e-07
8.01937e-05
4.74053e-07
8.02224e-05
4.70524e-07
8.02503e-05
4.64521e-07
8.02774e-05
4.56584e-07
8.03038e-05
4.47134e-07
8.03295e-05
4.36508e-07
8.03545e-05
4.24979e-07
8.03789e-05
4.1276e-07
8.04027e-05
4.00023e-07
8.0426e-05
3.86904e-07
8.04487e-05
3.73507e-07
8.0471e-05
3.59917e-07
8.04928e-05
3.46196e-07
8.05142e-05
3.32393e-07
8.05352e-05
3.1854e-07
8.05559e-05
3.0466e-07
8.05762e-05
2.90767e-07
8.05962e-05
2.76863e-07
8.06159e-05
2.62947e-07
8.06353e-05
2.49005e-07
8.06544e-05
2.35023e-07
8.06732e-05
2.20961e-07
2.06824e-07
8.06918e-05
8.21682e-05
5.82878e-08
8.21885e-05
1.64437e-07
8.22153e-05
2.48232e-07
8.2245e-05
3.10375e-07
8.22763e-05
3.56735e-07
8.23084e-05
3.90902e-07
8.23405e-05
4.1476e-07
8.23722e-05
4.30354e-07
8.24034e-05
4.39615e-07
8.24339e-05
4.43919e-07
8.24637e-05
4.44264e-07
8.24927e-05
4.41469e-07
8.2521e-05
4.36202e-07
8.25486e-05
4.28987e-07
8.25755e-05
4.20238e-07
8.26017e-05
4.10289e-07
8.26273e-05
3.99406e-07
8.26523e-05
3.87803e-07
8.26767e-05
3.75651e-07
8.27005e-05
3.63084e-07
8.27238e-05
3.5021e-07
8.27466e-05
3.37113e-07
8.27689e-05
3.23858e-07
8.27908e-05
3.10494e-07
8.28123e-05
2.97057e-07
8.28334e-05
2.83573e-07
8.28541e-05
2.70057e-07
8.28744e-05
2.56517e-07
8.28944e-05
2.42956e-07
8.29141e-05
2.29368e-07
8.29333e-05
2.15747e-07
8.29522e-05
2.02078e-07
1.88392e-07
8.29707e-05
8.45144e-05
5.16651e-08
8.45322e-05
1.4664e-07
8.45567e-05
2.2372e-07
8.45846e-05
2.8243e-07
8.46146e-05
3.26788e-07
8.46457e-05
3.59845e-07
8.46771e-05
3.83357e-07
8.47083e-05
3.99074e-07
8.47393e-05
4.08687e-07
8.47697e-05
4.13484e-07
8.47995e-05
4.14418e-07
8.48287e-05
4.12263e-07
8.48573e-05
4.07658e-07
8.48852e-05
4.01109e-07
8.49124e-05
3.9302e-07
8.4939e-05
3.83715e-07
8.49649e-05
3.73457e-07
8.49903e-05
3.62455e-07
8.5015e-05
3.50879e-07
8.50393e-05
3.38863e-07
8.50629e-05
3.26515e-07
8.50861e-05
3.13918e-07
8.51089e-05
3.0114e-07
8.51311e-05
2.88231e-07
8.5153e-05
2.7523e-07
8.51744e-05
2.62166e-07
8.51954e-05
2.49056e-07
8.5216e-05
2.35915e-07
8.52362e-05
2.22748e-07
8.5256e-05
2.09557e-07
8.52754e-05
1.96343e-07
8.52944e-05
1.83091e-07
1.69828e-07
8.53129e-05
8.69279e-05
4.5896e-08
8.69437e-05
1.3083e-07
8.69662e-05
2.01254e-07
8.69925e-05
2.56144e-07
8.70211e-05
2.98168e-07
8.70511e-05
3.29816e-07
8.70818e-05
3.52678e-07
8.71126e-05
3.68255e-07
8.71433e-05
3.78017e-07
8.71737e-05
3.83143e-07
8.72035e-05
3.84532e-07
8.72329e-05
3.82912e-07
8.72617e-05
3.78886e-07
8.72898e-05
3.72939e-07
8.73174e-05
3.6546e-07
8.73443e-05
3.56764e-07
8.73707e-05
3.47105e-07
8.73965e-05
3.36688e-07
8.74217e-05
3.2568e-07
8.74463e-05
3.14213e-07
8.74704e-05
3.02395e-07
8.7494e-05
2.90309e-07
8.75172e-05
2.78023e-07
8.75398e-05
2.65591e-07
8.7562e-05
2.53052e-07
8.75837e-05
2.40437e-07
8.7605e-05
2.2777e-07
8.76258e-05
2.15066e-07
8.76463e-05
2.02338e-07
8.76662e-05
1.89593e-07
8.76857e-05
1.76841e-07
8.77047e-05
1.64085e-07
1.51368e-07
8.77232e-05
8.94106e-05
4.07847e-08
8.94249e-05
1.16627e-07
8.94455e-05
1.80565e-07
8.94703e-05
2.31384e-07
8.94977e-05
2.70802e-07
8.95267e-05
3.00783e-07
8.95566e-05
3.22729e-07
8.9587e-05
3.37928e-07
8.96173e-05
3.47648e-07
8.96475e-05
3.52952e-07
8.96774e-05
3.54674e-07
8.97068e-05
3.53492e-07
8.97357e-05
3.4997e-07
8.97641e-05
3.44568e-07
8.97919e-05
3.37656e-07
8.98191e-05
3.29537e-07
8.98458e-05
3.20455e-07
8.98719e-05
3.10611e-07
8.98974e-05
3.00165e-07
8.99223e-05
2.89247e-07
8.99468e-05
2.77964e-07
8.99707e-05
2.664e-07
8.99941e-05
2.54622e-07
9.0017e-05
2.42685e-07
9.00394e-05
2.30631e-07
9.00614e-05
2.18493e-07
9.00828e-05
2.06298e-07
9.01038e-05
1.94065e-07
9.01243e-05
1.81812e-07
9.01444e-05
1.69552e-07
9.01639e-05
1.57297e-07
9.0183e-05
1.45052e-07
1.32857e-07
9.02015e-05
9.19645e-05
3.6189e-08
9.19774e-05
1.03728e-07
9.19965e-05
1.61407e-07
9.20199e-05
2.0801e-07
9.20461e-05
2.44603e-07
9.20742e-05
2.727e-07
9.21034e-05
2.93498e-07
9.21332e-05
3.08103e-07
9.21633e-05
3.176e-07
9.21933e-05
3.22934e-07
9.22231e-05
3.24866e-07
9.22526e-05
3.24023e-07
9.22816e-05
3.20925e-07
9.23102e-05
3.16005e-07
9.23382e-05
3.09612e-07
9.23657e-05
3.02034e-07
9.23927e-05
2.93503e-07
9.24191e-05
2.84213e-07
9.24449e-05
2.74319e-07
9.24702e-05
2.63949e-07
9.2495e-05
2.53204e-07
9.25192e-05
2.4217e-07
9.25429e-05
2.30914e-07
9.25661e-05
2.1949e-07
9.25888e-05
2.07944e-07
9.2611e-05
1.96309e-07
9.26327e-05
1.84616e-07
9.26538e-05
1.72887e-07
9.26745e-05
1.61145e-07
9.26947e-05
1.49405e-07
9.27143e-05
1.37688e-07
9.27333e-05
1.26008e-07
1.14412e-07
9.27518e-05
9.45913e-05
3.20024e-08
9.46032e-05
9.18924e-08
9.4621e-05
1.43557e-07
9.46432e-05
1.85873e-07
9.46683e-05
2.19476e-07
9.46955e-05
2.45503e-07
9.4724e-05
2.64956e-07
9.47534e-05
2.78772e-07
9.47831e-05
2.87879e-07
9.48129e-05
2.93103e-07
9.48426e-05
2.9513e-07
9.48721e-05
2.94531e-07
9.49013e-05
2.91784e-07
9.493e-05
2.87287e-07
9.49582e-05
2.8137e-07
9.4986e-05
2.74299e-07
9.50132e-05
2.66299e-07
9.50398e-05
2.57551e-07
9.5066e-05
2.48204e-07
9.50915e-05
2.38381e-07
9.51166e-05
2.28182e-07
9.5141e-05
2.1769e-07
9.5165e-05
2.06971e-07
9.51884e-05
1.96081e-07
9.52113e-05
1.85065e-07
9.52336e-05
1.7396e-07
9.52554e-05
1.62798e-07
9.52767e-05
1.51604e-07
9.52975e-05
1.40403e-07
9.53176e-05
1.29216e-07
9.53373e-05
1.18064e-07
9.53563e-05
1.06962e-07
9.59539e-08
9.53748e-05
9.72934e-05
2.81437e-08
9.73043e-05
8.09236e-08
9.73211e-05
1.26816e-07
9.73421e-05
1.64829e-07
9.73663e-05
1.95317e-07
9.73927e-05
2.1912e-07
9.74206e-05
2.37057e-07
9.74494e-05
2.49915e-07
9.74788e-05
2.58478e-07
9.75085e-05
2.63461e-07
9.75381e-05
2.65473e-07
9.75676e-05
2.65027e-07
9.75969e-05
2.62557e-07
9.76257e-05
2.58427e-07
9.76542e-05
2.52939e-07
9.76821e-05
2.46344e-07
9.77096e-05
2.38849e-07
9.77365e-05
2.30627e-07
9.77629e-05
2.21819e-07
9.77887e-05
2.12542e-07
9.7814e-05
2.02893e-07
9.78387e-05
1.92952e-07
9.78629e-05
1.82784e-07
9.78866e-05
1.72445e-07
9.79096e-05
1.6198e-07
9.79322e-05
1.51428e-07
9.79541e-05
1.40821e-07
9.79756e-05
1.30189e-07
9.79964e-05
1.19558e-07
9.80167e-05
1.0895e-07
9.80363e-05
9.83919e-08
9.80554e-05
8.79013e-08
7.75263e-08
9.80738e-05
0.000100073
2.45483e-08
0.000100083
7.06607e-08
0.000100099
1.11005e-07
0.000100119
1.44731e-07
0.000100142
1.72017e-07
0.000100168
1.9347e-07
0.000100195
2.09745e-07
0.000100224
2.21494e-07
0.000100253
2.29375e-07
0.000100282
2.33997e-07
0.000100312
2.35892e-07
0.000100341
2.35515e-07
0.00010037
2.33253e-07
0.000100399
2.29434e-07
0.000100428
2.24335e-07
0.000100456
2.18184e-07
0.000100484
2.11175e-07
0.000100511
2.03467e-07
0.000100538
1.95193e-07
0.000100564
1.86463e-07
0.000100589
1.77371e-07
0.000100614
1.67991e-07
0.000100639
1.5839e-07
0.000100662
1.48621e-07
0.000100686
1.38729e-07
0.000100708
1.28753e-07
0.000100731
1.18728e-07
0.000100752
1.08684e-07
0.000100773
9.86479e-08
0.000100793
8.86451e-08
0.000100813
7.87015e-08
0.000100832
6.88355e-08
5.90916e-08
0.00010085
0.000102931
2.11638e-08
0.000102941
6.09685e-08
0.000102956
9.59639e-08
0.000102975
1.25438e-07
0.000102998
1.49459e-07
0.000103023
1.68459e-07
0.00010305
1.8295e-07
0.000103078
1.93462e-07
0.000103107
2.00538e-07
0.000103136
2.0469e-07
0.000103166
2.06375e-07
0.000103195
2.05987e-07
0.000103224
2.03869e-07
0.000103254
2.00311e-07
0.000103282
1.95561e-07
0.000103311
1.89827e-07
0.000103339
1.83283e-07
0.000103366
1.76076e-07
0.000103393
1.68331e-07
0.000103419
1.60149e-07
0.000103445
1.51618e-07
0.00010347
1.42811e-07
0.000103495
1.3379e-07
0.000103519
1.24606e-07
0.000103542
1.15306e-07
0.000103565
1.05928e-07
0.000103587
9.65066e-08
0.000103609
8.70722e-08
0.00010363
7.76534e-08
0.00010365
6.82763e-08
0.00010367
5.89675e-08
0.000103689
4.9747e-08
4.06585e-08
0.000103707
0.000105872
1.79456e-08
0.000105881
5.17297e-08
0.000105896
8.15457e-08
0.000105914
1.06809e-07
0.000105936
1.27523e-07
0.000105961
1.43988e-07
0.000105987
1.56591e-07
0.000106015
1.65756e-07
0.000106043
1.7192e-07
0.000106073
1.75506e-07
0.000106102
1.76896e-07
0.000106132
1.76428e-07
0.000106161
1.74396e-07
0.00010619
1.71053e-07
0.000106219
1.66617e-07
0.000106248
1.61272e-07
0.000106276
1.55177e-07
0.000106303
1.48462e-07
0.000106331
1.41242e-07
0.000106357
1.3361e-07
0.000106383
1.25648e-07
0.000106408
1.17425e-07
0.000106433
1.08998e-07
0.000106457
1.00418e-07
0.000106481
9.17291e-08
0.000106504
8.29692e-08
0.000106526
7.41726e-08
0.000106548
6.53698e-08
0.000106569
5.65895e-08
0.00010659
4.78576e-08
0.000106609
3.92005e-08
0.000106628
3.06376e-08
2.22101e-08
0.000106647
0.000108896
1.48546e-08
0.000108905
4.28393e-08
0.000108919
6.76125e-08
0.000108937
8.87038e-08
0.000108959
1.06082e-07
0.000108983
1.19945e-07
0.000109009
1.30576e-07
0.000109036
1.38301e-07
0.000109065
1.43462e-07
0.000109094
1.46399e-07
0.000109123
1.47422e-07
0.000109153
1.46812e-07
0.000109183
1.44814e-07
0.000109212
1.41646e-07
0.000109241
1.37494e-07
0.00010927
1.32518e-07
0.000109298
1.26856e-07
0.000109326
1.20626e-07
0.000109353
1.13929e-07
0.00010938
1.06851e-07
0.000109406
9.94655e-08
0.000109432
9.18363e-08
0.000109457
8.40177e-08
0.000109481
7.60578e-08
0.000109505
6.79979e-08
0.000109528
5.98753e-08
0.000109551
5.17231e-08
0.000109572
4.35713e-08
0.000109593
3.54477e-08
0.000109614
2.73781e-08
0.000109634
1.93878e-08
0.000109653
1.14956e-08
3.74029e-09
0.000109671
0.000112007
1.18539e-08
0.000112016
3.41991e-08
0.00011203
5.40311e-08
0.000112047
7.09812e-08
0.000112069
8.49999e-08
0.000112092
9.62081e-08
0.000112118
1.04799e-07
0.000112145
1.11007e-07
0.000112174
1.15092e-07
0.000112203
1.1731e-07
0.000112232
1.17905e-07
0.000112262
1.17101e-07
0.000112292
1.15097e-07
0.000112321
1.1207e-07
0.000112351
1.08176e-07
0.00011238
1.03551e-07
0.000112408
9.83129e-08
0.000112436
9.25629e-08
0.000112464
8.63898e-08
0.000112491
7.987e-08
0.000112517
7.30696e-08
0.000112543
6.60463e-08
0.000112568
5.88505e-08
0.000112593
5.15263e-08
0.000112616
4.41131e-08
0.00011264
3.66459e-08
0.000112662
2.91564e-08
0.000112684
2.16735e-08
0.000112705
1.42239e-08
0.000112726
6.83231e-09
0.000112746
-4.76868e-10
0.000112765
-7.68512e-09
-1.4756e-08
0.000112783
0.000115207
8.9075e-09
0.000115216
2.57144e-08
0.000115229
4.06703e-08
0.000115247
5.34965e-08
0.000115268
6.41355e-08
0.000115291
7.26459e-08
0.000115317
7.91414e-08
0.000115344
8.37746e-08
0.000115372
8.67223e-08
0.000115402
8.81677e-08
0.000115431
8.82881e-08
0.000115461
8.72501e-08
0.000115491
8.52067e-08
0.000115521
8.22965e-08
0.00011555
7.86437e-08
0.000115579
7.43582e-08
0.000115608
6.95373e-08
0.000115637
6.42667e-08
0.000115664
5.86214e-08
0.000115691
5.26675e-08
0.000115718
4.6463e-08
0.000115744
4.00593e-08
0.000115769
3.35015e-08
0.000115794
2.68302e-08
0.000115818
2.00815e-08
0.000115842
1.3288e-08
0.000115864
6.47944e-09
0.000115886
-3.17057e-10
0.000115907
-7.07627e-09
0.000115928
-1.37752e-08
0.000115948
-2.03912e-08
0.000115967
-2.69086e-08
-3.32943e-08
0.000115986
0.000118499
5.97625e-09
0.000118507
1.72891e-08
0.00011852
2.73956e-08
0.000118538
3.60975e-08
0.000118559
4.33353e-08
0.000118582
4.91136e-08
0.000118608
5.34725e-08
0.000118635
5.64867e-08
0.000118664
5.82557e-08
0.000118693
5.88897e-08
0.000118723
5.85015e-08
0.000118753
5.7202e-08
0.000118783
5.50974e-08
0.000118813
5.22876e-08
0.000118843
4.88648e-08
0.000118872
4.49128e-08
0.000118901
4.0508e-08
0.00011893
3.57189e-08
0.000118958
3.06071e-08
0.000118985
2.52278e-08
0.000119012
1.96304e-08
0.000119038
1.38594e-08
0.000119064
7.95449e-09
0.000119089
1.95186e-09
0.000119113
-4.11595e-09
0.000119136
-1.02191e-08
0.000119159
-1.63304e-08
0.000119181
-2.24246e-08
0.000119203
-2.84783e-08
0.000119223
-3.44699e-08
0.000119243
-4.0378e-08
0.000119263
-4.61862e-08
-5.18629e-08
0.000119281
0.000121884
3.02891e-09
0.000121893
8.83356e-09
0.000121906
1.40729e-08
0.000121923
1.86273e-08
0.000121944
2.24366e-08
0.000121968
2.54536e-08
0.000121994
2.76465e-08
0.000122021
2.90135e-08
0.00012205
2.9578e-08
0.00012208
2.93787e-08
0.00012211
2.84641e-08
0.00012214
2.68897e-08
0.00012217
2.47151e-08
0.000122201
2.20012e-08
0.000122231
1.88078e-08
0.00012226
1.51926e-08
0.00012229
1.12103e-08
0.000122318
6.91223e-09
0.000122347
2.346e-09
0.000122374
-2.44456e-09
0.000122401
-7.41893e-09
0.000122428
-1.25401e-08
0.000122454
-1.77739e-08
0.000122479
-2.30893e-08
0.000122503
-2.84574e-08
0.000122527
-3.38517e-08
0.000122549
-3.92476e-08
0.000122572
-4.46226e-08
0.000122593
-4.99554e-08
0.000122614
-5.52269e-08
0.000122634
-6.04187e-08
0.000122653
-6.55189e-08
-7.0501e-08
0.000122672
0.000125366
5.04332e-11
0.000125375
2.62171e-10
0.000125389
5.63227e-10
0.000125406
9.16969e-10
0.000125427
1.26076e-09
0.000125451
1.49064e-09
0.000125478
1.49944e-09
0.000125505
1.20675e-09
0.000125534
5.58815e-10
0.000125564
-4.78508e-10
0.000125595
-1.92178e-09
0.000125625
-3.77116e-09
0.000125656
-6.0138e-09
0.000125687
-8.62798e-09
0.000125717
-1.15861e-08
0.000125747
-1.48567e-08
0.000125777
-1.84069e-08
0.000125806
-2.22026e-08
0.000125834
-2.62105e-08
0.000125862
-3.03981e-08
0.00012589
-3.47341e-08
0.000125916
-3.91891e-08
0.000125942
-4.37352e-08
0.000125967
-4.83461e-08
0.000125992
-5.29974e-08
0.000126016
-5.76659e-08
0.000126039
-6.23302e-08
0.000126061
-6.697e-08
0.000126083
-7.15663e-08
0.000126104
-7.61013e-08
0.000126124
-8.05571e-08
0.000126143
-8.49187e-08
-8.91598e-08
0.000126162
0.000128948
-3.00506e-09
0.000128957
-8.55e-09
0.000128971
-1.3317e-08
0.000128989
-1.7247e-08
0.000129011
-2.04123e-08
0.000129035
-2.29878e-08
0.000129062
-2.51657e-08
0.00012909
-2.711e-08
0.00012912
-2.89553e-08
0.00012915
-3.08115e-08
0.000129181
-3.27622e-08
0.000129212
-3.48642e-08
0.000129243
-3.71522e-08
0.000129274
-3.96438e-08
0.000129305
-4.23438e-08
0.000129335
-4.52474e-08
0.000129365
-4.83429e-08
0.000129395
-5.16138e-08
0.000129423
-5.50409e-08
0.000129452
-5.86032e-08
0.000129479
-6.22788e-08
0.000129506
-6.60459e-08
0.000129532
-6.98828e-08
0.000129558
-7.37685e-08
0.000129582
-7.76828e-08
0.000129606
-8.16064e-08
0.000129629
-8.55209e-08
0.000129652
-8.94091e-08
0.000129674
-9.32548e-08
0.000129694
-9.70438e-08
0.000129715
-1.00762e-07
0.000129734
-1.04404e-07
-1.07948e-07
0.000129753
0.000132632
-6.20304e-09
0.000132641
-1.77728e-08
0.000132656
-2.78085e-08
0.000132675
-3.61361e-08
0.000132697
-4.28558e-08
0.000132723
-4.82407e-08
0.00013275
-5.25867e-08
0.000132779
-5.61509e-08
0.000132809
-5.91554e-08
0.00013284
-6.17916e-08
0.000132872
-6.42127e-08
0.000132903
-6.6533e-08
0.000132935
-6.88344e-08
0.000132967
-7.11737e-08
0.000132998
-7.35877e-08
0.000133029
-7.60976e-08
0.000133059
-7.87129e-08
0.000133089
-8.14343e-08
0.000133118
-8.42565e-08
0.000133147
-8.71699e-08
0.000133174
-9.01619e-08
0.000133202
-9.32184e-08
0.000133228
-9.63241e-08
0.000133254
-9.94631e-08
0.000133279
-1.0262e-07
0.000133303
-1.05778e-07
0.000133326
-1.08924e-07
0.000133349
-1.12041e-07
0.000133371
-1.15116e-07
0.000133392
-1.18136e-07
0.000133412
-1.21085e-07
0.000133432
-1.2395e-07
-1.26709e-07
0.000133451
0.000136422
-9.62449e-09
0.000136432
-2.7629e-08
0.000136447
-4.32228e-08
0.000136467
-5.60946e-08
0.00013649
-6.64086e-08
0.000136517
-7.45837e-08
0.000136545
-8.10443e-08
0.000136575
-8.61525e-08
0.000136606
-9.02302e-08
0.000136638
-9.356e-08
0.00013667
-9.63705e-08
0.000136703
-9.88355e-08
0.000136735
-1.01085e-07
0.000136767
-1.03213e-07
0.000136799
-1.0529e-07
0.00013683
-1.07361e-07
0.000136861
-1.09456e-07
0.000136891
-1.11591e-07
0.00013692
-1.13776e-07
0.000136949
-1.1601e-07
0.000136977
-1.1829e-07
0.000137005
-1.2061e-07
0.000137031
-1.2296e-07
0.000137057
-1.25329e-07
0.000137082
-1.27706e-07
0.000137107
-1.3008e-07
0.00013713
-1.32438e-07
0.000137153
-1.34769e-07
0.000137175
-1.37062e-07
0.000137196
-1.39309e-07
0.000137216
-1.41501e-07
0.000137236
-1.43636e-07
-1.457e-07
0.000137255
0.00014032
-1.33813e-08
0.00014033
-3.84281e-08
0.000140347
-5.99795e-08
0.000140369
-7.75637e-08
0.000140394
-9.14913e-08
0.000140421
-1.0241e-07
0.000140451
-1.10908e-07
0.000140483
-1.17463e-07
0.000140515
-1.2251e-07
0.000140548
-1.26433e-07
0.000140581
-1.29538e-07
0.000140614
-1.32061e-07
0.000140647
-1.34179e-07
0.00014068
-1.36025e-07
0.000140712
-1.377e-07
0.000140744
-1.39274e-07
0.000140776
-1.40795e-07
0.000140806
-1.42297e-07
0.000140836
-1.438e-07
0.000140866
-1.45314e-07
0.000140894
-1.46846e-07
0.000140922
-1.48394e-07
0.000140949
-1.49955e-07
0.000140975
-1.51524e-07
0.000141001
-1.53094e-07
0.000141025
-1.54655e-07
0.000141049
-1.56199e-07
0.000141072
-1.57717e-07
0.000141094
-1.592e-07
0.000141115
-1.60636e-07
0.000141136
-1.62015e-07
0.000141156
-1.63323e-07
-1.64545e-07
0.000141174
0.000144329
-1.76366e-08
0.000144341
-5.06212e-08
0.00014436
-7.86678e-08
0.000144383
-1.01127e-07
0.00014441
-1.18614e-07
0.00014444
-1.32132e-07
0.000144472
-1.42474e-07
0.000144505
-1.50264e-07
0.000144538
-1.56075e-07
0.000144572
-1.60411e-07
0.000144606
-1.63659e-07
0.00014464
-1.66111e-07
0.000144674
-1.67989e-07
0.000144707
-1.69463e-07
0.00014474
-1.7066e-07
0.000144773
-1.71672e-07
0.000144805
-1.72564e-07
0.000144836
-1.73384e-07
0.000144866
-1.74161e-07
0.000144896
-1.74918e-07
0.000144924
-1.75665e-07
0.000144952
-1.7641e-07
0.00014498
-1.77155e-07
0.000145006
-1.77897e-07
0.000145032
-1.78634e-07
0.000145056
-1.79361e-07
0.00014508
-1.80073e-07
0.000145103
-1.80763e-07
0.000145125
-1.81426e-07
0.000145147
-1.82058e-07
0.000145168
-1.82656e-07
0.000145187
-1.83225e-07
-1.83752e-07
0.000145207
0.000148453
-2.26469e-08
0.000148467
-6.48904e-08
0.000148489
-1.00114e-07
0.000148515
-1.27578e-07
0.000148545
-1.48546e-07
0.000148577
-1.64529e-07
0.000148612
-1.76521e-07
0.000148647
-1.85298e-07
0.000148682
-1.9162e-07
0.000148718
-1.96131e-07
0.000148753
-1.99305e-07
0.000148789
-2.01492e-07
0.000148824
-2.02962e-07
0.000148858
-2.03917e-07
0.000148892
-2.04511e-07
0.000148925
-2.04853e-07
0.000148958
-2.05023e-07
0.000148989
-2.05079e-07
0.00014902
-2.05061e-07
0.00014905
-2.04996e-07
0.00014908
-2.04903e-07
0.000149108
-2.04794e-07
0.000149136
-2.04674e-07
0.000149162
-2.04546e-07
0.000149188
-2.0441e-07
0.000149213
-2.04265e-07
0.000149237
-2.04106e-07
0.00014926
-2.0393e-07
0.000149282
-2.0373e-07
0.000149304
-2.03501e-07
0.000149324
-2.03232e-07
0.000149344
-2.02913e-07
-2.02533e-07
0.000149363
0.000152695
-2.88636e-08
0.000152713
-8.23936e-08
0.000152738
-1.25507e-07
0.000152768
-1.57706e-07
0.000152801
-1.81664e-07
0.000152837
-1.99666e-07
0.000152873
-2.12885e-07
0.00015291
-2.22268e-07
0.000152947
-2.28783e-07
0.000152984
-2.33213e-07
0.000153021
-2.36101e-07
0.000153057
-2.37846e-07
0.000153093
-2.38755e-07
0.000153128
-2.39064e-07
0.000153163
-2.38944e-07
0.000153196
-2.3852e-07
0.000153229
-2.37884e-07
0.000153261
-2.37102e-07
0.000153292
-2.36223e-07
0.000153323
-2.3528e-07
0.000153352
-2.34297e-07
0.000153381
-2.33289e-07
0.000153408
-2.32266e-07
0.000153435
-2.31234e-07
0.000153461
-2.30196e-07
0.000153486
-2.29152e-07
0.00015351
-2.28103e-07
0.000153533
-2.27046e-07
0.000153555
-2.2598e-07
0.000153576
-2.24907e-07
0.000153597
-2.23826e-07
0.000153617
-2.22746e-07
-2.21659e-07
0.000153636
0.00015706
-3.70373e-08
0.000157082
-1.05096e-07
0.000157114
-1.5706e-07
0.00015715
-1.93702e-07
0.000157188
-2.20154e-07
0.000157228
-2.39533e-07
0.000157269
-2.53184e-07
0.000157309
-2.62393e-07
0.000157348
-2.68444e-07
0.000157387
-2.72256e-07
0.000157426
-2.74419e-07
0.000157463
-2.75364e-07
0.0001575
-2.75427e-07
0.000157536
-2.74858e-07
0.000157571
-2.73838e-07
0.000157605
-2.72495e-07
0.000157638
-2.70925e-07
0.00015767
-2.69199e-07
0.000157701
-2.67368e-07
0.000157731
-2.65467e-07
0.00015776
-2.63524e-07
0.000157789
-2.61555e-07
0.000157816
-2.59573e-07
0.000157842
-2.57586e-07
0.000157868
-2.55598e-07
0.000157892
-2.53613e-07
0.000157916
-2.51631e-07
0.000157938
-2.49651e-07
0.00015796
-2.47671e-07
0.000157981
-2.45687e-07
0.000158
-2.43693e-07
0.000158019
-2.41679e-07
-2.39645e-07
0.000158037
0.00016155
-4.90113e-08
0.000161581
-1.35631e-07
0.000161619
-1.95197e-07
0.00016166
-2.34432e-07
0.000161702
-2.62613e-07
0.000161746
-2.82838e-07
0.000161789
-2.96262e-07
0.000161831
-3.04659e-07
0.000161872
-3.09709e-07
0.000161912
-3.12439e-07
0.000161951
-3.1347e-07
0.000161989
-3.13264e-07
0.000162026
-3.12184e-07
0.000162062
-3.10491e-07
0.000162096
-3.08366e-07
0.00016213
-3.05938e-07
0.000162162
-3.03302e-07
0.000162193
-3.00526e-07
0.000162224
-2.97659e-07
0.000162253
-2.94737e-07
0.000162281
-2.91785e-07
0.000162308
-2.8882e-07
0.000162335
-2.85854e-07
0.00016236
-2.82895e-07
0.000162384
-2.79949e-07
0.000162408
-2.77018e-07
0.00016243
-2.74105e-07
0.000162452
-2.7121e-07
0.000162473
-2.68333e-07
0.000162492
-2.65477e-07
0.000162511
-2.62645e-07
0.000162529
-2.59848e-07
-2.57083e-07
0.000162547
0.000166174
-6.96575e-08
0.000166223
-1.84583e-07
0.000166276
-2.47759e-07
0.000166326
-2.84597e-07
0.000166374
-3.11059e-07
0.000166421
-3.29286e-07
0.000166465
-3.40221e-07
0.000166506
-3.46215e-07
0.000166546
-3.49165e-07
0.000166583
-3.50032e-07
0.000166619
-3.49366e-07
0.000166654
-3.47604e-07
0.000166687
-3.45089e-07
0.000166718
-3.42058e-07
0.000166748
-3.38669e-07
0.000166777
-3.35037e-07
0.000166805
-3.31245e-07
0.000166832
-3.27354e-07
0.000166858
-3.23405e-07
0.000166883
-3.1943e-07
0.000166906
-3.1545e-07
0.000166929
-3.1148e-07