/*--------------------------------*- C++ -*----------------------------------*\
| =========                 |                                                 |
| \\      /  F ield         | OpenFOAM: The Open Source CFD Toolbox           |
|  \\    /   O peration     | Version:  4.1                                   |
|   \\  /    A nd           | Web:      www.OpenFOAM.org                      |
|    \\/     M anipulation  |                                                 |
\*---------------------------------------------------------------------------*/
FoamFile
{
    version     2.0;
    format      ascii;
    class       volScalarField;
    location    "200";
    object      epsilon;
}
// * * * * * * * * * * * * * * * * * * * * * * * * * * * * * * * * * * * * * //

dimensions      [0 2 -3 0 0 0 0];

internalField   nonuniform List<scalar> 
6820
(
115.949
152.042
190.662
230.214
269.214
306.365
340.625
371.269
397.9
420.4
438.865
453.547
464.79
472.987
478.547
481.863
483.305
483.204
481.854
479.511
476.391
472.678
468.522
464.049
459.36
454.536
449.638
444.712
439.789
434.889
430.006
425.225
422.458
9.48473
17.5527
23.8078
29.3422
34.5602
39.562
44.35
48.9003
53.1827
57.1704
60.8467
64.2065
67.2559
70.0093
72.4874
74.7148
76.7178
78.5231
80.1562
81.6415
83.001
84.2555
85.4234
86.5216
87.5653
88.5686
89.5451
90.5096
91.4778
92.4724
93.5153
94.6714
95.8937
4.14146
5.59604
6.98301
8.20868
9.27797
10.2175
11.0508
11.7955
12.4655
13.0719
13.6236
14.1281
14.5911
15.0177
15.4118
15.7769
16.116
16.4317
16.7262
17.0013
17.2606
17.5118
17.7572
17.9977
18.2341
18.4671
18.6976
18.9263
19.1545
19.3835
19.615
19.8531
20.094
3.60121
3.91797
4.3311
4.7579
5.16053
5.52676
5.85482
6.14676
6.4059
6.63583
6.83998
7.02149
7.18319
7.32756
7.45677
7.57266
7.67686
7.77074
7.85549
7.93211
8.00145
8.06514
8.12418
8.17933
8.23116
8.28012
8.32658
8.37081
8.41299
8.4532
8.49138
8.52715
8.5603
3.52798
3.56982
3.67477
3.81745
3.97489
4.13281
4.28384
4.42459
4.55378
4.67123
4.77738
4.87291
4.95865
5.03543
5.10408
5.16539
5.22007
5.26881
5.31219
5.35078
5.38505
5.41548
5.44253
5.46662
5.4881
5.50732
5.52455
5.54004
5.55402
5.56666
5.5781
5.58844
5.59772
3.5197
3.49572
3.49766
3.52374
3.56745
3.62175
3.681
3.74133
3.80033
3.8566
3.90932
3.95813
4.00289
4.04366
4.08058
4.11384
4.14366
4.1703
4.194
4.21499
4.2335
4.24974
4.26395
4.2763
4.287
4.29621
4.30411
4.31085
4.31658
4.32143
4.32557
4.32911
4.33223
3.51928
3.48173
3.4529
3.43487
3.42775
3.42982
3.4388
3.45248
3.46904
3.48706
3.50556
3.52382
3.54137
3.55791
3.57324
3.58727
3.59996
3.61131
3.62136
3.63015
3.63774
3.64424
3.64973
3.65427
3.65795
3.66083
3.66299
3.66451
3.66547
3.66594
3.66601
3.66576
3.66529
3.51938
3.47956
3.44297
3.41081
3.38393
3.36257
3.34634
3.33451
3.32623
3.32072
3.31725
3.31524
3.31422
3.31381
3.31375
3.31382
3.31385
3.31374
3.31342
3.31283
3.31194
3.31074
3.30923
3.30742
3.30532
3.30294
3.30032
3.29748
3.29444
3.29124
3.28792
3.2845
3.28105
3.51942
3.47931
3.44106
3.40504
3.37162
3.34118
3.31388
3.28963
3.26823
3.24937
3.23274
3.218
3.20484
3.19298
3.18219
3.17226
3.16303
3.15435
3.14612
3.13826
3.13068
3.12333
3.11617
3.10917
3.1023
3.09554
3.08888
3.08232
3.07585
3.06947
3.0632
3.05703
3.05099
3.51943
3.47931
3.44074
3.4038
3.36856
3.33518
3.30378
3.27441
3.24705
3.22165
3.19809
3.17624
3.15594
3.13705
3.11941
3.10289
3.08736
3.0727
3.05881
3.04561
3.03302
3.02098
3.00942
2.9983
2.98758
2.97723
2.96722
2.95752
2.94812
2.93899
2.93014
2.92155
2.91321
3.51944
3.47931
3.44068
3.40355
3.36787
3.33364
3.30091
3.26968
3.23995
3.2117
3.18491
3.15953
3.13548
3.1127
3.09111
3.07063
3.05118
3.03268
3.01506
2.99825
2.98219
2.96682
2.95209
2.93795
2.92436
2.91128
2.89869
2.88655
2.87483
2.86351
2.85258
2.84202
2.8318
3.51944
3.47931
3.44066
3.40348
3.3677
3.33326
3.30016
3.26835
3.23781
3.20852
3.18044
3.15355
3.12781
3.10318
3.0796
3.05705
3.03545
3.01478
2.99496
2.97597
2.95775
2.94025
2.92344
2.90728
2.89173
2.87676
2.86233
2.84842
2.835
2.82205
2.80955
2.79747
2.7858
3.51944
3.47931
3.44065
3.40345
3.36764
3.33315
3.29995
3.26798
3.23719
3.20754
3.17899
3.15152
3.12508
3.09964
3.07517
3.05162
3.02897
3.00717
2.98619
2.966
2.94655
2.92782
2.90978
2.89238
2.87561
2.85943
2.84382
2.82875
2.81419
2.80014
2.78656
2.77343
2.76073
3.51944
3.4793
3.44063
3.40343
3.36761
3.3331
3.29987
3.26785
3.23699
3.20723
3.17854
3.15087
3.12419
3.09845
3.07362
3.04967
3.02657
3.00427
2.98275
2.96198
2.94193
2.92257
2.90388
2.88582
2.86837
2.85151
2.83521
2.81946
2.80422
2.78948
2.77522
2.76142
2.74807
3.51944
3.4793
3.44063
3.40341
3.36758
3.33307
3.29982
3.26779
3.2369
3.20711
3.17837
3.15063
3.12386
3.09802
3.07306
3.04895
3.02565
3.00315
2.98139
2.96037
2.94004
2.92038
2.90137
2.88298
2.86518
2.84796
2.8313
2.81517
2.79955
2.78443
2.76978
2.75559
2.74185
3.51944
3.4793
3.44062
3.4034
3.36756
3.33304
3.29979
3.26774
3.23684
3.20703
3.17828
3.15052
3.12372
3.09784
3.07283
3.04867
3.02531
3.00272
2.98088
2.95976
2.93932
2.91954
2.90039
2.88186
2.86391
2.84653
2.82969
2.81338
2.79758
2.78226
2.76742
2.75302
2.73907
3.51944
3.4793
3.44061
3.40339
3.36755
3.33302
3.29976
3.2677
3.23679
3.20698
3.17821
3.15044
3.12363
3.09773
3.0727
3.04852
3.02513
3.00252
2.98064
2.95947
2.93898
2.91915
2.89995
2.88135
2.86333
2.84587
2.82896
2.81256
2.79667
2.78126
2.76631
2.75181
2.73775
3.51944
3.4793
3.44061
3.40338
3.36753
3.33301
3.29974
3.26767
3.23676
3.20694
3.17816
3.15038
3.12356
3.09765
3.07262
3.04842
3.02502
3.00239
2.9805
2.95931
2.93881
2.91896
2.89973
2.88111
2.86306
2.84557
2.82863
2.81219
2.79626
2.78081
2.76582
2.75128
2.73717
3.51944
3.47929
3.44061
3.40337
3.36752
3.33299
3.29972
3.26765
3.23673
3.2069
3.17812
3.15033
3.1235
3.09759
3.07254
3.04834
3.02493
3.00229
2.98039
2.9592
2.93868
2.91882
2.89958
2.88094
2.86288
2.84538
2.82841
2.81196
2.79601
2.78053
2.76552
2.75095
2.73681
3.51944
3.47929
3.44061
3.40337
3.36752
3.33298
3.2997
3.26763
3.2367
3.20687
3.17808
3.15029
3.12345
3.09753
3.07248
3.04827
3.02486
3.00221
2.9803
2.9591
2.93858
2.91871
2.89946
2.88081
2.86275
2.84524
2.82826
2.8118
2.79584
2.78035
2.76533
2.75075
2.7366
3.51944
3.47929
3.4406
3.40337
3.36751
3.33297
3.29969
3.26761
3.23668
3.20684
3.17805
3.15025
3.12341
3.09748
3.07243
3.04821
3.02479
3.00214
2.98023
2.95902
2.93849
2.91861
2.89936
2.88071
2.86263
2.84512
2.82813
2.81166
2.79569
2.7802
2.76517
2.75058
2.73641
3.51944
3.47929
3.4406
3.40336
3.36751
3.33296
3.29968
3.2676
3.23666
3.20682
3.17802
3.15022
3.12337
3.09744
3.07238
3.04816
3.02473
3.00208
2.98016
2.95895
2.93841
2.91853
2.89927
2.88061
2.86253
2.84501
2.82802
2.81155
2.79557
2.78007
2.76503
2.75043
2.73626
3.51944
3.47929
3.4406
3.40336
3.3675
3.33296
3.29967
3.26759
3.23665
3.2068
3.178
3.1502
3.12334
3.09741
3.07234
3.04811
3.02469
3.00203
2.9801
2.95889
2.93835
2.91846
2.8992
2.88053
2.86245
2.84492
2.82793
2.81145
2.79547
2.77996
2.76491
2.75031
2.73613
3.51944
3.47929
3.4406
3.40336
3.3675
3.33296
3.29967
3.26758
3.23664
3.20679
3.17798
3.15017
3.12332
3.09738
3.07231
3.04808
3.02465
3.00198
2.98005
2.95883
2.93829
2.9184
2.89913
2.88046
2.86237
2.84484
2.82784
2.81136
2.79537
2.77986
2.76481
2.7502
2.73602
3.51944
3.47929
3.4406
3.40336
3.3675
3.33295
3.29966
3.26757
3.23663
3.20678
3.17797
3.15016
3.1233
3.09736
3.07229
3.04805
3.02462
3.00195
2.98002
2.9588
2.93825
2.91835
2.89908
2.88042
2.86232
2.84479
2.82779
2.8113
2.79531
2.77979
2.76474
2.75013
2.73594
3.51944
3.47929
3.4406
3.40336
3.3675
3.33295
3.29966
3.26757
3.23663
3.20677
3.17796
3.15015
3.12329
3.09734
3.07227
3.04803
3.0246
3.00193
2.97999
2.95877
2.93822
2.91832
2.89904
2.88037
2.86227
2.84473
2.82773
2.81124
2.79524
2.77972
2.76466
2.75004
2.73585
3.51944
3.47929
3.4406
3.40336
3.3675
3.33295
3.29966
3.26757
3.23662
3.20677
3.17796
3.15014
3.12328
3.09734
3.07226
3.04803
3.02459
3.00192
2.97999
2.95876
2.93821
2.91831
2.89904
2.88036
2.86227
2.84473
2.82772
2.81123
2.79523
2.77971
2.76465
2.75003
2.73584
3.51944
3.47929
3.4406
3.40336
3.3675
3.33295
3.29966
3.26757
3.23662
3.20677
3.17796
3.15014
3.12328
3.09733
3.07226
3.04802
3.02458
3.00191
2.97997
2.95874
2.93819
2.91829
2.89901
2.88033
2.86223
2.84469
2.82768
2.81118
2.79518
2.77965
2.76459
2.74997
2.73577
3.51944
3.47929
3.4406
3.40336
3.3675
3.33295
3.29966
3.26757
3.23663
3.20677
3.17797
3.15016
3.1233
3.09735
3.07228
3.04805
3.02461
3.00195
2.98001
2.95879
2.93824
2.91834
2.89907
2.8804
2.8623
2.84476
2.82775
2.81126
2.79526
2.77974
2.76468
2.75006
2.73586
3.51944
3.47929
3.4406
3.40336
3.3675
3.33295
3.29967
3.26758
3.23663
3.20678
3.17797
3.15016
3.1233
3.09735
3.07227
3.04803
3.0246
3.00192
2.97999
2.95876
2.93821
2.91831
2.89903
2.88035
2.86226
2.84471
2.82771
2.81121
2.79521
2.77969
2.76463
2.75001
2.73582
3.51944
3.47929
3.4406
3.40336
3.3675
3.33296
3.29968
3.26759
3.23666
3.20681
3.17801
3.15021
3.12337
3.09744
3.07238
3.04815
3.02473
3.00207
2.98015
2.95894
2.9384
2.91852
2.89926
2.8806
2.86252
2.84499
2.828
2.81152
2.79554
2.78004
2.76499
2.75039
2.73621
3.51944
3.47929
3.4406
3.40336
3.36751
3.33297
3.29968
3.2676
3.23665
3.2068
3.178
3.15019
3.12335
3.09741
3.07235
3.04813
3.02472
3.00208
2.98017
2.95898
2.93846
2.91861
2.89938
2.88075
2.86271
2.84522
2.82827
2.81184
2.79591
2.78045
2.76546
2.75092
2.7368
3.51944
3.47929
3.4406
3.40337
3.36753
3.333
3.29975
3.2677
3.23681
3.20702
3.17828
3.15055
3.12378
3.09792
3.07295
3.04883
3.02551
3.00297
2.98118
2.96011
2.93972
2.92
2.90091
2.88243
2.86453
2.84721
2.83042
2.81416
2.7984
2.78312
2.7683
2.75394
2.74
3.51944
3.47929
3.44061
3.40338
3.36754
3.33305
3.29985
3.26787
3.23707
3.2074
3.1788
3.15124
3.12468
3.09906
3.07436
3.05054
3.02756
3.00539
2.98399
2.96333
2.94339
2.92413
2.90552
2.88753
2.87015
2.85334
2.83709
2.82136
2.80614
2.79141
2.77715
2.76333
2.74995
3.51943
3.4793
3.44066
3.40356
3.36793
3.33373
3.30092
3.26945
3.23927
3.21033
3.1826
3.15602
3.13054
3.10612
3.0827
3.06024
3.03868
3.01799
2.99811
2.97901
2.96065
2.94298
2.92596
2.90958
2.89379
2.87856
2.86386
2.84967
2.83597
2.82273
2.80992
2.79753
2.78554
3.51942
3.47942
3.4412
3.4049
3.3706
3.33828
3.30787
3.2793
3.2525
3.22734
3.20372
3.18152
3.16062
3.14091
3.1223
3.10468
3.08798
3.0721
3.05699
3.04257
3.02879
3.01559
3.00294
2.99078
2.97909
2.96783
2.95697
2.94648
2.93634
2.92653
2.91702
2.90781
2.89887
3.5196
3.48202
3.44939
3.42176
3.39874
3.3798
3.36438
3.35187
3.34172
3.33348
3.32673
3.32117
3.31653
3.31258
3.30915
3.3061
3.30332
3.30072
3.29824
3.29581
3.29341
3.291
3.28856
3.28606
3.28351
3.28089
3.27819
3.27542
3.27258
3.26966
3.26667
3.26361
3.26049
3.53048
3.53941
3.57106
3.61691
3.67046
3.72745
3.78524
3.84228
3.89767
3.95081
4.00139
4.04925
4.09435
4.13672
4.17646
4.21366
4.24847
4.28101
4.31143
4.33984
4.36639
4.3912
4.41438
4.43605
4.4563
4.47524
4.49295
4.50952
4.52502
4.53954
4.55313
4.56587
4.57784
4.00123
4.78113
5.43773
6.00259
6.50118
6.94885
7.35584
7.72965
8.07592
8.39896
8.70211
8.98806
9.25894
9.51653
9.76226
9.99732
10.2227
10.4394
10.6479
10.8491
11.0433
11.2312
11.413
11.5893
11.7604
11.9264
12.0879
12.2449
12.3977
12.5466
12.6918
12.8333
12.9718
31.176
33.6247
36.0474
38.4444
40.8146
43.156
45.4657
47.7404
49.9768
52.1717
54.3222
56.4259
58.4804
60.4839
62.4346
64.3315
66.1735
67.96
69.6906
71.3653
72.984
74.5473
76.0555
77.5094
78.9097
80.2574
81.5535
82.7992
83.9956
85.144
86.2457
87.3025
88.3231
438.006
524.226
641.751
773.595
893.201
982.446
1033.72
1049.81
1038.97
1010.25
970.616
925.446
879.757
837.81
802.119
774.012
755.334
750.199
761.564
785.899
810.123
818.907
805.58
774.051
732.176
684.787
633.281
577.535
518.354
458.467
401.463
350.239
306.21
269.437
239.02
213.163
190.669
170.884
153.366
137.69
123.226
109.034
94.0815
77.835
60.8526
44.6864
30.9891
20.6708
13.8433
10.186
8.95561
9.18572
10.1581
11.4805
12.9505
14.4577
15.9365
17.3446
18.6527
19.8397
20.8918
21.803
22.578
23.232
23.7907
24.2873
24.7579
25.2325
25.7217
26.2067
26.6383
26.9837
27.276
27.6328
27.9989
28.3644
28.7548
29.1897
29.6509
30.1426
30.7439
31.3836
31.6541
30.9308
29.0861
26.3157
22.9133
19.339
16.0895
13.4221
11.3031
9.60398
8.2596
7.24329
6.49086
6.03802
5.81067
5.55533
5.22934
4.59669
98.8592
107.802
124.512
152.406
191.881
240.307
294.505
349.628
400.254
441.565
470.502
486.644
492.298
491.511
488.499
486.643
488.788
498.31
518.987
551.542
589.421
619.016
628.096
614.769
586.246
551.245
514.896
478.388
441.05
402.594
363.867
326.321
291.246
259.42
230.634
204.457
180.849
159.688
140.734
123.576
107.603
92.0865
76.4857
60.8586
45.9912
33.0093
22.7403
15.3699
10.6505
8.24017
7.59507
8.02151
9.00467
10.2587
11.6312
13.0364
14.4225
15.7563
17.0155
18.1837
19.2506
20.2118
21.0714
21.8421
22.5445
23.2049
23.8512
24.5058
25.1722
25.8223
26.3913
26.8064
27.0391
27.1628
27.348
27.5832
27.8544
28.1536
28.4815
28.9209
29.6289
30.4625
30.6248
29.5822
27.4117
24.4431
21.0574
17.696
14.7492
12.3708
10.4882
8.99282
7.8664
7.02632
6.37994
5.9587
5.77418
5.5603
5.26975
4.62498
20.4173
20.915
21.8445
23.7853
27.5311
33.8619
43.3517
56.1522
71.8376
89.5822
108.509
127.403
145.342
162.046
177.897
193.754
210.875
230.842
255.814
287.05
322.57
355.818
378.49
385.635
379.281
365.136
348.137
330.59
312.646
293.697
273.449
252.191
230.545
209.056
187.789
167.28
147.934
129.96
113.381
98.0338
83.5996
69.7475
56.3681
43.7502
32.5011
23.2236
16.1958
11.293
8.20751
6.6893
6.41064
6.9191
7.8568
9.01419
10.2737
11.5662
12.8492
14.0957
15.2881
16.4146
17.4675
18.4446
19.3495
20.1928
20.9911
21.7653
22.5388
23.3322
24.1517
24.9742
25.7365
26.3433
26.7088
26.8131
26.7615
26.8019
26.9533
27.1497
27.3596
27.7042
28.435
29.4222
29.4762
28.1911
25.7862
22.7092
19.4022
16.2717
13.6101
11.4922
9.82745
8.51925
7.53551
6.80302
6.24633
5.90721
5.74842
5.5606
5.31601
4.67687
8.59297
8.62028
8.64489
8.69645
8.84635
9.23487
10.0521
11.4872
13.7245
16.8396
20.709
25.3609
30.8366
37.1949
44.5484
53.1017
63.1963
75.3377
90.1609
108.231
129.134
150.757
169.319
181.465
186.752
187.18
185.182
182.207
178.557
173.876
167.721
159.899
150.514
139.693
127.826
115.482
103.125
91.0745
79.4981
68.43
57.8221
47.6529
38.0479
29.3119
21.8211
15.8387
11.396
8.31774
6.38335
5.4647
5.40013
5.91691
6.77366
7.8171
8.95534
10.1313
11.3084
12.4634
13.5815
14.6535
15.6742
16.6424
17.5621
18.4421
19.2958
20.1403
20.9961
21.8841
22.8167
23.7827
24.7316
25.5668
26.1707
26.4573
26.4294
26.2533
26.1861
26.2566
26.4056
26.7287
27.5139
28.374
28.2502
26.7743
24.2272
21.128
17.9494
15.0561
12.6584
10.7739
9.29797
8.1326
7.24507
6.60641
6.13735
5.86782
5.72565
5.54518
5.33612
4.72625
5.60671
5.61652
5.62623
5.63453
5.64385
5.66592
5.72597
5.86225
6.12836
6.57792
7.19441
8.00134
9.04147
10.3769
12.0927
14.3031
17.1606
20.8645
25.6283
31.6731
39.0186
47.2302
55.3049
62.1221
67.1406
70.6767
73.4534
76.0056
78.4091
80.365
81.4439
81.2976
79.7462
76.7294
72.5095
67.3758
61.6119
55.4599
49.1021
42.6654
36.2544
30.0016
24.1029
18.8005
14.3119
10.7513
8.09821
6.23609
5.05148
4.51006
4.55657
5.03747
5.79332
6.71285
7.72439
8.78058
9.84952
10.9101
11.9489
12.9583
13.9343
14.877
15.7901
16.6815
17.5625
18.4478
19.3556
20.3073
21.3209
22.3967
23.5011
24.5502
25.4161
25.9693
26.1434
25.9982
25.7732
25.7211
25.9316
26.3336
26.9268
27.448
27.0478
25.3925
22.7667
19.7081
16.6896
14.0288
11.8684
10.1841
8.86342
7.81234
7.00477
6.44537
6.05458
5.84485
5.71583
5.52958
5.32979
4.74934
4.33533
4.33859
4.34227
4.34596
4.34925
4.3526
4.35814
4.37084
4.40034
4.45926
4.55213
4.6863
4.87533
5.13813
5.4986
5.98899
6.65152
7.53957
8.7102
10.2263
12.1093
14.2236
16.4373
18.5833
20.5246
22.2795
24.0132
25.9191
28.079
30.392
32.6109
34.4399
35.6245
36.0502
35.7035
34.6194
32.8772
30.5783
27.8315
24.7513
21.4669
18.1291
14.9085
11.9765
9.46836
7.45065
5.91646
4.81185
4.0931
3.77616
3.86701
4.28824
4.93601
5.72967
6.6137
7.54922
8.50845
9.47197
10.4271
11.3666
12.2873
13.1896
14.0775
14.9582
15.8418
16.7414
17.6741
18.6613
19.725
20.8758
22.097
23.3263
24.4464
25.3061
25.7757
25.8192
25.6135
25.5078
25.712
26.1086
26.5133
26.6527
25.929
24.1002
21.4379
18.4603
15.6154
13.1713
11.2165
9.69936
8.50746
7.55442
6.82018
6.32348
6.00004
5.83901
5.72123
5.52735
5.32045
4.75097
3.66445
3.66329
3.66206
3.66089
3.65939
3.65735
3.65473
3.65188
3.65007
3.65151
3.65822
3.67364
3.70219
3.74936
3.82244
3.93094
4.0868
4.30444
4.59945
4.98767
5.47507
6.01727
6.59199
7.17873
7.75732
8.33116
8.94306
9.66822
10.5798
11.7007
12.9751
14.2788
15.465
16.4219
17.054
17.2949
17.1147
16.5174
15.5376
14.2376
12.7092
11.0575
9.39966
7.84901
6.49195
5.37326
4.49829
3.84825
3.41173
3.22158
3.31519
3.66486
4.20505
4.8769
5.63729
6.45464
7.30513
8.17107
9.04022
9.90526
10.763
11.6141
12.4622
13.3144
14.1798
15.0707
16.0031
16.9982
18.0802
19.2668
20.5559
21.909
23.2341
24.3865
25.1994
25.5484
25.5031
25.396
25.5336
25.8692
26.1222
25.9318
24.9018
22.9224
20.2591
17.3885
14.7175
12.4673
10.6862
9.3072
8.22337
7.35694
6.68945
6.24311
5.9759
5.85151
5.73985
5.53737
5.31912
4.74416
3.27695
3.27214
3.26719
3.26217
3.25691
3.25127
3.24509
3.23823
3.23072
3.22276
3.21476
3.20762
3.2033
3.20365
3.21103
3.22857
3.26021
3.31069
3.38526
3.48915
3.62504
3.78328
3.95648
4.13823
4.32226
4.50932
4.71247
4.96008
5.29168
5.7416
6.31691
6.98865
7.69705
8.36482
8.92327
9.31211
9.48601
9.42006
9.11294
8.58766
7.8872
7.07318
6.22795
5.41829
4.69248
4.07732
3.58093
3.19967
2.93327
2.81239
2.88557
3.15885
3.59539
4.15234
4.79575
5.49997
6.24487
7.01463
7.79751
8.58588
9.37618
10.1685
10.9665
11.7767
12.6079
13.4716
14.3833
15.3632
16.4364
17.6254
18.9388
20.3577
21.8192
23.2032
24.3406
25.0538
25.2971
25.3019
25.3931
25.6209
25.7121
25.245
23.9552
21.8623
19.2315
16.4857
13.9824
11.902
10.2656
9.00006
8.00753
7.2169
6.60828
6.20422
5.98319
5.88513
5.77402
5.55957
5.32784
4.73838
3.04405
3.03612
3.02811
3.01999
3.01175
3.00327
2.99441
2.98504
2.97506
2.96437
2.95305
2.9417
2.93076
2.92078
2.91256
2.90714
2.9059
2.9105
2.92293
2.94531
2.97922
3.02351
3.07625
3.13407
3.19426
3.2565
3.32463
3.40883
3.52692
3.70035
3.94368
4.2562
4.61544
4.98581
5.32848
5.60461
5.78078
5.83363
5.75338
5.54506
5.22622
4.83217
4.40858
3.99094
3.6054
3.26839
2.98762
2.76472
2.60176
2.51953
2.56329
2.76065
3.09891
3.54863
4.08277
4.68019
5.32401
6.00039
6.6983
7.40987
8.1308
8.86047
9.60176
10.3606
11.1456
11.9677
12.8416
13.7868
14.8283
15.9914
17.2929
18.7295
20.2636
21.8058
23.2062
24.2744
24.8799
25.1232
25.2669
25.4063
25.3179
24.598
23.0895
20.9176
18.3464
15.7374
13.3936
11.4611
9.94493
8.77308
7.85718
7.1317
6.57489
6.20745
6.02335
5.94125
5.82523
5.59536
5.34684
4.7372
2.90376
2.89308
2.88237
2.87162
2.86081
2.84988
2.83872
2.82725
2.8154
2.80306
2.79023
2.77727
2.76431
2.7515
2.73906
2.72734
2.71677
2.70792
2.70154
2.69861
2.7003
2.70661
2.71673
2.72944
2.74372
2.75928
2.77717
2.80074
2.83709
2.89706
2.99173
3.12634
3.29436
3.48131
3.66697
3.82904
3.94679
4.00414
3.99198
3.90901
3.76244
3.57401
3.36399
3.14985
2.94578
2.76186
2.60391
2.47446
2.37527
2.31716
2.3332
2.46035
2.70691
3.05693
3.48947
3.98676
4.53456
5.12094
5.7359
6.37159
7.023
7.68846
8.3698
9.07211
9.80329
10.5739
11.3977
12.2932
13.2843
14.3981
15.6572
17.0709
18.623
20.2534
21.8417
23.2116
24.1894
24.7594
25.0786
25.219
24.9808
24.0253
22.324
20.0931
17.5949
15.1269
12.9338
11.1313
9.71635
8.62242
7.77065
7.10089
6.58967
6.25419
6.09834
6.02155
5.89417
5.64556
5.37725
4.74229
2.82028
2.80731
2.79436
2.78143
2.76847
2.75547
2.74237
2.72911
2.71561
2.70183
2.68787
2.67383
2.65976
2.64567
2.63164
2.61775
2.60412
2.59094
2.57846
2.56714
2.55765
2.55012
2.54422
2.5395
2.53559
2.53237
2.53014
2.52989
2.53405
2.54718
2.57544
2.62358
2.69198
2.77582
2.8657
2.94968
3.01566
3.05345
3.05614
3.0214
2.95491
2.86541
2.76162
2.65213
2.5446
2.44493
2.35688
2.28237
2.22253
2.18174
2.1786
2.24698
2.4105
2.66827
3.00646
3.41025
3.8673
4.36739
4.90171
5.46283
6.04529
6.64633
7.2665
7.90968
8.58285
9.29579
10.0615
10.8971
11.825
12.8723
14.0653
15.4228
16.9459
18.6016
20.3024
21.8999
23.2131
24.1443
24.7391
25.0018
24.7054
23.5599
21.6887
19.4046
16.9759
14.6419
12.5883
10.9013
9.5734
8.5453
7.74768
7.12567
6.65452
6.34708
6.21114
6.12818
5.98154
5.70958
5.41898
4.75435
2.77266
2.75787
2.74314
2.72846
2.71378
2.6991
2.68439
2.6696
2.65469
2.63964
2.62449
2.60935
2.59423
2.57912
2.564
2.54889
2.53381
2.51879
2.50397
2.48969
2.47621
2.46348
2.45138
2.43975
2.42846
2.41748
2.4069
2.39705
2.38862
2.3832
2.38334
2.39186
2.41058
2.43891
2.47343
2.50858
2.53782
2.55512
2.55595
2.54028
2.50953
2.46644
2.41475
2.35865
2.30212
2.2484
2.19961
2.15686
2.12074
2.09275
2.08072
2.10698
2.20008
2.37392
2.62461
2.94116
3.3128
3.73056
4.18683
4.6749
5.18929
5.72641
6.28541
6.86872
7.48201
8.13404
8.83678
9.60601
10.4625
11.4321
12.5426
13.8189
15.2752
16.9018
18.644
20.3885
21.9712
23.2504
24.1787
24.6786
24.4566
23.2121
21.2091
18.8736
16.4984
14.2798
12.3497
10.7649
9.51277
8.5413
7.7899
7.20873
6.77281
6.49179
6.36315
6.2625
6.08808
5.78671
5.4704
4.77255
2.74643
2.73034
2.71431
2.69832
2.68237
2.66642
2.65048
2.63451
2.61848
2.60238
2.58631
2.57028
2.55427
2.53828
2.52228
2.50627
2.49024
2.47417
2.45813
2.44234
2.42698
2.41197
2.39725
2.38273
2.36837
2.35412
2.34004
2.32622
2.31286
2.30041
2.28966
2.28184
2.27813
2.27905
2.28388
2.29058
2.29628
2.29821
2.29477
2.28478
2.26804
2.24536
2.21822
2.18852
2.15814
2.12868
2.1012
2.07613
2.05365
2.03426
2.02055
2.02294
2.06359
2.16493
2.33536
2.57056
2.86198
3.20159
3.58266
3.99938
4.44665
4.92051
5.41898
5.94285
6.49619
7.08632
7.72393
8.42341
9.20371
10.0889
11.1068
12.2851
13.647
15.2006
16.9211
18.7326
20.5031
22.0804
23.3564
24.1796
24.1748
22.9637
20.8942
18.5185
16.1781
14.0488
12.2207
10.723
9.53635
8.61359
7.90124
7.3542
6.94833
6.68649
6.55472
6.42487
6.21376
5.87619
5.52939
4.79466
2.733
2.71604
2.69912
2.68224
2.66539
2.64856
2.63172
2.61488
2.59802
2.58112
2.56424
2.54742
2.53065
2.51391
2.49718
2.48045
2.46368
2.44686
2.43007
2.4135
2.39715
2.38098
2.36496
2.34906
2.33323
2.31747
2.30179
2.2862
2.27076
2.25557
2.24081
2.22686
2.21419
2.2032
2.19399
2.18626
2.17944
2.17247
2.16429
2.15411
2.14159
2.12682
2.1103
2.09273
2.0749
2.05745
2.04076
2.02491
2.00977
1.99543
1.9827
1.97518
1.98431
2.03012
2.13022
2.29025
2.50643
2.77213
3.08122
3.4286
3.80981
4.22104
4.65963
5.12498
5.61935
6.1483
6.72085
7.34972
8.05199
8.84969
9.76934
10.8398
12.0889
13.5374
15.1843
16.9894
18.8603
20.6611
22.2584
23.4514
23.7924
22.7739
20.7332
18.3467
16.0299
13.9637
12.2129
10.7848
9.65196
8.76908
8.0876
7.56715
7.18369
6.93116
6.78595
6.61486
6.35735
5.97627
5.59335
4.81768
2.72633
2.70883
2.69137
2.67392
2.6565
2.63908
2.62167
2.60425
2.58682
2.56939
2.55199
2.53465
2.51734
2.50006
2.48278
2.4655
2.44819
2.43083
2.41348
2.39629
2.37927
2.36238
2.3456
2.32892
2.3123
2.29574
2.27923
2.26275
2.24632
2.22994
2.21363
2.19744
2.1815
2.16613
2.15169
2.13825
2.12569
2.11374
2.10205
2.0903
2.07826
2.06587
2.05324
2.04056
2.02806
2.0159
2.00411
1.99255
1.98097
1.96922
1.95754
1.94707
1.94195
1.95332
1.99864
2.09219
2.23844
2.43442
2.67501
2.95554
3.27213
3.62142
4.00066
4.40833
4.84507
5.31449
5.82359
6.38313
7.00805
7.7181
8.53789
9.49575
10.6217
11.9437
13.4781
15.2149
17.1014
19.0362
20.8927
22.457
23.2405
22.584
20.698
18.3522
16.0616
14.0387
12.3419
10.9641
9.87095
9.01646
8.35514
7.85034
7.47722
7.22248
7.05335
6.83043
6.51591
6.08354
5.6584
4.83774
2.7233
2.70551
2.68773
2.66996
2.65219
2.63443
2.61667
2.59889
2.5811
2.5633
2.54552
2.52778
2.51009
2.49241
2.47474
2.45707
2.43937
2.42165
2.40398
2.38643
2.36898
2.35162
2.33436
2.31717
2.30005
2.28299
2.26596
2.24896
2.23198
2.21498
2.19794
2.18085
2.16389
2.14729
2.1312
2.11571
2.10087
2.08669
2.07313
2.06011
2.04757
2.03549
2.02386
2.01269
2.00199
1.99172
1.98173
1.9718
1.96165
1.95103
1.9399
1.92865
1.91861
1.91395
1.92483
1.96626
2.05041
2.18135
2.35705
2.57363
2.82757
3.11597
3.43638
3.78698
4.16727
4.57904
5.02714
5.52004
6.07029
6.69508
7.41658
8.26158
9.26014
10.4435
11.8393
13.4604
15.2886
17.2631
19.2881
21.1769
22.4507
22.316
20.7409
18.5158
16.271
14.2815
12.619
11.2725
10.2026
9.36216
8.70707
8.20264
7.82478
7.55421
7.3486
7.06783
6.68427
6.1925
5.71878
4.84965
2.72185
2.70391
2.68596
2.66801
2.65006
2.6321
2.61413
2.59616
2.57816
2.56017
2.54219
2.52425
2.50632
2.48841
2.47049
2.45257
2.43463
2.41667
2.39873
2.3809
2.36315
2.34549
2.32791
2.31039
2.29294
2.27555
2.25818
2.24084
2.22349
2.20612
2.18867
2.17123
2.154
2.13708
2.12052
2.1044
2.0888
2.07378
2.05938
2.04565
2.0326
2.02024
2.00857
1.99756
1.98714
1.97719
1.96754
1.95794
1.94811
1.9378
1.92684
1.91533
1.90372
1.89335
1.88809
1.89682
1.93245
2.00574
2.12085
2.27669
2.47047
2.69961
2.96204
3.25612
3.58082
3.93658
4.32623
4.75585
5.23536
5.77914
6.40656
7.14196
8.01392
9.05438
10.2969
11.7698
13.4819
15.4091
17.4976
19.6193
21.3635
21.8671
20.7806
18.7948
16.6411
14.6879
13.0458
11.7125
10.6482
9.80529
9.14042
8.61976
8.22076
7.92126
7.66017
7.30999
6.85161
6.29441
5.76627
4.84661
2.7212
2.70318
2.68515
2.66711
2.64906
2.63101
2.61293
2.59485
2.57674
2.55863
2.54051
2.52242
2.50435
2.48628
2.46821
2.45014
2.43205
2.41395
2.3959
2.37792
2.36
2.34214
2.32435
2.30662
2.28895
2.27132
2.25372
2.23613
2.21854
2.2009
2.18318
2.16562
2.14829
2.13125
2.11454
2.09823
2.08238
2.06705
2.05231
2.0382
2.02478
2.01206
2.00006
1.98875
1.97804
1.96781
1.9579
1.94807
1.93806
1.92765
1.91664
1.90497
1.89279
1.88058
1.86958
1.86315
1.86881
1.89766
1.95949
2.05879
2.19542
2.36756
2.57345
2.81178
3.0816
3.38261
3.71608
4.0858
4.499
4.96711
5.50637
6.13807
6.88828
7.78773
8.8719
10.1778
11.7332
13.5435
15.5958
17.8296
19.9489
21.1209
20.6893
19.1014
17.1232
15.2322
13.6073
12.2729
11.1973
10.3355
9.64549
9.09369
8.65699
8.30876
7.97438
7.54409
7.00661
6.37817
5.79013
4.82032
2.72082
2.70276
2.68468
2.66659
2.64849
2.63038
2.61225
2.59411
2.57595
2.55778
2.53961
2.52146
2.50331
2.48516
2.46701
2.44886
2.43068
2.4125
2.39435
2.37626
2.35823
2.34025
2.32233
2.30446
2.28664
2.26885
2.25109
2.23333
2.21555
2.19772
2.17992
2.16229
2.14491
2.12781
2.11104
2.09464
2.07867
2.06318
2.04824
2.03388
2.02017
2.00712
1.99474
1.98301
1.97185
1.96116
1.95079
1.94053
1.93016
1.91946
1.90827
1.89648
1.88408
1.87123
1.85837
1.84662
1.83876
1.84097
1.86271
1.91304
1.99687
2.11503
2.26658
2.45055
2.6663
2.91354
3.19263
3.50551
3.85681
4.25493
4.71281
5.2484
5.88464
6.64974
7.57802
8.70941
10.0834
11.7286
13.6646
15.8877
18.2288
19.9847
20.3057
19.2905
17.6182
15.8527
14.2633
12.9248
11.827
10.9341
10.2078
9.61401
9.12473
8.70604
8.28051
7.7578
7.13491
6.42873
5.77642
4.76106
2.72058
2.7025
2.6844
2.66629
2.64816
2.63002
2.61186
2.59369
2.5755
2.5573
2.53909
2.52089
2.50269
2.48449
2.46629
2.44808
2.42987
2.41165
2.39347
2.37533
2.35724
2.33918
2.32118
2.30321
2.28529
2.26739
2.24951
2.23162
2.21371
2.19574
2.17789
2.16024
2.14283
2.12569
2.10886
2.09239
2.07633
2.06072
2.04561
2.03105
2.01708
2.00372
1.99097
1.97882
1.9672
1.95602
1.94515
1.93442
1.92364
1.91262
1.9012
1.88926
1.87675
1.8637
1.85025
1.83681
1.8243
1.81497
1.81371
1.82849
1.86767
1.93662
2.03708
2.169
2.33214
2.52654
2.75253
3.01102
3.3045
3.63835
4.022
4.46982
5.00135
5.64161
6.42195
7.38116
8.56387
10.0152
11.7781
13.8865
16.2773
18.4313
19.4828
19.178
17.9723
16.4404
14.9402
13.6172
12.5003
11.5729
10.8059
10.1667
9.61789
9.1082
8.56917
7.9374
7.21609
6.42559
5.70796
4.65793
2.72039
2.70229
2.68418
2.66605
2.6479
2.62974
2.61156
2.59337
2.57517
2.55695
2.53872
2.5205
2.50228
2.48405
2.46583
2.44759
2.42935
2.41111
2.3929
2.37472
2.35658
2.33848
2.32041
2.30238
2.28438
2.2664
2.24843
2.23046
2.21244
2.19444
2.17659
2.15894
2.14151
2.12433
2.10746
2.09092
2.07476
2.05903
2.04377
2.02901
2.01479
2.00114
1.98805
1.9755
1.96345
1.95181
1.94048
1.9293
1.91812
1.90677
1.89512
1.88303
1.87044
1.85733
1.84373
1.82979
1.81585
1.80266
1.79196
1.78751
1.79583
1.82453
1.87936
1.96297
2.07614
2.21936
2.39336
2.59904
2.83785
3.11269
3.42948
3.79851
4.23543
4.76165
5.40506
6.20133
7.19536
8.44038
9.99411
11.9123
14.1986
16.5132
18.1366
18.5803
17.9885
16.8337
15.5193
14.2657
13.1567
12.2065
11.4017
10.7143
10.0993
9.49292
8.82406
8.05743
7.21821
6.34166
5.56549
4.50076
2.72023
2.70212
2.684
2.66585
2.64769
2.62952
2.61133
2.59313
2.57491
2.55668
2.53845
2.5202
2.50196
2.48372
2.46547
2.44722
2.42896
2.41071
2.39249
2.37429
2.35612
2.33797
2.31986
2.30178
2.28372
2.26568
2.24765
2.22959
2.21151
2.19353
2.17571
2.15806
2.14063
2.12343
2.10651
2.0899
2.07365
2.0578
2.04238
2.02743
2.01299
1.99906
1.98565
1.97275
1.96031
1.94826
1.93651
1.92494
1.9134
1.90175
1.88987
1.87764
1.86498
1.85186
1.83827
1.82425
1.80992
1.79558
1.78183
1.76997
1.76279
1.76541
1.7846
1.82628
1.89393
1.98921
2.1133
2.26757
2.45356
2.67317
2.92964
3.22919
3.58274
4.00721
4.52634
5.17196
5.98635
7.02464
8.35309
10.0386
12.1065
14.3546
16.2862
17.3664
17.4551
16.8176
15.8196
14.7284
13.6847
12.743
11.9115
11.1707
10.4748
9.75296
8.9392
8.03354
7.08654
6.14398
5.33138
4.28394
2.72009
2.70198
2.68384
2.66569
2.64752
2.62934
2.61114
2.59293
2.5747
2.55646
2.53821
2.51996
2.50171
2.48345
2.46519
2.44692
2.42865
2.4104
2.39216
2.37393
2.35573
2.33756
2.31941
2.30129
2.28319
2.26509
2.247
2.22889
2.21083
2.1929
2.17511
2.15748
2.14004
2.12282
2.10585
2.08918
2.07284
2.05687
2.04131
2.02619
2.01153
1.99736
1.98367
1.97045
1.95767
1.94526
1.93315
1.92123
1.90937
1.89747
1.88538
1.87303
1.86032
1.8472
1.83366
1.81971
1.80538
1.7908
1.77618
1.76201
1.74925
1.73989
1.73778
1.74865
1.77835
1.83109
1.90934
2.01499
2.15003
2.31658
2.51701
2.75482
3.0364
3.37319
3.78338
4.29356
4.9411
5.77858
6.87611
8.30844
10.0968
12.1237
14.084
15.5471
16.2303
16.1701
15.6056
14.7879
13.8907
13.0058
12.1682
11.3739
10.587
9.74686
8.80404
7.79176
6.77851
5.81214
4.99952
4.00892
2.71997
2.70184
2.6837
2.66554
2.64736
2.62917
2.61096
2.59274
2.57451
2.55626
2.53801
2.51975
2.50148
2.48322
2.46495
2.44667
2.4284
2.41012
2.39186
2.37362
2.3554
2.3372
2.31902
2.30086
2.28272
2.26459
2.24645
2.22835
2.21036
2.19247
2.1747
2.15708
2.13964
2.1224
2.10539
2.08866
2.07224
2.05617
2.04048
2.0252
2.01036
1.99597
1.98204
1.96855
1.95548
1.94277
1.93035
1.91814
1.90603
1.8939
1.88166
1.8692
1.85646
1.84337
1.82991
1.81607
1.80187
1.78736
1.77263
1.75788
1.74346
1.73008
1.71911
1.71332
1.71727
1.7364
1.77539
1.83754
1.92541
2.04156
2.18863
2.36943