/*--------------------------------*- C++ -*----------------------------------*\
| =========                 |                                                 |
| \\      /  F ield         | OpenFOAM: The Open Source CFD Toolbox           |
|  \\    /   O peration     | Version:  4.1                                   |
|   \\  /    A nd           | Web:      www.OpenFOAM.org                      |
|    \\/     M anipulation  |                                                 |
\*---------------------------------------------------------------------------*/
FoamFile
{
    version     2.0;
    format      ascii;
    class       volScalarField;
    location    "200";
    object      k;
}
// * * * * * * * * * * * * * * * * * * * * * * * * * * * * * * * * * * * * * //

dimensions      [0 2 -2 0 0 0 0];

internalField   nonuniform List<scalar> 
6820
(
0.241787
0.289665
0.336844
0.381951
0.423954
0.462112
0.495951
0.525268
0.550096
0.570644
0.587235
0.600261
0.610141
0.617296
0.622126
0.624999
0.626246
0.626162
0.624998
0.622972
0.62027
0.617044
0.613426
0.609518
0.605409
0.601167
0.596845
0.592484
0.58811
0.583741
0.579372
0.575082
0.572595
0.202474
0.204679
0.206995
0.209467
0.212041
0.21468
0.217361
0.220056
0.222733
0.225371
0.227957
0.230484
0.232951
0.235362
0.237726
0.240051
0.242349
0.244628
0.246899
0.24917
0.251449
0.253743
0.256058
0.2584
0.260772
0.26318
0.265629
0.268126
0.270684
0.273319
0.276064
0.278955
0.282724
0.199741
0.199215
0.198471
0.197595
0.196619
0.195572
0.194482
0.193365
0.192234
0.191099
0.18997
0.188855
0.187762
0.186697
0.185666
0.184673
0.183725
0.182825
0.181977
0.181184
0.180448
0.179771
0.179152
0.178592
0.178091
0.177651
0.177273
0.176959
0.176715
0.176547
0.176465
0.176493
0.176708
0.199153
0.198176
0.197113
0.195992
0.194809
0.19357
0.192296
0.191001
0.189694
0.188384
0.187078
0.185782
0.184501
0.183239
0.181999
0.180783
0.179595
0.178437
0.177309
0.176215
0.175155
0.174129
0.173139
0.172185
0.171268
0.170386
0.169542
0.168735
0.167967
0.167238
0.166551
0.165909
0.165318
0.198981
0.1979
0.196807
0.195699
0.194559
0.193388
0.192197
0.190994
0.189784
0.188574
0.187367
0.186167
0.184978
0.183803
0.182645
0.181505
0.180384
0.179286
0.178211
0.177159
0.176132
0.175131
0.174155
0.173206
0.172282
0.171386
0.170515
0.169671
0.168854
0.168062
0.167297
0.166555
0.165831
0.198926
0.197795
0.196678
0.195576
0.194473
0.193363
0.192249
0.191134
0.190019
0.188909
0.187806
0.186711
0.185629
0.184559
0.183505
0.182466
0.181446
0.180443
0.17946
0.178496
0.177552
0.176629
0.175727
0.174845
0.173985
0.173145
0.172326
0.171528
0.170749
0.169991
0.169251
0.168528
0.167812
0.198906
0.197755
0.196631
0.195537
0.194463
0.193399
0.192342
0.191294
0.190254
0.189222
0.188201
0.187192
0.186195
0.185211
0.184241
0.183287
0.182349
0.181427
0.180522
0.179635
0.178765
0.177913
0.177078
0.176262
0.175464
0.174683
0.17392
0.173175
0.172446
0.171735
0.171038
0.170355
0.169676
0.1989
0.19774
0.196611
0.195517
0.194452
0.193408
0.192382
0.191373
0.19038
0.189401
0.188437
0.187487
0.186552
0.185632
0.184727
0.183838
0.182965
0.182108
0.181267
0.180442
0.179634
0.178843
0.178068
0.177309
0.176567
0.17584
0.17513
0.174434
0.173754
0.173089
0.172437
0.171797
0.17116
0.198897
0.197734
0.196603
0.195508
0.194448
0.193415
0.192408
0.191424
0.19046
0.189516
0.188591
0.187683
0.186793
0.185919
0.185062
0.184221
0.183397
0.182589
0.181797
0.181021
0.180261
0.179517
0.178788
0.178075
0.177377
0.176694
0.176025
0.175372
0.174732
0.174105
0.173492
0.172889
0.172288
0.198896
0.197732
0.1966
0.195505
0.194445
0.193417
0.192417
0.191444
0.190496
0.189571
0.188668
0.187785
0.186923
0.186079
0.185254
0.184447
0.183657
0.182884
0.182128
0.181388
0.180665
0.179957
0.179264
0.178587
0.177925
0.177277
0.176643
0.176023
0.175417
0.174823
0.174242
0.173672
0.173103
0.198896
0.197731
0.196599
0.195504
0.194444
0.193417
0.192421
0.191454
0.190514
0.1896
0.18871
0.187844
0.186999
0.186175
0.185371
0.184587
0.183821
0.183073
0.182342
0.181629
0.180932
0.18025
0.179585
0.178934
0.178299
0.177677
0.17707
0.176476
0.175896
0.175328
0.174773
0.174228
0.173684
0.198896
0.19773
0.196599
0.195504
0.194444
0.193418
0.192423
0.191458
0.190521
0.189612
0.188729
0.18787
0.187035
0.186222
0.18543
0.184659
0.183908
0.183176
0.182462
0.181765
0.181086
0.180423
0.179776
0.179145
0.178529
0.177927
0.177339
0.176765
0.176205
0.175657
0.175121
0.174596
0.174073
0.198896
0.19773
0.196599
0.195504
0.194444
0.193418
0.192424
0.19146
0.190525
0.189618
0.188738
0.187884
0.187054
0.186247
0.185463
0.1847
0.183958
0.183235
0.182532
0.181846
0.181179
0.180528
0.179894
0.179276
0.178673
0.178085
0.177512
0.176952
0.176406
0.175872
0.175351
0.174841
0.174333
0.198896
0.19773
0.196599
0.195504
0.194445
0.193419
0.192425
0.191461
0.190527
0.189621
0.188743
0.18789
0.187062
0.186259
0.185478
0.184719
0.183981
0.183264
0.182566
0.181888
0.181227
0.180584
0.179958
0.179348
0.178753
0.178174
0.17761
0.177059
0.176523
0.175999
0.175488
0.174988
0.174492
0.198896
0.19773
0.196599
0.195505
0.194445
0.193419
0.192425
0.191462
0.190528
0.189623
0.188745
0.187893
0.187067
0.186265
0.185486
0.184729
0.183994
0.18328
0.182586
0.181911
0.181254
0.180615
0.179994
0.179389
0.1788
0.178227
0.177668
0.177124
0.176594
0.176077
0.175573
0.17508
0.174591
0.198896
0.19773
0.196599
0.195505
0.194446
0.19342
0.192426
0.191463
0.190529
0.189624
0.188746
0.187895
0.187069
0.186268
0.18549
0.184734
0.184
0.183287
0.182595
0.181922
0.181267
0.180631
0.180012
0.17941
0.178824
0.178253
0.177698
0.177158
0.176631
0.176118
0.175619
0.17513
0.174646
0.198896
0.19773
0.1966
0.195505
0.194446
0.19342
0.192426
0.191463
0.19053
0.189625
0.188747
0.187896
0.187071
0.186269
0.185492
0.184737
0.184004
0.183292
0.1826
0.181928
0.181274
0.180639
0.180022
0.179421
0.178837
0.178269
0.177716
0.177177
0.176653
0.176143
0.175646
0.17516
0.174679
0.198896
0.197729
0.1966
0.195505
0.194446
0.19342
0.192427
0.191464
0.19053
0.189626
0.188748
0.187897
0.187072
0.186271
0.185493
0.184739
0.184006
0.183294
0.182603
0.181931
0.181278
0.180644
0.180027
0.179427
0.178844
0.178276
0.177724
0.177187
0.176665
0.176156
0.17566
0.175176
0.174696
0.198896
0.197729
0.1966
0.195506
0.194446
0.193421
0.192427
0.191464
0.190531
0.189626
0.188749
0.187898
0.187073
0.186272
0.185494
0.18474
0.184007
0.183296
0.182605
0.181933
0.181281
0.180647
0.18003
0.179431
0.178848
0.178281
0.17773
0.177194
0.176672
0.176163
0.175669
0.175186
0.174707
0.198896
0.197729
0.1966
0.195506
0.194446
0.193421
0.192427
0.191464
0.190531
0.189627
0.188749
0.187899
0.187073
0.186272
0.185495
0.184741
0.184008
0.183297
0.182606
0.181935
0.181282
0.180648
0.180032
0.179433
0.178851
0.178284
0.177733
0.177197
0.176676
0.176168
0.175674
0.175191
0.174713
0.198896
0.197729
0.1966
0.195506
0.194447
0.193421
0.192427
0.191465
0.190532
0.189627
0.18875
0.187899
0.187074
0.186273
0.185496
0.184741
0.184009
0.183298
0.182607
0.181936
0.181284
0.18065
0.180034
0.179435
0.178853
0.178286
0.177735
0.1772
0.176678
0.176171
0.175677
0.175195
0.174717
0.198896
0.197729
0.1966
0.195506
0.194447
0.193421
0.192428
0.191465
0.190532
0.189627
0.18875
0.1879
0.187074
0.186274
0.185496
0.184742
0.18401
0.183299
0.182608
0.181937
0.181285
0.180651
0.180035
0.179436
0.178854
0.178288
0.177737
0.177201
0.17668
0.176173
0.175679
0.175197
0.17472
0.198896
0.197729
0.1966
0.195506
0.194447
0.193421
0.192428
0.191465
0.190532
0.189628
0.18875
0.1879
0.187075
0.186274
0.185497
0.184743
0.18401
0.183299
0.182608
0.181937
0.181285
0.180652
0.180036
0.179437
0.178855
0.178289
0.177738
0.177203
0.176682
0.176175
0.175681
0.175199
0.174722
0.198896
0.197729
0.1966
0.195506
0.194447
0.193421
0.192428
0.191465
0.190532
0.189628
0.188751
0.1879
0.187075
0.186274
0.185497
0.184743
0.184011
0.1833
0.182609
0.181938
0.181286
0.180652
0.180036
0.179438
0.178856
0.17829
0.177739
0.177204
0.176683
0.176176
0.175682
0.175201
0.174723
0.198896
0.197729
0.1966
0.195506
0.194447
0.193421
0.192428
0.191465
0.190532
0.189628
0.188751
0.1879
0.187075
0.186274
0.185497
0.184743
0.184011
0.1833
0.182609
0.181938
0.181286
0.180652
0.180037
0.179438
0.178856
0.17829
0.177739
0.177204
0.176683
0.176176
0.175682
0.175201
0.174724
0.198896
0.197729
0.1966
0.195506
0.194447
0.193421
0.192428
0.191465
0.190532
0.189628
0.188751
0.1879
0.187075
0.186274
0.185497
0.184743
0.184011
0.1833
0.182609
0.181938
0.181286
0.180652
0.180037
0.179438
0.178856
0.17829
0.17774
0.177204
0.176683
0.176176
0.175683
0.175201
0.174724
0.198896
0.197729
0.1966
0.195506
0.194447
0.193421
0.192428
0.191465
0.190532
0.189628
0.188751
0.1879
0.187075
0.186274
0.185497
0.184743
0.18401
0.183299
0.182608
0.181937
0.181285
0.180652
0.180036
0.179437
0.178855
0.178289
0.177738
0.177203
0.176682
0.176175
0.175681
0.175199
0.174722
0.198896
0.197729
0.1966
0.195506
0.194447
0.193421
0.192428
0.191465
0.190532
0.189628
0.18875
0.1879
0.187075
0.186274
0.185497
0.184742
0.18401
0.183299
0.182608
0.181937
0.181285
0.180651
0.180036
0.179437
0.178855
0.178289
0.177738
0.177203
0.176682
0.176175
0.175681
0.175199
0.174722
0.198896
0.197729
0.1966
0.195506
0.194447
0.193421
0.192428
0.191465
0.190532
0.189627
0.18875
0.187899
0.187074
0.186273
0.185496
0.184741
0.184009
0.183297
0.182606
0.181935
0.181283
0.180649
0.180033
0.179434
0.178852
0.178285
0.177735
0.177199
0.176678
0.176171
0.175677
0.175195
0.174718
0.198896
0.197729
0.1966
0.195506
0.194447
0.193421
0.192427
0.191465
0.190532
0.189627
0.18875
0.187899
0.187074
0.186273
0.185496
0.184741
0.184009
0.183298
0.182607
0.181936
0.181283
0.18065
0.180034
0.179435
0.178852
0.178286
0.177735
0.177199
0.176678
0.176171
0.175677
0.175195
0.174718
0.198896
0.197729
0.1966
0.195506
0.194447
0.193421
0.192427
0.191464
0.190531
0.189626
0.188749
0.187897
0.187072
0.186271
0.185493
0.184738
0.184005
0.183294
0.182602
0.181931
0.181278
0.180644
0.180027
0.179428
0.178845
0.178279
0.177728
0.177192
0.17667
0.176162
0.175668
0.175186
0.174708
0.198896
0.197729
0.1966
0.195506
0.194446
0.193421
0.192427
0.191464
0.190531
0.189627
0.18875
0.187899
0.187074
0.186273
0.185496
0.184741
0.184008
0.183297
0.182605
0.181934
0.181281
0.180647
0.18003
0.17943
0.178847
0.17828
0.177728
0.177192
0.17667
0.176161
0.175666
0.175183
0.174704
0.198896
0.19773
0.1966
0.195505
0.194446
0.19342
0.192426
0.191462
0.190528
0.189623
0.188745
0.187893
0.187067
0.186265
0.185487
0.184732
0.183998
0.183286
0.182594
0.181921
0.181267
0.180632
0.180014
0.179413
0.178829
0.178261
0.177708
0.17717
0.176646
0.176136
0.17564
0.175155
0.174675
0.198896
0.19773
0.1966
0.195506
0.194447
0.193422
0.192429
0.191467
0.190534
0.18963
0.188753
0.187902
0.187076
0.186274
0.185495
0.184739
0.184005
0.183291
0.182597
0.181923
0.181267
0.180629
0.180009
0.179406
0.178819
0.178247
0.177691
0.17715
0.176623
0.176109
0.175609
0.17512
0.174636
0.198896
0.19773
0.1966
0.195504
0.194443
0.193416
0.192421
0.191457
0.190523
0.189617
0.188738
0.187885
0.187057
0.186253
0.185472
0.184713
0.183975
0.183258
0.18256
0.181881
0.181221
0.180578
0.179953
0.179344
0.17875
0.178173
0.17761
0.177063
0.176529
0.176009
0.175502
0.175006
0.174515
0.198897
0.197733
0.196606
0.195516
0.194462
0.193441
0.19245
0.191489
0.190556
0.18965
0.18877
0.187915
0.187083
0.186274
0.185487
0.184721
0.183975
0.183249
0.182542
0.181853
0.181183
0.180529
0.179892
0.179272
0.178667
0.178078
0.177504
0.176944
0.176398
0.175866
0.175348
0.174841
0.174338
0.1989
0.197735
0.196605
0.195515
0.194465
0.19345
0.192465
0.191508
0.190579
0.189676
0.188796
0.187939
0.187105
0.186291
0.185498
0.184725
0.183971
0.183237
0.18252
0.181821
0.18114
0.180476
0.179828
0.179197
0.178582
0.177982
0.177397
0.176827
0.176271
0.175729
0.175201
0.174685
0.174174
0.198944
0.197852
0.196795
0.195774
0.194787
0.193828
0.192895
0.191986
0.191102
0.190239
0.189399
0.188579
0.18778
0.187
0.18624
0.185499
0.184776
0.184071
0.183385
0.182715
0.182063
0.181428
0.180809
0.180207
0.17962
0.179049
0.178493
0.177952
0.177426
0.176914
0.176416
0.175931
0.175454
0.199227
0.198571
0.198048
0.197613
0.197233
0.196892
0.196584
0.196306
0.196053
0.195823
0.195613
0.195421
0.195248
0.195091
0.19495
0.194823
0.194711
0.194613
0.194527
0.194454
0.194392
0.194341
0.194302
0.194272
0.194252
0.194241
0.194239
0.194245
0.19426
0.194282
0.194312
0.194349
0.194397
0.209515
0.220347
0.230808
0.24093
0.250733
0.260233
0.269437
0.27835
0.286976
0.295318
0.303379
0.311162
0.31867
0.325907
0.332877
0.339585
0.346037
0.352237
0.358192
0.363907
0.36939
0.374646
0.379682
0.384505
0.389123
0.393541
0.397767
0.401807
0.405669
0.409358
0.412882
0.416249
0.419487
0.654235
0.856612
1.08799
1.33078
1.54867
1.72658
1.86076
1.95849
2.02949
2.08121
2.11835
2.14494
2.16626
2.18836
2.21667
2.25604
2.31133
2.3873
2.48102
2.57862
2.65574
2.68844
2.66611
2.60049
2.508
2.39751
2.2709
2.12935
1.97847
1.82791
1.68727
1.56272
1.45627
1.36649
1.28849
1.21619
1.14827
1.0836
1.02051
0.956563
0.88881
0.814749
0.733677
0.647736
0.561845
0.482526
0.417605
0.380422
0.391666
0.45551
0.543736
0.627927
0.697639
0.752186
0.793408
0.823397
0.843973
0.856611
0.862474
0.862485
0.857399
0.847876
0.834525
0.817916
0.798569
0.77694
0.753413
0.7283
0.701823
0.674173
0.645667
0.617036
0.589644
0.565249
0.545469
0.531366
0.523232
0.520551
0.522469
0.527701
0.533754
0.535379
0.525334
0.501047
0.463152
0.414014
0.357706
0.300501
0.249109
0.207561
0.176473
0.154974
0.142347
0.13795
0.140437
0.149289
0.159876
0.170834
0.18298
0.195183
0.2938
0.32234
0.372887
0.451187
0.554715
0.677326
0.813307
0.953578
1.08844
1.20737
1.30769
1.39063
1.46052
1.52336
1.58536
1.65236
1.72951
1.82015
1.92321
2.029
2.1196
2.1735
2.17777
2.14381
2.08601
2.01678
1.94053
1.8562
1.76302
1.66365
1.56327
1.46697
1.37801
1.29682
1.21901
1.14454
1.07352
1.0053
0.938371
0.870577
0.799757
0.72469
0.646014
0.566533
0.490583
0.423035
0.369806
0.342583
0.360411
0.425901
0.511619
0.592164
0.659015
0.711877
0.752464
0.782676
0.80418
0.818351
0.826285
0.828856
0.826769
0.820628
0.810974
0.798296
0.783023
0.765504
0.746012
0.724732
0.701728
0.676967
0.650463
0.622589
0.594402
0.567579
0.544036
0.525538
0.513184
0.506932
0.505873
0.508316
0.511415
0.509903
0.49713
0.470567
0.431157
0.382029
0.327987
0.275197
0.229325
0.193254
0.16697
0.149305
0.139255
0.13607
0.13886
0.147101
0.156535
0.16615
0.176823
0.187847
0.177779
0.180972
0.187618
0.199944
0.219852
0.248562
0.286876
0.33487
0.392434
0.461201
0.537288
0.617669
0.700073
0.783446
0.868115
0.95569
1.04843
1.14738
1.25133
1.3535
1.44226
1.50337
1.53304
1.5344
1.51693
1.49158
1.46388
1.43303
1.39584
1.35055
1.29811
1.24123
1.18261
1.12287
1.06027
0.998266
0.937152
0.876593
0.815652
0.753098
0.687979
0.620296
0.55145
0.48413
0.421663
0.36746
0.326024
0.307527
0.329128
0.393073
0.474657
0.551425
0.615893
0.667696
0.708253
0.739205
0.762046
0.778043
0.788238
0.793471
0.79442
0.79165
0.785652
0.77685
0.765595
0.75216
0.736731
0.719408
0.700151
0.678759
0.654987
0.628821
0.600875
0.572548
0.545827
0.522936
0.505784
0.495142
0.490386
0.489587
0.489634
0.485238
0.470193
0.442033
0.40195
0.353653
0.302401
0.254073
0.21335
0.182144
0.159939
0.145386
0.13739
0.135205
0.138131
0.145361
0.153379
0.161451
0.17051
0.179914
0.164675
0.164309
0.164474
0.165649
0.168402
0.173268
0.180679
0.1909
0.204214
0.221641
0.244917
0.27496
0.312383
0.357407
0.40995
0.469844
0.536805
0.6098
0.686146
0.761092
0.827678
0.879023
0.914589
0.933093
0.940103
0.943698
0.949179
0.956587
0.96226
0.962053
0.953601
0.936704
0.91233
0.879744
0.842905
0.803093
0.760968
0.716627
0.66979
0.620132
0.56771
0.513349
0.458753
0.406252
0.358332
0.317402
0.286944
0.275652
0.298747
0.358991
0.435346
0.50808
0.570264
0.621248
0.662071
0.694067
0.718516
0.736549
0.749135
0.757074
0.761022
0.761516
0.75901
0.753876
0.746408
0.736814
0.725225
0.711685
0.696095
0.678166
0.657484
0.633731
0.607091
0.578552
0.549935
0.523671
0.50228
0.487351
0.478618
0.473939
0.470076
0.462203
0.444765
0.415373
0.375312
0.328573
0.280541
0.236638
0.200639
0.173685
0.154914
0.142877
0.136427
0.134886
0.137815
0.1441
0.150751
0.157232
0.164604
0.172307
0.164924
0.164048
0.163267
0.162697
0.162484
0.1628
0.16382
0.165679
0.168471
0.17242
0.178145
0.186249
0.197408
0.212305
0.23154
0.255545
0.284423
0.317619
0.353473
0.389488
0.422663
0.45177
0.475233
0.491772
0.503781
0.515848
0.532036
0.553578
0.578306
0.60212
0.621101
0.632781
0.636121
0.630597
0.619567
0.603373
0.582354
0.556741
0.526739
0.492711
0.455404
0.41608
0.37647
0.338521
0.304096
0.274937
0.25374
0.247701
0.270131
0.324996
0.395371
0.463832
0.523638
0.57376
0.614849
0.647929
0.674041
0.69416
0.709151
0.719762
0.726616
0.730227
0.731021
0.729333
0.725413
0.719426
0.71146
0.701523
0.689487
0.675018
0.657603
0.636724
0.612193
0.584523
0.555148
0.526419
0.501343
0.482403
0.469891
0.461489
0.453555
0.441727
0.421557
0.391001
0.351379
0.306684
0.262106
0.222458
0.190702
0.167397
0.151475
0.141451
0.13619
0.135116
0.137977
0.143411
0.148826
0.153771
0.159375
0.165322
0.166903
0.165982
0.165067
0.164194
0.163404
0.162752
0.162305
0.162136
0.162309
0.162913
0.164124
0.166151
0.169246
0.173689
0.179752
0.187653
0.197461
0.208954
0.221465
0.234008
0.245696
0.256783
0.266435
0.274229
0.281134
0.289255
0.300997
0.317969
0.339963
0.364837
0.389418
0.410676
0.426337
0.436455
0.441634
0.441373
0.43554
0.42426
0.407907
0.387144
0.362974
0.336725
0.309932
0.284144
0.260735
0.240951
0.226822
0.224038
0.243971
0.292095
0.355872
0.419849
0.477145
0.526259
0.567463
0.601487
0.629146
0.651239
0.668514
0.681644
0.691211
0.697703
0.701524
0.702987
0.702314
0.699645
0.695043
0.688499
0.679878
0.668839
0.654827
0.637214
0.615537
0.589836
0.560987
0.53091
0.502713
0.479725
0.463219
0.451194
0.439521
0.423835
0.400884
0.369241
0.330322
0.28794
0.246853
0.211176
0.183156
0.162939
0.149357
0.140951
0.136626
0.135895
0.138627
0.143287
0.147623
0.151211
0.155128
0.159283
0.168814
0.167929
0.167036
0.166145
0.165275
0.164443
0.163674
0.163
0.162455
0.162083
0.161945
0.16212
0.162702
0.163797
0.16551
0.167922
0.171055
0.174821
0.178973
0.183138
0.187022
0.190762
0.194119
0.197056
0.200029
0.204003
0.210274
0.220084
0.233972
0.251282
0.27027
0.288699
0.30444
0.317667
0.327324
0.332696
0.333421
0.329477
0.321162
0.309084
0.294132
0.277403
0.260086
0.243306
0.228007
0.215039
0.205846
0.204671
0.220828
0.261141
0.31765
0.37685
0.431472
0.479408
0.52053
0.555293
0.584298
0.608174
0.627539
0.642977
0.655017
0.664117
0.670659
0.674945
0.677183
0.677503
0.675957
0.672533
0.667106
0.659349
0.648714
0.634528
0.616169
0.593314
0.566278
0.536343
0.506213
0.479586
0.458794
0.442763
0.427389
0.408147
0.38267
0.350165
0.312176
0.272237
0.234539
0.202478
0.177701
0.160069
0.148395
0.141283
0.137695
0.137207
0.139746
0.143678
0.147053
0.149473
0.151923
0.154391
0.170352
0.169521
0.168679
0.167831
0.166985
0.166147
0.165328
0.164541
0.163803
0.163134
0.162559
0.162109
0.161824
0.161744
0.161913
0.162365
0.163115
0.164136
0.165349
0.166622
0.16784
0.169028
0.170133
0.171194
0.172452
0.174395
0.177751
0.183347
0.191749
0.202845
0.215717
0.228922
0.241139
0.251904
0.260325
0.265779
0.267922
0.266693
0.2623
0.255196
0.246032
0.23559
0.224681
0.21404
0.204274
0.195929
0.189967
0.189323
0.201157
0.232982
0.281441
0.33537
0.387054
0.433609
0.474434
0.509701
0.539813
0.56524
0.586467
0.603979
0.618238
0.629665
0.638623
0.645404
0.650219
0.653197
0.654396
0.653807
0.651326
0.646661
0.639287
0.628528
0.613676
0.594169
0.569881
0.541474
0.510963
0.481819
0.457035
0.436641
0.417202
0.394475
0.366758
0.333693
0.296847
0.259392
0.224896
0.196077
0.174086
0.158606
0.148479
0.142396
0.139381
0.139044
0.141328
0.144555
0.147051
0.148451
0.149671
0.150676
0.171529
0.170748
0.169956
0.169157
0.168353
0.167549
0.16675
0.165962
0.165194
0.164452
0.163748
0.163094
0.162506
0.162001
0.161594
0.161303
0.161135
0.161088
0.16114
0.161253
0.161386
0.161543
0.16172
0.161953
0.162374
0.163247
0.164996
0.168156
0.173183
0.180153
0.188579
0.197534
0.206226
0.213995
0.220193
0.224371
0.226295
0.225936
0.223455
0.219174
0.213541
0.207071
0.200272
0.193599
0.187422
0.182079
0.178167
0.177545
0.185255
0.208497
0.248072
0.295955
0.344246
0.389135
0.429416
0.464937
0.495901
0.522627
0.545476
0.564827
0.581063
0.594556
0.605645
0.614615
0.621683
0.626993
0.630616
0.632559
0.632746
0.630935
0.626653
0.619237
0.607943
0.59205
0.571104
0.545262
0.515813
0.485622
0.45782
0.433262
0.409428
0.383008
0.353154
0.319749
0.284194
0.24919
0.217664
0.191717
0.172112
0.158419
0.149544
0.144273
0.141687
0.141406
0.143361
0.145886
0.147556
0.148049
0.148231
0.148025
0.172385
0.171647
0.1709
0.170146
0.169386
0.168622
0.167859
0.167098
0.166344
0.165599
0.164868
0.164156
0.163469
0.162813
0.162195
0.16162
0.161093
0.160617
0.160187
0.159798
0.159439
0.159117
0.15884
0.158633
0.158568
0.158786
0.159527
0.161123
0.163907
0.168023
0.173264
0.1791
0.185009
0.190386
0.194741
0.197748
0.199246
0.199228
0.197816
0.195237
0.191788
0.187797
0.183577
0.179404
0.175506
0.172085
0.169482
0.168772
0.173142
0.188504
0.218576
0.259319
0.303463
0.346245
0.385673
0.42117
0.452711
0.480469
0.504686
0.525637
0.543622
0.55895
0.571925
0.582821
0.591862
0.599208
0.604953
0.609124
0.611681
0.612442
0.611006
0.60676
0.598956
0.586782
0.569542
0.546985
0.519749
0.489955
0.460477
0.432588
0.404496
0.374167
0.342072
0.308359
0.274111
0.241439
0.212619
0.189201
0.171636
0.159431
0.151567
0.146925
0.144636
0.144312
0.14585
0.147648
0.148517
0.148183
0.147475
0.146275
0.173
0.172297
0.171587
0.170869
0.170146
0.169419
0.168689
0.167959
0.167231
0.166504
0.165782
0.165066
0.164358
0.163659
0.162972
0.162299
0.161641
0.161001
0.16038
0.15978
0.159204
0.158656
0.158147
0.157694
0.157333
0.157138
0.157236
0.157816
0.159096
0.161223
0.16416
0.167686
0.171439
0.174986
0.177954
0.180082
0.181238
0.181407
0.180667
0.179168
0.177101
0.17467
0.172072
0.16948
0.167032
0.164849
0.163112
0.162386
0.164468
0.173463
0.194128
0.226496
0.265323
0.305282
0.343422
0.37857
0.410393
0.438898
0.464213
0.486518
0.506026
0.522975
0.537621
0.550218
0.56099
0.570116
0.577711
0.583834
0.588475
0.591514
0.592633
0.591301
0.586804
0.5783
0.56494
0.546141
0.521989
0.493844
0.464093
0.434114
0.402501
0.368354
0.333856
0.29968
0.266584
0.236027
0.209617
0.188404
0.172583
0.161618
0.154565
0.15039
0.148265
0.147784
0.148805
0.149828
0.149889
0.148777
0.147293
0.145272
0.173416
0.172741
0.172059
0.171372
0.170679
0.169982
0.169282
0.168581
0.167878
0.167174
0.166471
0.165768
0.165065
0.164363
0.163663
0.162963
0.162266
0.161573
0.160885
0.160206
0.159541
0.158894
0.158275
0.157692
0.157164
0.156727
0.156442
0.156409
0.156753
0.157587
0.158951
0.160783
0.162894
0.165019
0.166898
0.168325
0.16918
0.169426
0.169097
0.168277
0.167081
0.165637
0.164068
0.162482
0.160966
0.15959
0.158444
0.157798
0.15856
0.163148
0.175648
0.198855
0.230824
0.266805
0.302973
0.337339
0.369111
0.398061
0.424192
0.447592
0.468392
0.486756
0.502881
0.516985
0.529283
0.539963
0.549169
0.556988
0.563447
0.568479
0.571853
0.57313
0.571669
0.566654
0.557164
0.542379
0.521931
0.496464
0.467752
0.437072
0.403162
0.365772
0.328854
0.29397
0.261726
0.232957
0.208623
0.189302
0.174958
0.165017
0.158592
0.154725
0.152622
0.151851
0.152234
0.152414
0.151638
0.149766
0.147583
0.144872
0.173696
0.173042
0.172382
0.171717
0.171048
0.170375
0.169698
0.169019
0.168338
0.167655
0.166971
0.166285
0.165596
0.164905
0.164211
0.163514
0.162814
0.162112
0.16141
0.160711
0.160018
0.159336
0.15867
0.158025
0.15741
0.156841
0.156347
0.155975
0.155791
0.155864
0.156249
0.156944
0.15788
0.158928
0.159935
0.160758
0.161296
0.161499
0.161365
0.160932
0.160259
0.159422
0.158495
0.157545
0.156624
0.155772
0.15503
0.154515
0.154641
0.15664
0.163183
0.177704
0.201424
0.231788
0.264863
0.297781
0.329072
0.358133
0.384781
0.409001
0.430849
0.450419
0.46784
0.483282
0.496932
0.508979
0.519585
0.528869
0.536895
0.543649
0.54898
0.552545
0.553798
0.551992
0.546207
0.535485
0.519118
0.497128
0.470616
0.440612
0.405896
0.366343
0.327307
0.291525
0.259759
0.232371
0.209729
0.191974
0.178844
0.169712
0.163727
0.159993
0.15775
0.156536
0.156139
0.155387
0.153731
0.151093
0.148257
0.144952
0.173869
0.17323
0.172587
0.171939
0.171287
0.170631
0.169973
0.169312
0.168649
0.167983
0.167315
0.166644
0.16597
0.165293
0.164612
0.163926
0.163235
0.162541
0.161844
0.161146
0.160452
0.159763
0.159083
0.158414
0.15776
0.157128
0.156529
0.155986
0.15553
0.1552
0.155034
0.155048
0.155231
0.155534
0.155884
0.1562
0.156414
0.156479
0.156376
0.156113
0.155716
0.155223
0.154673
0.154106
0.153551
0.153027
0.15255
0.152165
0.152042
0.152737
0.155672
0.163435
0.178684
0.201735
0.230063
0.260442
0.290596
0.319339
0.34617
0.370918
0.393553
0.414101
0.432631
0.44925
0.464104
0.477363
0.489195
0.499743
0.509108
0.517326
0.524322
0.529852
0.533472
0.534531
0.532167
0.525378
0.513236
0.495274
0.471932
0.443877
0.409919
0.36968
0.32924
0.292582
0.260957
0.234506
0.213133
0.196584
0.184375
0.175805
0.17004
0.166236
0.163667
0.161831
0.160493
0.158712
0.156124
0.152707
0.149242
0.145408
0.173977
0.173349
0.172717
0.172081
0.171442
0.170799
0.170154
0.169506
0.168855
0.168202
0.167547
0.166889
0.166228
0.165563
0.164893
0.16422
0.163541
0.162859
0.162173
0.161485
0.160798
0.160114
0.159433
0.158758
0.15809
0.157431
0.156786
0.156163
0.155579
0.155052
0.154604
0.154254
0.154005
0.153848
0.153756
0.153693
0.153622
0.153511
0.153342
0.153109
0.15282
0.152489
0.152135
0.151776
0.151425
0.151089
0.150771
0.150483
0.150286
0.150406
0.151495
0.155013
0.16329
0.178356
0.20012
0.226316
0.254252
0.282022
0.308608
0.333554
0.356692
0.377972
0.397401
0.415028
0.430944
0.445283
0.458199
0.469845
0.480352
0.489801
0.498186
0.505361
0.510991
0.514534
0.515225
0.512095
0.50411
0.490464
0.471018
0.446009
0.414294
0.375074
0.334358
0.297169
0.265508
0.239591
0.219043
0.203298
0.191666
0.183359
0.177543
0.173418
0.170294
0.16766
0.165221
0.162323
0.158758
0.154547
0.150466
0.146152
0.174039
0.173418
0.172793
0.172165
0.171534
0.170901
0.170264
0.169625
0.168984
0.16834
0.167694
0.167045
0.166393
0.165738
0.165079
0.164416
0.163748
0.163077
0.162402
0.161725
0.161048
0.160371
0.159695
0.159022
0.158351
0.157683
0.15702
0.156365
0.155725
0.15511
0.154532
0.154004
0.153533
0.153122
0.152767
0.152456
0.152173
0.151903
0.151634
0.151361
0.151081
0.150799
0.150521
0.150252
0.149996
0.149752
0.149515
0.149282
0.149069
0.14896
0.149221
0.150535
0.154294
0.162524
0.176828
0.196996
0.221084
0.246798
0.272474
0.297185
0.320497
0.342233
0.362327
0.38077
0.397596
0.412888
0.426767
0.439378
0.450865
0.461345
0.470872
0.479389
0.486673
0.492302
0.495631
0.49578
0.491705
0.4824
0.467275
0.44615
0.417951
0.381481
0.341939
0.304931
0.273311
0.24765
0.227513
0.212144
0.200696
0.192302
0.186122
0.181388
0.177453
0.173823
0.170189
0.166123
0.161553
0.15654
0.151856
0.147099
0.174076
0.173459
0.17284
0.172217
0.171592
0.170964
0.170333
0.1697
0.169065
0.168427
0.167787
0.167145
0.1665
0.165852
0.1652
0.164545
0.163886
0.163223
0.162557
0.16189
0.16122
0.16055
0.159881
0.159211
0.158542
0.157874
0.157206
0.15654
0.155879
0.155229
0.154596
0.153988
0.153412
0.152875
0.152378
0.151922
0.151502
0.151115
0.150755
0.15042
0.150106
0.149814
0.149543
0.149294
0.149064
0.148848
0.148638
0.148424
0.148206
0.148007
0.147927
0.148248
0.149635
0.15335
0.161135
0.174324
0.192746
0.21478
0.238444
0.262235
0.285277
0.307138
0.327627
0.346662
0.36422
0.380325
0.395052
0.408515
0.420852
0.4322
0.442659
0.452247
0.460847
0.468164
0.473687
0.476666
0.476117
0.470949
0.460257
0.443524
0.419763
0.387557
0.350778
0.314989
0.283788
0.258297
0.238254
0.222864
0.211202
0.202359
0.1955
0.189891
0.184929
0.180158
0.175265
0.170003
0.164414
0.158596
0.153324
0.148167
0.174096
0.173482
0.172865
0.172246
0.171624
0.170999
0.170372
0.169743
0.169112
0.168478
0.167842
0.167204
0.166563
0.16592
0.165273
0.164623
0.16397
0.163314
0.162655
0.161994
0.161331
0.160667
0.160002
0.159337
0.158671
0.158004
0.157337
0.156669
0.156003
0.155341
0.154688
0.154049
0.153429
0.152833
0.152267
0.151734
0.151236
0.150773
0.150345
0.149953
0.149594
0.149268
0.148974
0.148708
0.148467
0.148242
0.148026
0.147806
0.147576
0.147337
0.147121
0.147035
0.147353
0.148688
0.152148
0.159228
0.171095
0.187697
0.207726
0.229462
0.251516
0.273037
0.293581
0.312939
0.331012
0.347764
0.363209
0.377416
0.390495
0.402579
0.413797
0.424226
0.433841
0.442467
0.449738
0.455053
0.457549
0.456136
0.449732
0.43755
0.4187
0.391808
0.359261
0.325919
0.295797
0.270638
0.250539
0.234837
0.222634
0.213036
0.205241
0.198562
0.192442
0.186452
0.180278
0.173816
0.167207
0.160595
0.154766
0.149265
0.174108
0.173496
0.172881
0.172264
0.171644
0.171021
0.170396
0.16977
0.169141
0.168509
0.167876
0.16724
0.166602
0.165962
0.165318
0.164672
0.164023
0.163371
0.162716
0.162059
0.161401
0.160741
0.16008
0.159418
0.158754
0.15809
0.157425
0.156759
0.156093
0.15543
0.154771
0.154121
0.153484
0.152865
0.152267
0.151696
0.151155
0.150647
0.150174
0.149738
0.149338
0.148975
0.148647
0.14835
0.148081
0.147831
0.147591
0.147352
0.147103
0.146838
0.146564
0.146316
0.1462
0.146468
0.14766
0.150726
0.156946
0.167379
0.182127
0.200186
0.22007
0.240487
0.260589
0.279914
0.298227
0.315413
0.331419
0.346251
0.359968
0.372679
0.384517
0.395598
0.405971
0.415568
0.424157
0.431297
0.436283
0.438125
0.435675
0.427928
0.414035
0.392894
0.365637
0.335946
0.307764
0.283347
0.263268
0.247144
0.234219
0.223687
0.214814
0.206975
0.199654
0.192439
0.185003
0.177359
0.169749
0.162383
0.156058
0.150298
0.174115
0.173504
0.17289
0.172273
0.171655
0.171033
0.17041
0.169784
0.169157
0.168527
0.167895
0.16726
0.166624
0.165985
0.165343
0.164699
0.164053
0.163403
0.162752
0.162098
0.161442
0.160785
0.160126
0.159466
0.158805
0.158143
0.15748
0.156816
0.156153
0.155491
0.154832
0.15418
0.153538
0.15291
0.152299
0.151711
0.151147
0.150613
0.150111
0.149643
0.149211
0.148815
0.148453
0.148124
0.147821
0.14754
0.147271
0.147006
0.146734
0.146447
0.146142
0.145829
0.145543
0.145382
0.145568
0.146559
0.149153
0.154439
0.163396
0.17628
0.192386
0.21046
0.229296
0.248046
0.266217
0.283548
0.299901
0.315206
0.329454
0.342696
0.35504