/*--------------------------------*- C++ -*----------------------------------*\
| =========                 |                                                 |
| \\      /  F ield         | OpenFOAM: The Open Source CFD Toolbox           |
|  \\    /   O peration     | Version:  4.1                                   |
|   \\  /    A nd           | Web:      www.OpenFOAM.org                      |
|    \\/     M anipulation  |                                                 |
\*---------------------------------------------------------------------------*/
FoamFile
{
    version     2.0;
    format      ascii;
    class       volScalarField;
    location    "200";
    object      nut;
}
// * * * * * * * * * * * * * * * * * * * * * * * * * * * * * * * * * * * * * //

dimensions      [0 2 -1 0 0 0 0];

internalField   nonuniform List<scalar> 
6820
(
4.53774e-05
4.96674e-05
5.35596e-05
5.70331e-05
6.00874e-05
6.27332e-05
6.49896e-05
6.6883e-05
6.84456e-05
6.97124e-05
7.07188e-05
7.1499e-05
7.20854e-05
7.25071e-05
7.27905e-05
7.29587e-05
7.30318e-05
7.30273e-05
7.29597e-05
7.28418e-05
7.26841e-05
7.24954e-05
7.2283e-05
7.2053e-05
7.18104e-05
7.15591e-05
7.13022e-05
7.10422e-05
7.07806e-05
7.05186e-05
7.0256e-05
6.99977e-05
6.98481e-05
0.000389005
0.000214806
0.000161974
0.00013458
0.000117086
0.000104845
9.58769e-05
8.91241e-05
8.39539e-05
7.99593e-05
7.68621e-05
7.44636e-05
7.26173e-05
7.12132e-05
7.0167e-05
6.94135e-05
6.89013e-05
6.85896e-05
6.84454e-05
6.84422e-05
6.85583e-05
6.87755e-05
6.90786e-05
6.94547e-05
6.98927e-05
7.03829e-05
7.09169e-05
7.14869e-05
7.20862e-05
7.27059e-05
7.33468e-05
7.39765e-05
7.50199e-05
0.000867009
0.000638271
0.000507687
0.000428078
0.000375009
0.00033691
0.000308042
0.000285288
0.000266805
0.000251433
0.000238407
0.000227204
0.000217454
0.000208888
0.000201304
0.000194549
0.000188504
0.000183076
0.000178187
0.000173779
0.000169783
0.000166093
0.000162672
0.000159495
0.000156546
0.000153807
0.000151266
0.00014891
0.000146731
0.000144721
0.00014288
0.000141212
0.000139858
0.000991214
0.000902163
0.000807375
0.000726617
0.000661857
0.000610168
0.000568422
0.000534156
0.000505557
0.000481321
0.000460504
0.000442406
0.000426504
0.0004124
0.000399787
0.000388428
0.000378136
0.000368764
0.000360191
0.000352321
0.000345077
0.000338356
0.000332089
0.000326225
0.000320724
0.000315555
0.000310692
0.000306116
0.000301814
0.000297779
0.000294009
0.000290522
0.000287337
0.00101005
0.000987389
0.000948625
0.000902915
0.000857081
0.000814438
0.000776073
0.000742008
0.000711856
0.000685131
0.000661358
0.000640116
0.000621041
0.000603827
0.000588219
0.000574003
0.000561002
0.000549064
0.000538066
0.0005279
0.000518477
0.000509718
0.000501549
0.00049391
0.000486746
0.000480011
0.000473667
0.000467678
0.000462016
0.000456656
0.000451575
0.000446755
0.000442143
0.00101185
0.00100724
0.000995356
0.000976942
0.00095412
0.000929117
0.000903658
0.000878801
0.0008551
0.000832807
0.000812004
0.000792673
0.000774743
0.000758121
0.000742702
0.000728385
0.000715073
0.000702676
0.000691111
0.000680303
0.000670186
0.0006607
0.000651788
0.0006434
0.000635493
0.000628023
0.000620955
0.000614253
0.000607885
0.000601819
0.000596022
0.00059046
0.000585031
0.00101178
0.00101089
0.00100777
0.00100182
0.000992904
0.000981471
0.000968242
0.000953921
0.000939074
0.00092412
0.000909351
0.000894958
0.00088106
0.000867722
0.000854978
0.000842835
0.000831287
0.000820318
0.000809903
0.000800017
0.000790633
0.000781715
0.000773237
0.000765172
0.000757495
0.00075018
0.000743203
0.00073654
0.000730166
0.000724056
0.000718181
0.000712509
0.000706928
0.00101168
0.00101136
0.00101047
0.00100868
0.00100565
0.0010012
0.000995411
0.000988493
0.000980691
0.000972246
0.000963376
0.000954267
0.000945062
0.000935877
0.000926794
0.000917876
0.000909168
0.000900699
0.000892488
0.000884546
0.000876878
0.000869483
0.000862356
0.000855491
0.00084888
0.000842514
0.000836382
0.000830472
0.000824769
0.000819259
0.000813923
0.000808736
0.000803589
0.00101165
0.00101137
0.00101095
0.0010103
0.00100928
0.00100768
0.00100543
0.0010025
0.00099894
0.000994802
0.000990178
0.000985161
0.00097984
0.000974299
0.00096861
0.000962834
0.000957022
0.000951217
0.00094545
0.000939747
0.000934128
0.00092861
0.000923202
0.000917914
0.00091275
0.000907712
0.000902801
0.000898014
0.000893348
0.000888797
0.000884351
0.000879991
0.000875616
0.00101164
0.00101135
0.00101102
0.00101063
0.00101016
0.00100951
0.0010086
0.00100738
0.00100583
0.00100394
0.00100172
0.0009992
0.000996409
0.000993382
0.000990159
0.000986774
0.000983264
0.000979659
0.000975986
0.00097227
0.000968531
0.000964788
0.000961054
0.000957343
0.000953663
0.000950022
0.000946425
0.000942876
0.000939377
0.000935928
0.000932524
0.000929153
0.000925719
0.00101163
0.00101134
0.00101102
0.0010107
0.00101036
0.00100998
0.00100952
0.00100894
0.00100823
0.00100736
0.00100632
0.00100511
0.00100373
0.00100218
0.00100049
0.000998655
0.000996698
0.000994634
0.000992479
0.000990246
0.000987951
0.000985606
0.000983223
0.000980811
0.000978381
0.000975938
0.00097349
0.000971041
0.000968596
0.000966156
0.000963721
0.000961279
0.000958741
0.00101163
0.00101134
0.00101103
0.00101072
0.00101041
0.0010101
0.00100976
0.00100939
0.00100897
0.00100849
0.00100793
0.0010073
0.00100658
0.00100577
0.00100487
0.00100388
0.00100281
0.00100167
0.00100045
0.000999161
0.000997816
0.000996419
0.000994976
0.000993492
0.000991975
0.000990428
0.000988857
0.000987264
0.000985654
0.000984029
0.000982389
0.000980722
0.000978943
0.00101163
0.00101133
0.00101104
0.00101073
0.00101043
0.00101014
0.00100984
0.00100953
0.0010092
0.00100886
0.00100849
0.00100809
0.00100766
0.00100719
0.00100667
0.00100611
0.0010055
0.00100485
0.00100416
0.00100342
0.00100264
0.00100182
0.00100096
0.00100007
0.000999154
0.000998205
0.000997229
0.000996229
0.000995207
0.000994163
0.000993097
0.000991998
0.000990782
0.00101163
0.00101133
0.00101104
0.00101074
0.00101045
0.00101016
0.00100987
0.00100958
0.00100929
0.00100899
0.00100868
0.00100837
0.00100804
0.0010077
0.00100734
0.00100696
0.00100656
0.00100614
0.0010057
0.00100523
0.00100474
0.00100423
0.0010037
0.00100315
0.00100257
0.00100197
0.00100136
0.00100073
0.00100007
0.000999403
0.000998714
0.000997994
0.000997159
0.00101163
0.00101133
0.00101104
0.00101075
0.00101046
0.00101018
0.00100989
0.00100961
0.00100933
0.00100905
0.00100876
0.00100848
0.00100819
0.0010079
0.00100761
0.00100731
0.001007
0.00100669
0.00100637
0.00100603
0.00100569
0.00100534
0.00100497
0.0010046
0.00100421
0.00100381
0.0010034
0.00100298
0.00100255
0.0010021
0.00100164
0.00100115
0.00100056
0.00101163
0.00101133
0.00101105
0.00101075
0.00101047
0.00101019
0.00100991
0.00100963
0.00100936
0.00100908
0.00100881
0.00100854
0.00100827
0.001008
0.00100773
0.00100746
0.00100719
0.00100691
0.00100664
0.00100636
0.00100608
0.0010058
0.00100551
0.00100522
0.00100492
0.00100462
0.00100431
0.001004
0.00100368
0.00100335
0.00100302
0.00100266
0.0010022
0.00101163
0.00101133
0.00101105
0.00101076
0.00101048
0.0010102
0.00100992
0.00100965
0.00100938
0.00100911
0.00100884
0.00100857
0.00100831
0.00100805
0.00100779
0.00100754
0.00100728
0.00100703
0.00100678
0.00100653
0.00100628
0.00100603
0.00100578
0.00100553
0.00100528
0.00100503
0.00100477
0.00100452
0.00100426
0.001004
0.00100373
0.00100345
0.00100306
0.00101163
0.00101133
0.00101105
0.00101076
0.00101048
0.00101021
0.00100993
0.00100966
0.00100939
0.00100913
0.00100886
0.0010086
0.00100834
0.00100809
0.00100784
0.00100759
0.00100734
0.0010071
0.00100686
0.00100662
0.00100638
0.00100615
0.00100591
0.00100568
0.00100545
0.00100522
0.00100499
0.00100476
0.00100453
0.0010043
0.00100407
0.00100382
0.00100348
0.00101163
0.00101133
0.00101105
0.00101077
0.00101049
0.00101021
0.00100994
0.00100967
0.00100941
0.00100914
0.00100888
0.00100863
0.00100837
0.00100812
0.00100787
0.00100763
0.00100739
0.00100715
0.00100691
0.00100668
0.00100645
0.00100623
0.001006
0.00100578
0.00100556
0.00100534
0.00100513
0.00100491
0.0010047
0.00100449
0.00100428
0.00100405
0.00100373
0.00101163
0.00101133
0.00101105
0.00101077
0.00101049
0.00101022
0.00100995
0.00100968
0.00100942
0.00100916
0.0010089
0.00100865
0.0010084
0.00100815
0.0010079
0.00100766
0.00100742
0.00100719
0.00100696
0.00100673
0.00100651
0.00100628
0.00100606
0.00100585
0.00100564
0.00100543
0.00100522
0.00100501
0.00100481
0.00100461
0.0010044
0.00100419
0.00100388
0.00101163
0.00101133
0.00101105
0.00101077
0.0010105
0.00101022
0.00100996
0.00100969
0.00100943
0.00100917
0.00100892
0.00100866
0.00100842
0.00100817
0.00100793
0.00100769
0.00100745
0.00100722
0.001007
0.00100677
0.00100655
0.00100633
0.00100612
0.00100591
0.0010057
0.00100549
0.00100529
0.00100509
0.00100489
0.0010047
0.0010045
0.0010043
0.001004
0.00101163
0.00101133
0.00101105
0.00101077
0.0010105
0.00101023
0.00100996
0.0010097
0.00100944
0.00100918
0.00100893
0.00100868
0.00100843
0.00100819
0.00100795
0.00100771
0.00100748
0.00100725
0.00100703
0.00100681
0.00100659
0.00100637
0.00100616
0.00100595
0.00100575
0.00100555
0.00100535
0.00100515
0.00100496
0.00100477
0.00100458
0.00100438
0.00100408
0.00101163
0.00101133
0.00101105
0.00101077
0.0010105
0.00101023
0.00100997
0.0010097
0.00100945
0.00100919
0.00100894
0.00100869
0.00100845
0.0010082
0.00100797
0.00100773
0.0010075
0.00100728
0.00100705
0.00100683
0.00100662
0.00100641
0.0010062
0.00100599
0.00100579
0.00100559
0.00100539
0.0010052
0.00100501
0.00100483
0.00100464
0.00100444
0.00100415
0.00101163
0.00101133
0.00101105
0.00101077
0.0010105
0.00101023
0.00100997
0.00100971
0.00100945
0.0010092
0.00100895
0.0010087
0.00100846
0.00100822
0.00100798
0.00100775
0.00100752
0.0010073
0.00100707
0.00100686
0.00100664
0.00100643
0.00100623
0.00100602
0.00100582
0.00100563
0.00100543
0.00100525
0.00100506
0.00100488
0.00100469
0.0010045
0.00100421
0.00101163
0.00101133
0.00101105
0.00101077
0.0010105
0.00101023
0.00100997
0.00100971
0.00100945
0.0010092
0.00100895
0.00100871
0.00100846
0.00100823
0.00100799
0.00100776
0.00100753
0.00100731
0.00100709
0.00100687
0.00100666
0.00100645
0.00100624
0.00100604
0.00100584
0.00100565
0.00100546
0.00100527
0.00100508
0.0010049
0.00100472
0.00100453
0.00100424
0.00101163
0.00101133
0.00101105
0.00101077
0.0010105
0.00101023
0.00100997
0.00100971
0.00100946
0.0010092
0.00100895
0.00100871
0.00100847
0.00100823
0.001008
0.00100776
0.00100754
0.00100732
0.0010071
0.00100688
0.00100667
0.00100646
0.00100626
0.00100606
0.00100586
0.00100567
0.00100548
0.00100529
0.00100511
0.00100493
0.00100475
0.00100456
0.00100428
0.00101163
0.00101133
0.00101105
0.00101077
0.0010105
0.00101024
0.00100997
0.00100971
0.00100946
0.0010092
0.00100895
0.00100871
0.00100847
0.00100823
0.00100799
0.00100776
0.00100754
0.00100731
0.00100709
0.00100688
0.00100666
0.00100646
0.00100625
0.00100605
0.00100585
0.00100566
0.00100547
0.00100528
0.0010051
0.00100492
0.00100474
0.00100454
0.00100426
0.00101163
0.00101133
0.00101105
0.00101077
0.0010105
0.00101023
0.00100997
0.00100971
0.00100945
0.0010092
0.00100895
0.00100871
0.00100847
0.00100823
0.00100799
0.00100776
0.00100754
0.00100731
0.0010071
0.00100688
0.00100667
0.00100646
0.00100626
0.00100606
0.00100586
0.00100567
0.00100548
0.0010053
0.00100512
0.00100494
0.00100476
0.00100457
0.00100429
0.00101163
0.00101133
0.00101105
0.00101077
0.0010105
0.00101023
0.00100997
0.00100971
0.00100945
0.0010092
0.00100894
0.0010087
0.00100845
0.00100821
0.00100797
0.00100774
0.00100751
0.00100728
0.00100706
0.00100684
0.00100663
0.00100641
0.00100621
0.001006
0.0010058
0.00100561
0.00100541
0.00100522
0.00100504
0.00100486
0.00100468
0.00100448
0.0010042
0.00101163
0.00101133
0.00101105
0.00101077
0.0010105
0.00101023
0.00100997
0.0010097
0.00100945
0.00100919
0.00100894
0.00100869
0.00100845
0.00100821
0.00100798
0.00100775
0.00100752
0.0010073
0.00100707
0.00100686
0.00100664
0.00100643
0.00100623
0.00100603
0.00100583
0.00100563
0.00100544
0.00100525
0.00100506
0.00100488
0.0010047
0.0010045
0.00100422
0.00101163
0.00101133
0.00101105
0.00101077
0.0010105
0.00101023
0.00100996
0.00100969
0.00100943
0.00100917
0.00100891
0.00100866
0.00100841
0.00100816
0.00100791
0.00100767
0.00100744
0.0010072
0.00100697
0.00100674
0.00100652
0.0010063
0.00100608
0.00100587
0.00100566
0.00100545
0.00100525
0.00100505
0.00100485
0.00100466
0.00100446
0.00100426
0.00100396
0.00101163
0.00101133
0.00101105
0.00101077
0.00101049
0.00101022
0.00100996
0.0010097
0.00100944
0.00100918
0.00100893
0.00100868
0.00100844
0.00100819
0.00100795
0.00100771
0.00100747
0.00100723
0.001007
0.00100676
0.00100653
0.0010063
0.00100607
0.00100584
0.00100561
0.00100538
0.00100516
0.00100494
0.00100472
0.0010045
0.00100427
0.00100404
0.00100371
0.00101163
0.00101133
0.00101105
0.00101077
0.00101048
0.0010102
0.00100992
0.00100964
0.00100935
0.00100907
0.00100879
0.00100851
0.00100823
0.00100794
0.00100766
0.00100738
0.0010071
0.00100681
0.00100653
0.00100624
0.00100595
0.00100566
0.00100536
0.00100507
0.00100477
0.00100447
0.00100416
0.00100386
0.00100356
0.00100325
0.00100294
0.00100262
0.0010022
0.00101163
0.00101134
0.00101105
0.00101077
0.00101049
0.00101021
0.00100993
0.00100964
0.00100934
0.00100903
0.00100871
0.00100837
0.00100803
0.00100766
0.00100729
0.00100689
0.00100648
0.00100606
0.00100562
0.00100516
0.00100469
0.00100421
0.00100371
0.0010032
0.00100268
0.00100215
0.00100162
0.00100107
0.00100052
0.00099996
0.000999395
0.000998807
0.000998123
0.00101163
0.00101134
0.00101103
0.00101069
0.00101033
0.00100994
0.00100951
0.00100904
0.00100853
0.00100796
0.00100735
0.00100667
0.00100594
0.00100515
0.00100431
0.00100342
0.00100248
0.0010015
0.00100048
0.000999418
0.000998328
0.00099721
0.00099607
0.00099491
0.000993735
0.000992547
0.000991351
0.000990149
0.000988944
0.000987739
0.000986534
0.000985316
0.000984012
0.00101164
0.00101133
0.00101094
0.00101042
0.00100973
0.00100883
0.0010077
0.00100635
0.00100478
0.00100301
0.00100105
0.000998916
0.00099664
0.000994237
0.000991729
0.000989136
0.000986475
0.000983762
0.000981012
0.000978239
0.000975455
0.000972668
0.000969889
0.000967125
0.000964382
0.000961667
0.000958985
0.000956338
0.000953731
0.000951166
0.000948644
0.000946152
0.000943618
0.00101162
0.0010106
0.00100853
0.00100543
0.0010014
0.000996521
0.00099092
0.000984761
0.000978192
0.000971335
0.000964297
0.000957165
0.00095001
0.000942891
0.00093585
0.000928922
0.000922132
0.0009155
0.000909038
0.000902755
0.000896656
0.000890745
0.000885022
0.000879486
0.000874135
0.000868965
0.000863973
0.000859154
0.000854505
0.00085002
0.000845692
0.000841507
0.000837391
0.00100895
0.000995383
0.00097605
0.000953707
0.000930338
0.000907116
0.000884685
0.000863362
0.000843268
0.000824435
0.000806836
0.000790414
0.000775095
0.000760799
0.000747447
0.000734961
0.00072327
0.000712309
0.000702016
0.000692338
0.000683225
0.000674632
0.00066652
0.000658851
0.000651594
0.000644717
0.000638195
0.000632002
0.000626117
0.000620519
0.000615189
0.000610106
0.00060521
0.000892784
0.000742242
0.00064918
0.000585511
0.000538529
0.000502094
0.000472833
0.000448695
0.000428351
0.000410907
0.000395741
0.000382402
0.000370555
0.000359946
0.000350378
0.000341697
0.000333778
0.000326521
0.000319844
0.000313677
0.000307964
0.000302655
0.00029771
0.000293092
0.000288769
0.000284716
0.000280908
0.000277325
0.000273947
0.000270759
0.000267744
0.000264893
0.000262191
0.000126722
0.000129956
0.000133005
0.000135891
0.000138628
0.000141229
0.000143705
0.000146063
0.000148309
0.000150449
0.000152488
0.000154432
0.000156284
0.000158048
0.000159729
0.000161331
0.000162856
0.000164308
0.000165691
0.000167008
0.000168261
0.000169454
0.000170589
0.00017167
0.000172697
0.000173675
0.000174605
0.00017549
0.000176331
0.000177132
0.000177893
0.000178617
0.00017931
8.79487e-05
0.000125977
0.000166005
0.000206035
0.000241665
0.000273091
0.000301452
0.000328834
0.000356791
0.000385877
0.000416095
0.000447427
0.000480065
0.000514439
0.000551324
0.00059182
0.000636543
0.000683722
0.000727439
0.000761464
0.000783545
0.000794346
0.000794128
0.000786293
0.000773185
0.000755456
0.000732893
0.000706576
0.000679631
0.000655912
0.000638216
0.000627539
0.000623314
0.000623736
0.000625131
0.000624504
0.000622368
0.000618411
0.000611151
0.00059809
0.000576977
0.000547932
0.00051493
0.000485136
0.000466871
0.00046893
0.000506484
0.000630112
0.000997323
0.0018333
0.00297114
0.0038632
0.00431212
0.00443541
0.0043747
0.00422047
0.00402261
0.00380756
0.00358916
0.0033745
0.0031669
0.0029675
0.00277611
0.00259163
0.00241246
0.00223686
0.00206346
0.00189192
0.00172345
0.0015609
0.00140849
0.00126988
0.00114721
0.00104063
0.000956406
0.000895893
0.00085688
0.000835487
0.000828563
0.000831452
0.000834
0.000821983
0.000784663
0.000730482
0.000663749
0.000586217
0.000502581
0.000420243
0.000347119
0.000288875
0.000247973
0.000225066
0.000220789
0.000236455
0.000273467
0.000332203
0.000395899
0.000472807
0.000576238
0.0007459
7.85832e-05
8.67451e-05
0.000100505
0.000120214
0.000144328
0.000171819
0.000202143
0.000234072
0.000266389
0.00029712
0.00032711
0.000357647
0.000389971
0.000424927
0.000463058
0.00050494
0.000550765
0.000598352
0.000641413
0.000671781
0.000685998
0.00068685
0.000679579
0.000672828
0.000668031
0.000664073
0.000658206
0.000648202
0.000634264
0.00061873
0.000604459
0.00059353
0.000586796
0.000583439
0.000579879
0.000576633
0.000573521
0.000569593
0.000563111
0.00055198
0.000534974
0.000513276
0.000491074
0.000474646
0.00047097
0.00048793
0.000541247
0.00068723
0.00109766
0.00198118
0.00310174
0.00393433
0.00434076
0.00444591
0.00438115
0.0042291
0.00403562
0.0038253
0.00361126
0.0034003
0.00319571
0.00299868
0.00280907
0.00262589
0.00244766
0.00227278
0.00210002
0.00192898
0.00176059
0.00159729
0.00144287
0.00130139
0.00117601
0.00106739
0.000974031
0.000901171
0.000850933
0.000821501
0.000808653
0.000804079
0.000794462
0.000768162
0.000726288
0.000673683
0.000610348
0.000537377
0.000459781
0.000385172
0.000320906
0.000271708
0.000239232
0.000223097
0.000221865
0.000237159
0.000272008
0.000326831
0.000381922
0.000446831
0.000533989
0.000686659
0.000139317
0.000140931
0.000145027
0.000151269
0.000158009
0.00016421
0.000170854
0.000179733
0.000192941
0.000213698
0.000239437
0.000269509
0.000303484
0.000340897
0.000381266
0.000424253
0.000469134
0.000513266
0.000550889
0.000574381
0.000580371
0.000571671
0.00055885
0.000549467
0.000546023
0.000548381
0.000553994
0.000559066
0.000560869
0.000558939
0.000554615
0.000549813
0.000545975
0.000542796
0.000538774
0.000536154
0.000534312
0.000532145
0.000528094
0.000520679
0.000509551
0.000496491
0.000485536
0.000482154
0.000492353
0.000523279
0.000590663
0.000753704
0.00118784
0.00207878
0.00316302
0.00395518
0.00434518
0.00445117
0.00439433
0.00425189
0.00406752
0.00386512
0.00365766
0.00345204
0.00325171
0.00305802
0.002871
0.0026898
0.00251308
0.00233936
0.00216735
0.00199635
0.00182675
0.00166028
0.00150023
0.00135091
0.00121662
0.00110032
0.00100194
0.000918277
0.000854201
0.000812712
0.000791057
0.000778677
0.000758809
0.000720239
0.000675031
0.000623793
0.000563895
0.000495672
0.000424188
0.000357047
0.000301001
0.000259818
0.000234265
0.000223299
0.000225446
0.00024184
0.000274915
0.000321924
0.00036832
0.000421895
0.000492219
0.000622899
0.000284024
0.000281866
0.000281628
0.000283975
0.000288517
0.000292582
0.000292283
0.000285524
0.000273475
0.00026255
0.000260689
0.000268298
0.000284807
0.000309089
0.000339525
0.000374146
0.000410377
0.000444227
0.000469955
0.000481688
0.000477447
0.000461279
0.000444621
0.000431818
0.00042592
0.000428202
0.000437866
0.000451986
0.000466714
0.000479073
0.000487964
0.000493858
0.000497701
0.000498633
0.000500243
0.000502644
0.00050537
0.000507495
0.000507883
0.000505782
0.000501651
0.000497713
0.000497816
0.000506744
0.000529587
0.000572453
0.000650258
0.000822166
0.00125835
0.00212248
0.00315869
0.00392656
0.00432087
0.00444352
0.00440524
0.00427939
0.00410879
0.0039175
0.0037189
0.0035203
0.00332547
0.00313606
0.00295229
0.00277352
0.00259856
0.00242601
0.0022545
0.002083
0.00191129
0.00174042
0.00157311
0.00141376
0.00126746
0.00113863
0.00102986
0.000940104
0.000867089
0.00081412
0.000780774
0.000756328
0.000722813
0.000677622
0.000630205
0.000579965
0.000523268
0.000459884
0.000394627
0.000334734
0.000286217
0.000251998
0.000232294
0.000225912
0.000231206
0.000247863
0.000278518
0.000318486
0.00035722
0.000401242
0.000456981
0.000565372
0.00043662
0.00043124
0.000426405
0.000422807
0.000421006
0.000420998
0.000421821
0.000421416
0.000416822
0.000406752
0.000397004
0.00039018
0.000387911
0.000390926
0.000398999
0.000410909
0.000424266
0.000435161
0.000438768
0.000431063
0.000412058
0.000388917
0.00036753
0.000350368
0.000340205
0.000338852
0.000346827
0.000362872
0.000383877
0.000406015
0.000426294
0.000443274
0.000456679
0.000466428
0.000476457
0.000486307
0.000495395
0.000503002
0.000508549
0.000512095
0.000514843
0.000519342
0.000529217
0.000548586
0.000581522
0.00063277
0.000715537
0.000885494
0.00130009
0.00210773
0.00308755
0.00384372
0.00425968
0.00441363
0.0044047
0.00430302
0.00415146
0.00397496
0.00378783
0.0035981
0.00341009
0.00322585
0.00304591
0.00286984
0.00269666
0.00252506
0.00235363
0.00218109
0.00200673
0.001831
0.00165608
0.00148624
0.00132712
0.00118409
0.00106096
0.000959316
0.000877696
0.000814278
0.000766315
0.00072787
0.000687572
0.000639792
0.00059132
0.000541865
0.000488084
0.000429517
0.000370467
0.000317481
0.000275777
0.000247639
0.000232981
0.000230502
0.000238309
0.000254922
0.00028299
0.000316689
0.000348756
0.000384857
0.000428918
0.000517929
0.000578298
0.000571498
0.00056474
0.000558304
0.000552526
0.000547701
0.000544008
0.000541299
0.00053882
0.000535664
0.000532566
0.000530174
0.000528781
0.000528423
0.000528859
0.000529178
0.000527576
0.000521191
0.000506787
0.000481929
0.000448663
0.000417221
0.00038868
0.000364206
0.000346574
0.000337987
0.000339561
0.000351069
0.000370446
0.000394167
0.000418516
0.000440737
0.000459198
0.000475569
0.00049165
0.000506449
0.000519282
0.000529778
0.000538056
0.000544991
0.000552363
0.000562879
0.000579882
0.000606723
0.0006462
0.000701304
0.000782616
0.000938803
0.00130878
0.00203349
0.00294751
0.00369957
0.00415114
0.00435022
0.004382
0.00431314
0.00418693
0.0040298
0.00385744
0.00367897
0.00349949
0.00332163
0.00314631
0.00297342
0.00280221
0.00263151
0.00245997
0.00228616
0.00210905
0.0019286
0.00174648
0.00156664
0.00139488
0.00123731
0.00109885
0.00098252
0.000888002
0.000811997
0.000751069
0.000701753
0.000655748
0.000606589
0.000557821
0.000509145
0.000458075
0.000404211
0.000351209
0.000304722
0.00026917
0.00024635
0.00023599
0.000236688
0.000246329
0.000262843
0.000288258
0.000316456
0.000342817
0.000372297
0.000407075
0.000480614
0.00069992
0.000692824
0.000685702
0.000678627
0.00067181
0.000665433
0.000659699
0.00065479
0.000650743
0.000647507
0.000645219
0.000643898
0.00064353
0.000644019
0.000644987
0.000645598
0.000644365
0.000639017
0.000626776
0.000605203
0.000574963
0.000544284
0.000514471
0.000486827
0.000464214
0.000449582
0.000444967
0.000450893
0.000465685
0.000485686
0.00050667
0.000525339
0.00053938
0.000553049
0.000565421
0.000575993
0.000584602
0.000591497
0.000597457
0.000603894
0.000612647
0.000626334
0.000647688
0.000678786
0.000720717
0.00077453
0.000847778
0.000979693
0.0012864
0.00190513
0.00273926
0.00348756
0.00398452
0.00424141
0.00432578
0.00429947
0.00420614
0.00407398
0.00392053
0.00375636
0.00358767
0.0034178
0.00324826
0.00307935
0.00291062
0.00274114
0.00256966
0.00239478
0.00221528
0.00203078
0.00184252
0.00165395
0.00147067
0.00129916
0.00114528
0.00101336
0.000904306
0.000815098
0.000741936
0.000682027
0.000629331
0.000578155
0.000529249
0.000481424
0.000432934
0.000383596
0.000336386
0.000295957
0.000265948
0.000247765
0.000241008
0.000244187
0.000255087
0.000271389
0.000294116
0.000317506
0.000339068
0.000363131
0.000390528
0.000452196
0.000797016
0.000790421
0.000783777
0.000777109
0.000770531
0.000764142
0.000758066
0.000752457
0.000747457
0.000743195
0.000739799
0.000737354
0.000735747
0.000734944
0.000734786
0.000734882
0.000734484
0.000732375
0.000726867
0.000716125
0.000699395
0.000679663
0.000658435
0.000637394
0.00061925
0.000607014
0.000603418
0.000609959
0.000625336
0.000644969
0.00066299
0.000674874
0.000679915
0.00068274
0.00068352
0.00068271
0.000681047
0.000679537
0.000679487
0.00068252
0.000690721
0.000706223
0.000729505
0.000760974
0.000800324
0.00084735
0.00090699
0.0010082
0.00124155
0.00173705
0.0024705
0.00320452
0.00375007
0.00407518
0.00422413
0.00425122
0.00419959
0.00409924
0.00396985
0.00382386
0.00366884
0.00350916
0.00334705
0.00318334
0.00301801
0.00285044
0.00267958
0.00250415
0.00232291
0.00213528
0.00194215
0.00174647
0.0015534
0.00136935
0.00120082
0.00105323
0.000928862
0.000825767
0.000740332
0.000669725
0.000609254
0.00055476
0.000505359
0.000458394
0.000412377
0.000367322
0.000325556
0.00029072
0.000265698
0.000251557
0.000247784
0.000252865
0.000264583
0.000280452
0.000300445
0.000319561
0.000337052
0.000356754
0.000378415
0.000431224
0.000869891
0.000864236
0.000858508
0.000852737
0.000846965
0.000841268
0.000835728
0.000830447
0.000825533
0.000821087
0.000817191
0.000813808
0.000810967
0.000808679
0.000806899
0.000805489
0.000804159
0.000802415
0.000799521
0.000794561
0.000786813
0.000776802
0.000765151
0.000753202
0.000742854
0.000736516
0.00073696
0.000746553
0.000765344
0.000789373
0.000811578
0.000825094
0.000829308
0.000826639
0.000818927
0.000808407
0.000797272
0.000787545
0.000781087
0.000779678
0.000785269
0.00079862
0.000818815
0.000845227
0.000876861
0.000912913
0.000956248
0.00102615
0.00118717
0.00155282
0.00216073
0.0028555
0.00344168
0.00384045
0.00406485
0.00415688
0.00415713
0.00409682
0.00399788
0.00387492
0.00373728
0.00359064
0.00343817
0.00328142
0.00312089
0.00295637
0.0027871
0.00261204
0.00243003
0.0022404
0.00204376
0.0018426
0.00164154
0.00144673
0.00126494
0.00110231
0.000962448
0.000844821
0.000746587
0.000664969
0.000595895
0.000536733
0.000486134
0.000439893
0.000396207
0.000355114
0.000318358
0.000288627
0.00026808
0.000257457
0.000256161
0.000262676
0.0002748
0.000289913
0.00030709
0.000322399
0.000336391
0.000352554
0.000369847
0.000416282
0.000921048
0.000916551
0.000911966
0.000907313
0.000902622
0.000897939
0.000893322
0.000888832
0.000884535
0.000880488
0.000876748
0.000873252
0.000870019
0.000867069
0.000864399
0.000861971
0.000859694
0.000857406
0.000854844
0.000851613
0.00084727
0.000841882
0.000835825
0.00082977
0.000824773
0.000822378
0.000824725
0.000834231
0.000852244
0.000877051
0.0009031
0.000923418
0.0009351
0.000937062
0.000930785
0.000919128
0.000905272
0.000892146
0.000882224
0.000877603
0.000879869
0.000888108
0.000901619
0.000919641
0.000941083
0.000964998
0.000992806
0.00103601
0.00113589
0.00138015
0.00184287
0.00245987
0.00306182
0.00352958
0.00383639
0.0040044
0.00406771
0.00405717
0.00399653
0.00390272
0.00378717
0.00365721
0.00351727
0.0033698
0.00321597
0.00305608
0.0028898
0.00271638
0.00253486
0.00234459
0.00214595
0.00194098
0.00173374
0.00153002
0.00133662
0.00116008
0.00100509
0.0008726
0.00076095
0.000667828
0.000589473
0.000524452
0.000471745
0.000425901
0.000384332
0.000346822
0.000314572
0.00028943
0.00027287
0.000265312
0.000266068
0.000273604
0.000285715
0.000299691
0.000313939
0.00032583
0.000336799
0.000350054
0.000364014
0.000406066
0.000955091
0.000951722
0.000948259
0.000944716
0.000941121
0.000937496
0.000933882
0.000930318
0.000926843
0.000923495
0.000920259
0.000917117
0.000914076
0.000911146
0.00090833
0.00090562
0.000902994
0.000900414
0.000897808
0.000895034
0.000891882
0.000888369
0.000884727
0.0008813
0.000878628
0.000877562
0.000879428
0.000886018
0.000898973
0.000918414
0.000941733
0.000964587
0.000982632
0.000992794
0.00099455
0.000989482
0.000980302
0.000969973
0.000961229
0.000956212
0.000955298
0.000958282
0.00096494
0.000974727
0.000986788
0.00100034
0.00101597
0.00103981
0.00109536
0.00124123
0.00155682
0.00205477
0.00262837
0.0031435
0.00353056
0.00378224
0.00391954
0.00396961
0.00395667
0.00389962
0.00381216
0.00370358
0.00357989
0.00344471
0.00330006
0.00314689
0.00298539
0.00281522
0.00263572
0.00244634
0.00224733
0.00204032
0.00182879
0.00161808
0.00141482
0.00122577
0.00105641
0.000909089
0.000783554
0.00067839
0.00059018
0.000518322
0.000462515
0.000416538
0.000376772
0.000342426
0.000314144
0.000293052
0.00028001
0.000275104
0.000277518
0.000285664
0.000297307
0.000309687
0.000320852
0.000329682
0.00033804
0.000348909
0.000360319
0.000399499
0.00097617
0.000973776
0.000971294
0.000968733
0.000966111
0.000963451
0.000960772
0.000958102
0.000955462
0.000952874
0.000950327
0.000947783
0.000945244
0.000942718
0.000940208
0.000937717
0.000935244
0.000932793
0.000930342
0.000927798
0.000925119
0.000922383
0.000919721
0.000917313
0.00091542
0.000914462
0.000915142
0.00091852
0.000925826
0.000937832
0.00095407
0.000972723
0.000990674
0.00100488
0.00101355
0.00101652
0.00101504
0.0010111
0.00100684
0.00100325
0.00100117
0.00100112
0.00100327
0.00100737
0.00101294
0.00101948
0.00102718
0.00103902
0.00106694
0.00114469
0.0013345
0.00168911
0.00217954
0.00269876
0.00314764
0.00348222
0.00370136
0.00382269
0.00386797
0.00385687
0.00380499
0.00372377
0.00362109
0.00350205
0.00336976
0.003226
0.00307157
0.00290663
0.00273094
0.00254417
0.00234652
0.00213932
0.0019255
0.0017098
0.00149854
0.00129856
0.00111587
0.00095409
0.000814403
0.000696672
0.000598144
0.00051874
0.000458907
0.000412092
0.000373675
0.000342037
0.000317183
0.000299602
0.000289605
0.000286931
0.000290586
0.000298887
0.000309532
0.00031968
0.00032779
0.000333843
0.000339921
0.000348846
0.000358338
0.000395789
0.000988671
0.000987022
0.000985298
0.000983505
0.000981657
0.000979768
0.000977851
0.000975924
0.000974001
0.000972091
0.000970161
0.000968204
0.00096622
0.000964212
0.000962178
0.000960121
0.000958047
0.00095597
0.000953893
0.000951756
0.00094954
0.000947324
0.000945187
0.000943233
0.000941587
0.000940446
0.000940149
0.000941238
0.000944442
0.000950455
0.000959635