/*--------------------------------*- C++ -*----------------------------------*\
| =========                 |                                                 |
| \\      /  F ield         | OpenFOAM: The Open Source CFD Toolbox           |
|  \\    /   O peration     | Version:  4.1                                   |
|   \\  /    A nd           | Web:      www.OpenFOAM.org                      |
|    \\/     M anipulation  |                                                 |
\*---------------------------------------------------------------------------*/
FoamFile
{
    version     2.0;
    format      ascii;
    class       volScalarField;
    location    "200";
    object      p;
}
// * * * * * * * * * * * * * * * * * * * * * * * * * * * * * * * * * * * * * //

dimensions      [0 2 -2 0 0 0 0];

internalField   nonuniform List<scalar> 
6820
(
-7.25566
-7.51325
-7.61095
-7.63179
-7.6652
-7.71072
-7.75259
-7.78903
-7.82305
-7.85549
-7.8859
-7.91415
-7.9405
-7.96518
-7.98838
-8.01023
-8.03089
-8.05047
-8.0691
-8.08684
-8.10375
-8.11987
-8.13521
-8.14972
-8.16334
-8.17594
-8.18735
-8.19725
-8.20525
-8.21056
-8.21299
-8.20945
-8.21709
-7.36843
-7.53452
-7.61333
-7.63435
-7.66146
-7.69693
-7.72879
-7.75598
-7.78159
-7.80666
-7.83089
-7.85414
-7.87658
-7.89833
-7.91945
-7.93996
-7.95989
-7.97927
-7.99811
-8.01642
-8.03419
-8.05142
-8.06806
-8.08407
-8.09936
-8.11383
-8.12731
-8.13961
-8.15043
-8.15941
-8.16613
-8.17046
-8.17064
-7.42468
-7.52942
-7.60753
-7.63958
-7.66795
-7.70137
-7.73206
-7.75865
-7.78358
-7.80784
-7.8312
-7.85353
-7.87499
-7.89568
-7.91568
-7.93501
-7.95372
-7.97185
-7.98944
-8.00649
-8.02303
-8.03904
-8.05452
-8.06942
-8.08369
-8.09726
-8.11004
-8.12189
-8.13271
-8.14231
-8.15085
-8.15829
-8.1673
-7.47445
-7.54948
-7.62221
-7.65751
-7.68515
-7.71693
-7.7472
-7.77381
-7.79851
-7.82226
-7.84498
-7.86659
-7.88726
-7.90713
-7.92628
-7.94479
-7.9627
-7.98008
-7.99694
-8.01333
-8.02926
-8.04473
-8.05974
-8.07426
-8.08827
-8.10174
-8.11461
-8.12686
-8.13848
-8.14956
-8.16045
-8.17184
-8.18582
-7.51591
-7.56718
-7.62748
-7.66246
-7.68988
-7.72034
-7.74982
-7.77612
-7.80056
-7.8241
-7.84672
-7.86837
-7.88916
-7.90922
-7.92862
-7.9474
-7.9656
-7.98328
-8.00045
-8.01715
-8.0334
-8.04919
-8.06455
-8.07948
-8.09396
-8.108
-8.12161
-8.13485
-8.14782
-8.16075
-8.17416
-8.18886
-8.20661
-7.55068
-7.58656
-7.63749
-7.6729
-7.70073
-7.72999
-7.75857
-7.78456
-7.80881
-7.83214
-7.85457
-7.87603
-7.89664
-7.91649
-7.93567
-7.95422
-7.97219
-7.98964
-8.00659
-8.0231
-8.03917
-8.05485
-8.07014
-8.08508
-8.09968
-8.11398
-8.12804
-8.14198
-8.15597
-8.17033
-8.18563
-8.20264
-8.22285
-7.58048
-7.60608
-7.64805
-7.68135
-7.70799
-7.73529
-7.76243
-7.78762
-7.8113
-7.83409
-7.85608
-7.87721
-7.89757
-7.91726
-7.93633
-7.95484
-7.97282
-7.99033
-8.00739
-8.02404
-8.04031
-8.05623
-8.07183
-8.08714
-8.10221
-8.11709
-8.1319
-8.14677
-8.16193
-8.17773
-8.19472
-8.21356
-8.23539
-7.60637
-7.62499
-7.65949
-7.69046
-7.71635
-7.74242
-7.76856
-7.79323
-7.81655
-7.83902
-7.86075
-7.8817
-7.90191
-7.92148
-7.94045
-7.95887
-7.97678
-7.99421
-8.01122
-8.02783
-8.04409
-8.06003
-8.0757
-8.09114
-8.10641
-8.12162
-8.13687
-8.15233
-8.16827
-8.185
-8.20303
-8.22289
-8.24543
-7.62918
-7.64304
-7.67142
-7.69964
-7.72426
-7.74876
-7.77346
-7.79714
-7.81971
-7.84154
-7.86272
-7.88321
-7.90306
-7.92232
-7.94103
-7.95925
-7.97701
-7.99434
-8.01129
-8.0279
-8.0442
-8.06023
-8.07606
-8.09173
-8.10732
-8.12293
-8.13869
-8.15479
-8.17146
-8.18901
-8.20786
-8.22843
-8.25135
-7.64949
-7.66006
-7.6835
-7.70892
-7.73216
-7.75529
-7.77877
-7.80164
-7.82365
-7.84501
-7.86582
-7.88602
-7.90564
-7.92472
-7.9433
-7.96142
-7.9791
-7.99639
-8.01331
-8.02992
-8.04625
-8.06234
-8.07827
-8.09408
-8.10987
-8.12575
-8.14184
-8.15833
-8.17544
-8.19344
-8.21266
-8.23342
-8.25617
-7.66775
-7.67599
-7.69548
-7.71823
-7.73999
-7.76174
-7.78393
-7.80582
-7.82706
-7.84776
-7.86799
-7.88771
-7.90693
-7.92566
-7.94394
-7.9618
-7.97926
-7.99638
-8.01317
-8.02968
-8.04595
-8.06204
-8.078
-8.09391
-8.10984
-8.12591
-8.14225
-8.15903
-8.17643
-8.19469
-8.21406
-8.23479
-8.25721
-7.68429
-7.69083
-7.70719
-7.72748
-7.74771
-7.76814
-7.78911
-7.81003
-7.83055
-7.85066
-7.8704
-7.88972
-7.90861
-7.92707
-7.94514
-7.96283
-7.98016
-7.99717
-8.01389
-8.03036
-8.04663
-8.06273
-8.07874
-8.09473
-8.11077
-8.12697
-8.14345
-8.16037
-8.17788
-8.19617
-8.21544
-8.23585
-8.25761
-7.69933
-7.70462
-7.71849
-7.73656
-7.75529
-7.77445
-7.79424
-7.81419
-7.83393
-7.85339
-7.87255
-7.89138
-7.90984
-7.92794
-7.94569
-7.96309
-7.98019
-7.99699
-8.01353
-8.02986
-8.046
-8.06202
-8.07796
-8.09391
-8.10993
-8.12614
-8.14262
-8.15951
-8.17695
-8.19508
-8.21405
-8.23396
-8.25496
-7.71306
-7.7174
-7.72927
-7.7454
-7.76268
-7.78062
-7.79929
-7.8183
-7.83726
-7.85607
-7.87467
-7.89303
-7.91109
-7.92885
-7.94631
-7.96347
-7.98036
-7.99699
-8.01339
-8.0296
-8.04565
-8.0616
-8.07749
-8.0934
-8.10939
-8.12554
-8.14196
-8.15875
-8.17601
-8.19385
-8.21237
-8.23164
-8.25174
-7.72561
-7.7292
-7.73947
-7.75392
-7.76984
-7.78663
-7.80424
-7.82232
-7.84051
-7.85866
-7.87669
-7.89454
-7.91217
-7.92955
-7.94667
-7.96353
-7.98015
-7.99654
-8.01272
-8.02873
-8.04461
-8.06039
-8.07613
-8.09188
-8.10771
-8.1237
-8.13991
-8.15644
-8.17335
-8.19074
-8.20867
-8.22717
-8.24629
-7.73707
-7.74008
-7.74905
-7.76204
-7.77672
-7.79242
-7.80903
-7.82623
-7.84366
-7.86116
-7.87862
-7.89597
-7.91316
-7.93016
-7.94694
-7.9635
-7.97986
-7.99601
-8.01198
-8.0278
-8.04349
-8.0591
-8.07467
-8.09026
-8.1059
-8.12167
-8.13763
-8.15383
-8.17034
-8.18722
-8.20448
-8.22216
-8.24024
-7.74752
-7.75005
-7.75796
-7.7697
-7.78326
-7.79795
-7.81363
-7.82998
-7.84669
-7.86354
-7.88044
-7.89729
-7.91404
-7.93063
-7.94706
-7.9633
-7.97935
-7.99522
-8.01094
-8.02651
-8.04196
-8.05733
-8.07266
-8.08799
-8.10335
-8.1188
-8.13439
-8.15016
-8.16615
-8.18239
-8.1989
-8.21567
-8.23269
-7.757
-7.75915
-7.76619
-7.77687
-7.78941
-7.80318
-7.81799
-7.83355
-7.84955
-7.86579
-7.88213
-7.89848
-7.91479
-7.93098
-7.94704
-7.96295
-7.97869
-7.99428
-8.00972
-8.02502
-8.04022
-8.05533
-8.07039
-8.08542
-8.10047
-8.11557
-8.13075
-8.14604
-8.16146
-8.17704
-8.19277
-8.20863
-8.22458
-7.76556
-7.7674
-7.77371
-7.78348
-7.79512
-7.80805
-7.82207
-7.8369
-7.85223
-7.86787
-7.88367
-7.89954
-7.9154
-7.93119
-7.94687
-7.96243
-7.97785
-7.99313
-8.00826
-8.02327
-8.03817
-8.05297
-8.0677
-8.08239
-8.09706
-8.11173
-8.12643
-8.14117
-8.15597
-8.17082
-8.18571
-8.20063
-8.21552
-7.77321
-7.77479
-7.7805
-7.7895
-7.80036
-7.81253
-7.82583
-7.83997
-7.85468
-7.86975
-7.88503
-7.90043
-7.91585
-7.93124
-7.94655
-7.96175
-7.97683
-7.99178
-8.0066
-8.02129
-8.03586
-8.05033
-8.06471
-8.07902
-8.09327
-8.10748
-8.12167
-8.13583
-8.14998
-8.16409
-8.17816
-8.19215
-8.20601
-7.77996
-7.78133
-7.78655
-7.7949
-7.80507
-7.81657
-7.82921
-7.84274
-7.85687
-7.8714
-7.88619
-7.90113
-7.91613
-7.93112
-7.94605
-7.9609
-7.97563
-7.99024
-8.00472
-8.01907
-8.03329
-8.04739
-8.06138
-8.07527
-8.08907
-8.10279
-8.11642
-8.12997
-8.14344
-8.1568
-8.17003
-8.18311
-8.19596
-7.78582
-7.78701
-7.79182
-7.79962
-7.80922
-7.82013
-7.83219
-7.84516
-7.85876
-7.8728
-7.88712
-7.90163
-7.91621
-7.93081
-7.94537
-7.95985
-7.97423
-7.98849
-8.00262
-8.01661
-8.03046
-8.04417
-8.05775
-8.0712
-8.08452
-8.09772
-8.11078
-8.12371
-8.13649
-8.1491
-8.16151
-8.1737
-8.1856
-7.79076
-7.79181
-7.79629
-7.80365
-7.81275
-7.82316
-7.83472
-7.84719
-7.86032
-7.8739
-7.88779
-7.90188
-7.91608
-7.9303
-7.94449
-7.95861
-7.97263
-7.98653
-8.0003
-8.01391
-8.02738
-8.04069
-8.05384
-8.06683
-8.07965
-8.09231
-8.10479
-8.11709
-8.12918
-8.14105
-8.15267
-8.16401
-8.175
-7.79477
-7.7957
-7.79993
-7.80693
-7.81563
-7.82562
-7.83674
-7.84879
-7.86149
-7.87467
-7.88817
-7.90187
-7.91569
-7.92955
-7.94338
-7.95715
-7.97081
-7.98435
-7.99775
-8.01098
-8.02404
-8.03693
-8.04963
-8.06215
-8.07446
-8.08658
-8.09847
-8.11013
-8.12155
-8.13269
-8.14353
-8.15405
-8.16419
-7.7978
-7.79866
-7.80268
-7.80941
-7.8178
-7.82745
-7.83823
-7.84991
-7.86225
-7.87507
-7.88821
-7.90157
-7.91504
-7.92855
-7.94203
-7.95545
-7.96877
-7.98194
-7.99496
-8.00781
-8.02047
-8.03294
-8.04519
-8.05723
-8.06904
-8.08061
-8.09193
-8.10298
-8.11373
-8.12418
-8.13429
-8.14405
-8.15338
-7.7998
-7.80061
-7.8045
-7.81104
-7.8192
-7.8286
-7.8391
-7.85049
-7.86253
-7.87504
-7.88787
-7.90091
-7.91406
-7.92724
-7.9404
-7.95348
-7.96644
-7.97925
-7.9919
-8.00436
-8.0166
-8.02863
-8.04043
-8.05198
-8.06327
-8.07429
-8.08503
-8.09546
-8.10557
-8.11534
-8.12474
-8.13377
-8.14235
-7.80071
-7.80149
-7.80531
-7.81173
-7.81976
-7.82899
-7.83929
-7.85046
-7.86226
-7.87452
-7.88708
-7.89985
-7.91271
-7.9256
-7.93844
-7.9512
-7.96384
-7.97631
-7.98859
-8.00067
-8.01253
-8.02414
-8.03549
-8.04658
-8.05738
-8.06789
-8.07808
-8.08794
-8.09745
-8.1066
-8.11535
-8.12371
-8.1316
-7.80044
-7.80123
-7.80505
-7.81146
-7.81944
-7.82859
-7.83879
-7.84982
-7.86146
-7.87352
-7.88587
-7.8984
-7.911
-7.92361
-7.93616
-7.94861
-7.96091
-7.97303
-7.98495
-7.99663
-8.00808
-8.01925
-8.03015
-8.04076
-8.05105
-8.06103
-8.07066
-8.07994
-8.08886
-8.09738
-8.10551
-8.11322
-8.12048
-7.79891
-7.79976
-7.80365
-7.81015
-7.81821
-7.8274
-7.83758
-7.84857
-7.86012
-7.87206
-7.88426
-7.8966
-7.909
-7.92139
-7.93369
-7.94587
-7.95789
-7.9697
-7.9813
-7.99264
-8.00372
-8.01451
-8.02501
-8.03518
-8.04503
-8.05453
-8.06368
-8.07245
-8.08084
-8.08882
-8.09639
-8.10352
-8.11018
-7.796
-7.79694
-7.80102
-7.80774
-7.81601
-7.82536
-7.83564
-7.84667
-7.85822
-7.8701
-7.88218
-7.89437
-7.90658
-7.91874
-7.93078
-7.94268
-7.95438
-7.96587
-7.9771
-7.98807
-7.99875
-8.00912
-8.01917
-8.02889
-8.03826
-8.04726
-8.05589
-8.06414
-8.07198
-8.07942
-8.08643
-8.09303
-8.09917
-7.79152
-7.79262
-7.79702
-7.80414
-7.81278
-7.82242
-7.83294
-7.84414
-7.8558
-7.86773
-7.87982
-7.89196
-7.90409
-7.91612
-7.92801
-7.93972
-7.9512
-7.96245
-7.97342
-7.98409
-7.99446
-8.0045
-8.01419
-8.02354
-8.03251
-8.04111
-8.04931
-8.05712
-8.06451
-8.07148
-8.07802
-8.08411
-8.08972
-7.78524
-7.78659
-7.79151
-7.79926
-7.80846
-7.81856
-7.82941
-7.84086
-7.85266
-7.86465
-7.87671
-7.88876
-7.90075
-7.91259
-7.92426
-7.93572
-7.94692
-7.95786
-7.9685
-7.97882
-7.98882
-7.99847
-8.00776
-8.01668
-8.02522
-8.03337
-8.04112
-8.04845
-8.05538
-8.06188
-8.06795
-8.07361
-8.07883
-7.77685
-7.77858
-7.78429
-7.79298
-7.80301
-7.81379
-7.82524
-7.83719
-7.8494
-7.86167
-7.87393
-7.8861
-7.89813
-7.90996
-7.92156
-7.9329
-7.94396
-7.95471
-7.96513
-7.97522
-7.98495
-7.99431
-8.0033
-8.01189
-8.02009
-8.02789
-8.03527
-8.04223
-8.04876
-8.05486
-8.06052
-8.06573
-8.07045
-7.76588
-7.76821
-7.77517
-7.78522
-7.79626
-7.80773
-7.8197
-7.83205
-7.8445
-7.85691
-7.86922
-7.88138
-7.89333
-7.90505
-7.91648
-7.92763
-7.93845
-7.94895
-7.95909
-7.96887
-7.97829
-7.98731
-7.99595
-8.00419
-8.01202
-8.01943
-8.02643
-8.033
-8.03915
-8.04487
-8.05017
-8.05506
-8.05952
-7.75164
-7.75492
-7.76392
-7.77614
-7.78891
-7.80177
-7.81493
-7.8282
-7.84132
-7.85418
-7.86678
-7.87912
-7.89115
-7.90286
-7.91424
-7.92528
-7.93596
-7.94628
-7.95622
-7.96577
-7.97493
-7.98369
-7.99205
-7.99998
-8.0075
-8.01459
-8.02126
-8.02749
-8.03328
-8.03864
-8.04355
-8.04801
-8.05199
-7.73303
-7.73808
-7.75008
-7.76445
-7.77823
-7.79187
-7.8059
-7.8199
-7.83351
-7.84671
-7.85955
-7.87203
-7.88412
-7.89582
-7.90713
-7.91804
-7.92856
-7.93869
-7.94841
-7.95772
-7.96663
-7.97512
-7.9832
-7.99085
-7.99808
-8.00488
-8.01124
-8.01718
-8.02269
-8.02777
-8.03242
-8.03667
-8.04052
-7.70791
-7.71702
-7.73632
-7.75592
-7.77216
-7.78732
-7.80255
-7.81734
-7.83133
-7.84469
-7.85759
-7.87004
-7.88203
-7.89359
-7.90472
-7.91544
-7.92573
-7.93562
-7.94508
-7.95412
-7.96274
-7.97094
-7.9787
-7.98604
-7.99294
-7.99941
-8.00545
-8.01105
-8.01622
-8.02095
-8.02525
-8.02911
-8.0325
-7.67282
-7.68643
-7.71196
-7.73506
-7.75381
-7.77157
-7.7889
-7.80499
-7.81979
-7.83369
-7.84692
-7.85953
-7.87154
-7.88302
-7.89403
-7.90458
-7.91469
-7.92437
-7.93363
-7.94247
-7.95089
-7.95888
-7.96645
-7.9736
-7.98032
-7.98661
-7.99247
-7.99789
-8.00289
-8.00745
-8.01158
-8.01527
-8.01851
-7.62533
-7.67294
-7.71222
-7.73233
-7.74839
-7.76647
-7.78411
-7.79969
-7.81382
-7.82726
-7.84014
-7.85242
-7.86411
-7.87529
-7.886
-7.89627
-7.90611
-7.91552
-7.92452
-7.9331
-7.94128
-7.94904
-7.95639
-7.96333
-7.96986
-7.97598
-7.98168
-7.98699
-7.99189
-7.9964
-8.00054
-8.00435
-8.00783
-7.49088
-7.61301
-7.68756
-7.71161
-7.72771
-7.74845
-7.7686
-7.78541
-7.80028
-7.81458
-7.82852
-7.84197
-7.85495
-7.86755
-7.87979
-7.89166
-7.90317
-7.91428
-7.92499
-7.93529
-7.94516
-7.95459
-7.96357
-7.97209
-7.98014
-7.98773
-7.99483
-8.00146
-8.00761
-8.01327
-8.01847
-8.02317
-8.02751
-8.25097
-8.47409
-8.78733
-8.97591
-9.19472
-9.42564
-9.64577
-9.86528
-10.0897
-10.3145
-10.5289
-10.7131
-10.8402
-10.8808
-10.8098
-10.6083
-10.2593
-9.76019
-9.16088
-8.55307
-8.04367
-7.6964
-7.4959
-7.38226
-7.32421
-7.36145
-7.57681
-8.04183
-8.78143
-9.75877
-10.8867
-12.0596
-13.1838
-14.1943
-15.0515
-15.734
-16.2269
-16.521
-16.6109
-16.4954
-16.1788
-15.6714
-14.987
-14.1384
-13.1311
-11.9644
-10.6371
-9.14993
-7.56168
-6.04357
-4.7674
-3.75333
-2.91128
-2.1818
-1.55037
-1.01476
-0.569802
-0.205862
0.0879677
0.32191
0.506228
0.652108
0.770387
0.868232
0.949028
1.01483
1.06926
1.11707
1.15822
1.18324
1.17594
1.12299
1.01664
0.847368
0.606027
0.307599
-0.00752994
-0.286627
-0.50201
-0.666524
-0.798297
-0.898017
-0.996482
-1.11621
-1.28294
-1.51783
-1.77799
-1.95737
-2.01422
-2.07995
-2.35712
-2.86615
-3.3673
-3.63532
-3.65063
-3.29496
-2.65579
-1.88867
-1.0801
-0.350931
-8.18935
-8.28602
-8.45233
-8.57406
-8.72252
-8.90626
-9.10678
-9.32291
-9.55288
-9.78734
-10.0113
-10.2032
-10.3363
-10.3835
-10.322
-10.1352
-9.81318
-9.35735
-8.81704
-8.27751
-7.83129
-7.53086
-7.36333
-7.28037
-7.2582
-7.33492
-7.58529
-8.06763
-8.79705
-9.73783
-10.8123
-11.9261
-12.9943
-13.9555
-14.7716
-15.4191
-15.8829
-16.1536
-16.2267
-16.1014
-15.7824
-15.2789
-14.603
-13.7654
-12.7711
-11.6207
-10.3158
-8.86355
-7.32553
-5.8569
-4.61923
-3.6382
-2.82835
-2.12968
-1.52538
-1.01193
-0.584142
-0.233005
0.0514872
0.278489
0.457289
0.598408
0.712431
0.806215
0.882611
0.943229
0.991785
1.03297
1.06665
1.0849
1.07489
1.0267
0.933538
0.785326
0.574422
0.317151
0.0545576
-0.162709
-0.315987
-0.429055
-0.51855
-0.580007
-0.648156
-0.763398
-0.961078
-1.24996
-1.56815
-1.80658
-1.93423
-2.08272
-2.43158
-2.97648
-3.48186
-3.74502
-3.74691
-3.36356
-2.69373
-1.89947
-1.06979
-0.321031
-8.18619
-8.23914
-8.3387
-8.42706
-8.52528
-8.65291
-8.80198
-8.96893
-9.15291
-9.3463
-9.53491
-9.69858
-9.81242
-9.85082
-9.79203
-9.6209
-9.32974
-8.92583
-8.44959
-7.97683
-7.58852
-7.32923
-7.1901
-7.13448
-7.14598
-7.25797
-7.53401
-8.02365
-8.73697
-9.639
-10.6598
-11.7153
-12.7288
-13.6422
-14.4191
-15.0349
-15.4739
-15.7267
-15.7888
-15.66
-15.3444
-14.8505
-14.1885
-13.3678
-12.3934
-11.2679
-9.99507
-8.58835
-7.11124
-5.70391
-4.51156
-3.5599
-2.77475
-2.10021
-1.51789
-1.02265
-0.608935
-0.268095
0.00920091
0.231291
0.406642
0.545157
0.6571
0.749062
0.823358
0.881277
0.926674
0.964034
0.992263
1.00412
0.989822
0.943148
0.858202
0.724127
0.534782
0.308076
0.0894494
-0.0683283
-0.154725
-0.208843
-0.253253
-0.280473
-0.32101
-0.425009
-0.638425
-0.965808
-1.33395
-1.63141
-1.83083
-2.05604
-2.46442
-3.03737
-3.55039
-3.81585
-3.80737
-3.40569
-2.71615
-1.90467
-1.06291
-0.304915
-8.20862
-8.25731
-8.34046
-8.42535
-8.51242
-8.61721
-8.73706
-8.86749
-9.00728
-9.15131
-9.28857
-9.40293
-9.47418
-9.48087
-9.40407
-9.23066
-8.95597
-8.59035
-8.16763
-7.75034
-7.40574
-7.17265
-7.04877
-7.009
-7.04282
-7.17801
-7.46644
-7.94978
-8.6356
-9.49115
-10.4539
-11.4489
-12.4062
-13.2718
-14.0103
-14.5971
-15.0152
-15.2547
-15.3111
-15.1841
-14.8775
-14.3985
-13.7562
-12.9588
-12.0117
-10.9188
-9.6864
-8.33205
-6.91785
-5.56981
-4.4202
-3.49489
-2.73079
-2.07716
-1.5146
-1.03631
-0.636104
-0.305573
-0.0358729
0.18075
0.35209
0.487472
0.596756
0.686338
0.758184
0.813462
0.856218
0.891138
0.916457
0.9249
0.908876
0.86621
0.7931
0.678147
0.514452
0.318006
0.137603
0.0289929
-0.00235716
-0.00739046
-0.016734
-0.0225747
-0.0460666
-0.139117
-0.35647
-0.704883
-1.10828
-1.45578
-1.71971
-2.01106
-2.46656
-3.06084
-3.58297
-3.85374
-3.8353
-3.42055
-2.71911
-1.89805
-1.05017
-0.29339
-8.23353
-8.28024
-8.3502
-8.42665
-8.5058
-8.59751
-8.70186
-8.81457
-8.93268
-9.05068
-9.15849
-9.24187
-9.28383
-9.2668
-9.17554
-9.00009
-8.73862
-8.40231
-8.02173
-7.648
-7.33596
-7.11947
-7.00196
-6.96883
-7.01453
-7.16083
-7.44809
-7.91029
-8.55402
-9.35064
-10.2455
-11.1722
-12.0675
-12.8814
-13.5793
-14.136
-14.5339
-14.7622
-14.8157
-14.6936
-14.3989
-13.9379
-13.3184
-12.5481
-11.6326
-10.5776
-9.39121
-8.09432
-6.74637
-5.45942
-4.35165
-3.45033
-2.70405
-2.06773
-1.52163
-1.05747
-0.668471
-0.34635
-0.0826641
0.129931
0.298692
0.432342
0.540171
0.628282
0.698412
0.751529
0.791559
0.82346
0.845342
0.849454
0.829666
0.787941
0.724568
0.629473
0.49439
0.331278
0.190986
0.131131
0.153432
0.196223
0.217241
0.220883
0.198288
0.104385
-0.118098
-0.479787
-0.908136
-1.29691
-1.61686
-1.9635
-2.45407
-3.06071
-3.58776
-3.86263
-3.8349
-3.41232
-2.70662
-1.88375
-1.03558
-0.288843
-8.25174
-8.29615
-8.35764
-8.42831
-8.50358
-8.58813
-8.68245
-8.78276
-8.88525
-8.9845
-9.07149
-9.13401
-9.15782
-9.1285
-9.03374
-8.86608
-8.62559
-8.32357
-7.9867
-7.65618
-7.37613
-7.17597
-7.06355
-7.03297
-7.08321
-7.23153
-7.50841
-7.93998
-8.53148
-9.25932
-10.0772
-10.9274
-11.7532
-12.5091
-13.1611
-13.6836
-14.0585
-14.2738
-14.3235
-14.206
-13.9234
-13.481
-12.8856
-12.1443
-11.2633
-10.2494
-9.11249
-7.87522
-6.59309
-5.36565
-4.29778
-3.41852
-2.68805
-2.06695
-1.5355
-1.0842
-0.705619
-0.391537
-0.133797
0.0747062
0.24091
0.373024
0.479774
0.567003
0.636449
0.688974
0.72817
0.759055
0.779936
0.782267
0.760573
0.719499
0.664042
0.587043
0.478677
0.345988
0.241256
0.225319
0.300872
0.397414
0.455463
0.468599
0.436979
0.328717
0.0927144
-0.282582
-0.73116
-1.15479
-1.52304
-1.91528
-2.43043
-3.04075
-3.56717
-3.84368
-3.80756
-3.38187
-2.67861
-1.86089
-1.0178
-0.288461
-8.26525
-8.30817
-8.36412
-8.42907
-8.49903
-8.57574
-8.65958
-8.74755
-8.83571
-8.91887
-8.98914
-9.03605
-9.04771
-9.01228
-8.92004
-8.76557
-8.55016
-8.28455
-7.99144
-7.7041
-7.45808
-7.27882
-7.17661
-7.15162
-7.2063
-7.35469
-7.61953
-8.02003
-8.55941
-9.21816
-9.95755
-10.7283
-11.481
-12.1743
-12.7751
-13.2583
-13.6056
-13.8043
-13.8473
-13.7322
-13.4602
-13.0355
-12.4639
-11.7522
-10.9069
-9.93573
-8.85026
-7.67375
-6.4572
-5.28816
-4.25901
-3.4004
-2.68372
-2.07539
-1.55616
-1.11561
-0.745714
-0.438293
-0.185474
0.0196752
0.183846
0.314726
0.420442
0.506525
0.574847
0.626359
0.664419
0.694098
0.714431
0.716568
0.695344
0.656539
0.609362
0.55084
0.469864
0.367306
0.292932
0.310792
0.431024
0.581448
0.684679
0.716269
0.676125
0.546383
0.289316
-0.102532
-0.569591
-1.02339
-1.43327
-1.8631
-2.39486
-3.00217
-3.52294
-3.79858
-3.75549
-3.33128
-2.63663
-1.83043
-0.997137
-0.291081
-8.27529
-8.31641
-8.36771
-8.42697
-8.49138
-8.56111
-8.63605
-8.71361
-8.78991
-8.85999
-8.91688
-8.9517
-8.95461
-8.91606
-8.82849
-8.68818
-8.49725
-8.26566
-8.01263
-7.76523
-7.55221
-7.39555
-7.3065
-7.28902
-7.34784
-7.49477
-7.7468
-8.11761
-8.60844
-9.20272
-9.86795
-10.5623
-11.2433
-11.8733
-12.4211
-12.8625
-13.1792
-13.3583
-13.392
-13.2769
-13.0136
-12.6051
-12.0566
-11.3743
-10.5651
-9.63754
-8.6041
-7.488
-6.33561
-5.22329
-4.23199
-3.39359
-2.68959
-2.09242
-1.58382
-1.15269
-0.790479
-0.488964
-0.240449
-0.0380681
0.124732
0.255208
0.360899
0.446948
0.515248
0.56675
0.604505
0.633323
0.653195
0.6558
0.635967
0.599502
0.559063
0.517122
0.463365
0.393051
0.347967
0.391786
0.544082
0.739468
0.888758
0.947601
0.906001
0.75565
0.475121
0.0653672
-0.418643
-0.89828
-1.34347
-1.8039
-2.34607
-2.94526
-3.45616
-3.72862
-3.68026
-3.26186
-2.58138
-1.79252
-0.973199
-0.295451
-8.28104
-8.32041
-8.36786
-8.42213
-8.48116
-8.54432
-8.61093
-8.67868
-8.74399
-8.80227
-8.84747
-8.87217
-8.86827
-8.82818
-8.74612
-8.61971
-8.45153
-8.25066
-8.03336
-7.82181
-7.63953
-7.50554
-7.43126
-7.42273
-7.48588
-7.63071
-7.86991
-8.21299
-8.65948
-9.19496
-9.79197
-10.4152
-11.0282
-11.5968
-12.0923
-12.4915
-12.7766
-12.9346
-12.9573
-12.8408
-12.5846
-12.1912
-11.6648
-11.0115
-10.2384
-9.35441
-8.37283
-7.31631
-6.2265
-5.16936
-4.21535
-3.39711
-2.70494
-2.11726
-1.61737
-1.19396
-0.838128
-0.541598
-0.296817
-0.0969562
0.0644603
0.194402
0.299975
0.386098
0.454799
0.50706
0.545615
0.574769
0.595354
0.600239
0.58376
0.550719
0.515617
0.486441
0.456498
0.418437
0.402907
0.469399
0.64351
0.871035
1.05948
1.14844
1.11317
0.948344
0.647323
0.221416
-0.276836
-0.777561
-1.25158
-1.73606
-2.28349
-2.87063
-3.36821
-3.63548
-3.58373
-3.17513
-2.5138
-1.74749
-0.945904
-0.300817
-8.28497
-8.32235
-8.36619
-8.41575
-8.46935
-8.52608
-8.58495
-8.64385
-8.69952
-8.74781
-8.78346
-8.80027
-8.79166
-8.75162
-8.67583
-8.56294
-8.41578
-8.24249
-8.05682
-7.87702
-7.7225
-7.60973
-7.54984
-7.54986
-7.61626
-7.75748
-7.98305
-8.29933
-8.70464
-9.18621
-9.72081
-10.2787
-10.828
-11.3384
-11.7836
-12.1415
-12.3951
-12.5315
-12.5424
-12.4234
-12.1733
-11.7939
-11.289
-10.6641
-9.92649
-9.08561
-8.15506
-7.15671
-6.12764
-5.12425
-4.20735
-3.40974
-2.72927
-2.15009
-1.6575
-1.24038
-0.889616
-0.596937
-0.35486
-0.156622
0.00413815
0.134058
0.239807
0.326175
0.395409
0.448617
0.488236
0.518145
0.539933
0.54826
0.537108
0.509854
0.480518
0.461045
0.450052
0.441012
0.453951
0.541813
0.731587
0.979971
1.19733
1.31327
1.28922
1.1176
0.802381
0.364663
-0.143879
-0.660494
-1.1568
-1.65906
-2.20722
-2.77917
-3.26065
-3.52104
-3.46773
-3.07254
-2.43474
-1.69556
-0.915203
-0.306211
-8.28521
-8.32063
-8.36121
-8.40643
-8.45497
-8.50575
-8.55766
-8.60865
-8.65585
-8.69552
-8.72317
-8.73364
-8.72165
-8.68253
-8.61312
-8.51285
-8.38465
-8.23577
-8.07786
-7.92601
-7.79639
-7.70319
-7.65696
-7.66505
-7.73389
-7.87061
-8.08232
-8.37304
-8.74023
-9.17258
-9.65037
-10.1483
-10.6386
-11.0944
-11.4916
-11.8098
-12.0326
-12.1475
-12.1463
-12.024
-11.7793
-11.4131
-10.9288
-10.3317
-9.62891
-8.83024
-7.94943
-7.00744
-6.03716
-5.08628
-4.20665
-3.43038
-2.76163
-2.19013
-1.7036
-1.2915
-0.944772
-0.65515
-0.415159
-0.218013
-0.0574048
0.0730122
0.179465
0.266662
0.337078
0.391951
0.433355
0.464652
0.487899
0.49978
0.494924
0.475449
0.453303
0.4422
0.445964
0.461015
0.499856
0.607124
0.80886
1.07038
1.30745
1.44437
1.43298
1.26118
0.938981
0.495016
-0.0192337
-0.546497
-1.05881
-1.57299
-2.11792
-2.67217
-3.1353
-3.38739
-3.33425
-2.95564
-2.34517
-1.63708
-0.881219
-0.310809
-8.28433
-8.31767
-8.3551
-8.39623
-8.43997
-8.48518
-8.53066
-8.57456
-8.61428
-8.64658
-8.66764
-8.67323
-8.65912
-8.62174
-8.55887
-8.47047
-8.35947
-8.23226
-8.09873
-7.97141
-7.8638
-7.78815
-7.75419
-7.76915
-7.83918
-7.97028
-8.16771
-8.43384
-8.76558
-9.15287
-9.57884
-10.0218
-10.4575
-10.8623
-11.2142
-11.4944
-11.6874
-11.7813
-11.7679
-11.6422
-11.4022
-11.0485
-10.584
-10.0138
-9.34503
-8.58742
-7.75473
-6.86691
-5.95316
-5.05358
-4.2118
-3.45811
-2.80156
-2.23723
-1.75565
-1.34727
-1.00332
-0.715682
-0.476936
-0.280282
-0.119435
0.0117346
0.119096
0.207349
0.27932
0.336516
0.380684
0.414469
0.439904
0.455421
0.457079
0.446333
0.432757
0.43
0.44574
0.479975
0.541055
0.664526
0.875267
1.14508
1.39552
1.54775
1.54843
1.38111
1.05838
0.613682
0.098236
-0.434802
-0.957439
-1.47831
-2.01658
-2.5511
-2.9941
-3.23678
-3.18534
-2.82603
-2.24609
-1.57242
-0.844068
-0.313963
-8.28052
-8.3118
-8.3463
-8.38365
-8.42294
-8.46309
-8.5028
-8.54044
-8.57374
-8.59988
-8.61564
-8.61756
-8.60232
-8.5672
-8.51072
-8.43326
-8.33764
-8.22951
-8.11724
-8.01132
-7.92306
-7.86302
-7.83995
-7.8607
-7.93093
-8.05569
-8.23882
-8.4815
-8.78037
-9.12643
-9.50512
-9.89769
-10.2832
-10.6405
-10.9498
-11.1939
-11.3585
-11.4322
-11.4068
-11.2774
-11.0415
-10.6996
-10.2543
-9.71015
-9.07429
-8.35641
-7.56997
-6.73381
-5.874
-5.02432
-4.22104
-3.49166
-2.84837
-2.29112
-1.81371
-1.40802
-1.06578
-0.779093
-0.54064
-0.34365
-0.181885
-0.0494286
0.0592512
0.148825
0.222535
0.28234
0.329875
0.367136
0.395796
0.415466
0.423821
0.422119
0.417987
0.424026
0.450097
0.499475
0.578674
0.714565
0.931265
1.20586
1.46573
1.62946
1.64121
1.48142
1.16323
0.722523
0.209888
-0.324644
-0.85266
-1.37571
-1.90443
-2.41765
-2.83911
-3.07153
-3.02316
-2.68538
-2.1386
-1.50211
-0.803961
-0.315262
-8.27586
-8.30507
-8.33674
-8.37056
-8.40571
-8.44118
-8.47572
-8.50783
-8.53558
-8.55657
-8.56808
-8.56732
-8.5517
-8.51921
-8.46894
-8.40154
-8.31969
-8.22833
-8.13458
-8.04723
-7.97576
-7.92927
-7.9155
-7.94074
-8.01014
-8.12786
-8.29674
-8.51707
-8.78539
-9.09359
-9.42902
-9.77543
-10.1146
-10.4278
-10.6973
-10.9076
-11.0451
-11.0993
-11.0623
-10.929
-10.697
-10.3663
-9.93925
-9.42028
-8.81621
-8.13655
-7.39432
-6.60717
-5.79842
-4.9968
-4.23242
-3.52936
-2.90108
-2.35136
-1.87755
-1.47358
-1.13205
-0.845397
-0.606421
-0.40838
-0.24506
-0.110696
-6.50286e-05
0.0913751
0.167177
0.229803
0.281014
0.322399
0.355215
0.379791
0.395277
0.40281
0.408598
0.423804
0.459174
0.520628
0.614127
0.759098
0.978389
1.2542
1.52045
1.6935
1.71582
1.56574
1.25595
0.823092
0.31669
-0.215625
-0.744747
-1.26611
-1.78287
-2.27364
-2.67266
-2.89419
-2.84995
-2.53547
-2.02391
-1.42674
-0.761213
-0.314403
-8.26907
-8.29625
-8.32527
-8.35582
-8.38719
-8.41846
-8.44845
-8.47579
-8.49882
-8.51554
-8.52373
-8.52113
-8.50574
-8.47611
-8.43176
-8.37353
-8.3039
-8.2272
-8.14949
-8.07815
-8.02116
-7.98629
-7.98034
-8.00896
-8.07666
-8.18693
-8.34175
-8.54085
-8.78075
-9.05416
-9.35001
-9.65417
-9.95073
-10.2232
-10.4559
-10.6344
-10.7465
-10.7821
-10.7339
-10.5968
-10.3683
-10.0482
-9.63867
-9.14386
-8.57034
-7.92728
-7.22712
-6.48625
-5.72555
-4.96973
-4.24403
-3.56913
-2.95822
-2.41742
-1.94725
-1.54421
-1.20232
-0.914675
-0.67428
-0.474454
-0.308986
-0.172175
-0.0589885
0.0349746
0.113421
0.179203
0.234319
0.280207
0.317887
0.348173
0.371301
0.38836
0.404373
0.428902
0.472831
0.544074
0.64865
0.800276
1.01878
1.29177
1.56091
1.74153
1.77438
1.63591
1.33765
0.915889
0.418766
-0.107978
-0.634398
-1.15065
-1.6535
-2.12141
-2.49772
-2.70751
-2.66809
-2.37815
-1.90329
-1.34699
-0.716225
-0.311157
-8.26157
-8.28676
-8.31328
-8.34082
-8.36876
-8.39624
-8.42222
-8.44546
-8.46451
-8.47772
-8.48333
-8.47953
-8.46479
-8.43812
-8.39933
-8.34936
-8.29052
-8.22656
-8.16266
-8.105
-8.06032
-8.03521
-8.03559
-8.06643
-8.13165
-8.23408
-8.37512
-8.55406
-8.7675
-9.00886
-9.26841
-9.53389
-9.79136
-10.0264
-10.2248
-10.3737
-10.4619
-10.48
-10.421
-10.2802
-10.0549
-9.74501
-9.35222
-8.88056
-8.33626
-7.7281
-7.0678
-6.3705
-5.65486
-4.94233
-4.25437
-3.60878
-3.01767
-2.48798
-2.02245
-1.62012
-1.27701
-0.987313
-0.744495
-0.542025
-0.373712
-0.233882
-0.117576
-0.0204633
0.0612296
0.1306
0.189913
0.240639
0.28377
0.320451
0.351609
0.37844
0.404855
0.438776
0.490768
0.570111
0.683121
0.839368
1.05429
1.32038
1.58799
1.77383
1.81698
1.69176
1.40784
1.00019
0.515321
-0.0025634
-0.522659
-1.03059
-1.518
-1.96316
-2.31694
-2.51409
-2.47989
-2.21528
-1.77804
-1.2636
-0.669423
-0.3054
-8.25263
-8.27593
-8.3001
-8.32487
-8.34969
-8.37381
-8.39627
-8.416
-8.43175
-8.44217
-8.44582
-8.44132
-8.42755
-8.40382
-8.37019
-8.32764
-8.27826
-8.22533
-8.17324
-8.1272
-8.09287
-8.07581
-8.08116
-8.1132
-8.17527
-8.26966
-8.39727
-8.55712
-8.74593
-8.95777
-9.18409
-9.41418
-9.63586
-9.8364
-10.0032
-10.1247
-10.1906
-10.1923
-10.1232
-9.97883
-9.75668
-9.45637
-9.07957
-8.63
-8.11357
-7.53855
-6.91591
-6.2595
-5.58605
-4.91423
-4.26256
-3.64655
-3.07713
-2.5611
-2.10216
-1.70125
-1.35653
-1.06384
-0.817545
-0.611468
-0.439502
-0.295981
-0.175932
-0.0750356
0.0105179
0.0839752
0.147825
0.203721
0.25279
0.296378
0.335846
0.372522
0.409365
0.452737
0.512523
0.598732
0.718018
0.876865
1.0862
1.34181
1.60287
1.79045
1.84286
1.73202
1.46495
1.07441
0.604955
0.0993739
-0.41073
-0.907195
-1.37762
-1.80008
-2.13171
-2.31592
-2.28747
-2.04869
-1.64953
-1.1774
-0.621244
-0.297118
-8.24312
-8.2646
-8.2866
-8.30885
-8.33088
-8.35203
-8.37144
-8.38818
-8.40121
-8.40942
-8.41164
-8.40683
-8.39419
-8.37331
-8.34441
-8.30843
-8.26728
-8.22379
-8.1817
-8.14539
-8.11959
-8.10903
-8.11807
-8.15036
-8.2087
-8.2949
-8.40946
-8.55126
-8.71714
-8.90178
-9.09763
-9.29534
-9.48424
-9.65311
-9.79081
-9.88688
-9.93201
-9.9184
-9.8399
-9.69224
-9.47306
-9.18193
-8.82035
-8.3918
-7.90183
-7.35818
-6.77101
-6.15296
-5.51894
-4.88533
-4.26824
-3.68135
-3.1346
-2.6344
-2.18454
-1.78682
-1.44104
-1.14488
-0.89411
-0.683362
-0.506808
-0.358808
-0.234317
-0.128975
-0.038938
0.0391473
0.107972
0.169427
0.224833
0.275661
0.32354
0.369962
0.417162
0.470084
0.537585
0.629765
0.753483
0.912991
1.11541
1.35774
1.60721
1.79211
1.85164
1.75546
1.5073
1.13686
0.68617
0.196568
-0.299765
-0.781579
-1.23326
-1.63288
-1.943
-2.11481
-2.09287
-1.8802
-1.51912
-1.08924
-0.57211
-0.2864
-8.23273
-8.25249
-8.27248
-8.29243
-8.31196
-8.33048
-8.34725
-8.36146
-8.37225
-8.37871
-8.37994
-8.37512
-8.36371
-8.34551
-8.32085
-8.29065
-8.25661
-8.22116
-8.18747
-8.15921
-8.14038
-8.13493
-8.14653
-8.17823
-8.23236
-8.3103
-8.41227
-8.53702
-8.68159
-8.84117
-9.00912
-9.17722
-9.33615
-9.47602
-9.58696
-9.65962
-9.68562
-9.65782
-9.57059
-9.41995
-9.20365
-8.92126
-8.57415
-8.16554
-7.70062
-7.18658
-6.63275
-6.0506
-5.45343
-4.85565
-4.27136
-3.71271
-3.18884
-2.70581
-2.26726
-1.87513
-1.52995
-1.23079
-0.97503
-0.758562
-0.576315
-0.42289
-0.293167
-0.18265
-0.0874292
-0.00409126
0.0702178
0.137645
0.199743
0.258066
0.314379
0.370322
0.427676
0.490222
0.565476
0.662935
0.78947
0.948118
1.14266
1.36972
1.60324
1.78067
1.84418
1.76189
1.53402
1.18636
0.757849
0.288021
-0.190739
-0.654771
-1.08591
-1.46256
-1.75208
-1.91269
-1.89816
-1.71163
-1.38816
-0.99997
-0.522397
-0.273433
-8.22193
-8.24007
-8.25822
-8.27611
-8.29342
-8.30964
-8.32414
-8.33623
-8.34519
-8.35031
-8.35086
-8.34626
-8.33612
-8.32039
-8.29947
-8.27427
-8.24627
-8.21757
-8.19084
-8.16917
-8.15589
-8.1543
-8.16741
-8.19779
-8.24731
-8.317
-8.40684
-8.51552
-8.64028
-8.77678
-8.91915
-9.06019
-9.19172
-9.30505
-9.39146
-9.44262
-9.45099
-9.41011
-9.31484
-9.1615