/*--------------------------------*- C++ -*----------------------------------*\
| =========                 |                                                 |
| \\      /  F ield         | OpenFOAM: The Open Source CFD Toolbox           |
|  \\    /   O peration     | Version:  4.1                                   |
|   \\  /    A nd           | Web:      www.OpenFOAM.org                      |
|    \\/     M anipulation  |                                                 |
\*---------------------------------------------------------------------------*/
FoamFile
{
    version     2.0;
    format      ascii;
    class       surfaceScalarField;
    location    "200";
    object      phi;
}
// * * * * * * * * * * * * * * * * * * * * * * * * * * * * * * * * * * * * * //

dimensions      [0 3 -1 0 0 0 0];

internalField   nonuniform List<scalar> 
13452
(
5.95313e-05
7.37122e-07
5.86594e-05
8.71914e-07
5.78166e-05
8.42828e-07
5.69817e-05
8.34865e-07
5.61559e-05
8.25802e-07
5.5352e-05
8.03897e-07
5.45773e-05
7.74725e-07
5.38343e-05
7.43021e-07
5.31241e-05
7.10201e-07
5.24472e-05
6.76845e-07
5.18036e-05
6.43611e-07
5.11926e-05
6.11078e-07
5.06129e-05
5.79612e-07
5.00635e-05
5.49409e-07
4.9543e-05
5.20569e-07
4.90498e-05
4.93139e-07
4.85827e-05
4.67128e-07
4.81402e-05
4.42521e-07
4.77209e-05
4.19296e-07
4.73234e-05
3.9743e-07
4.69465e-05
3.76907e-07
4.65888e-05
3.57726e-07
4.62489e-05
3.39909e-07
4.59254e-05
3.23508e-07
4.56168e-05
3.08625e-07
4.53213e-05
2.95433e-07
4.50371e-05
2.84198e-07
4.47617e-05
2.75418e-07
4.44921e-05
2.69622e-07
4.42233e-05
2.68773e-07
4.39512e-05
2.72113e-07
4.36615e-05
2.89694e-07
2.97918e-07
4.33636e-05
6.23701e-05
3.57335e-07
6.26549e-05
5.87088e-07
6.28763e-05
6.21458e-07
6.30529e-05
6.58236e-07
6.31878e-05
6.9099e-07
6.32843e-05
7.07387e-07
6.3346e-05
7.13023e-07
6.3376e-05
7.12982e-07
6.33777e-05
7.08531e-07
6.33544e-05
7.00079e-07
6.33097e-05
6.88353e-07
6.32466e-05
6.74155e-07
6.31681e-05
6.58128e-07
6.30768e-05
6.40767e-07
6.29748e-05
6.22478e-07
6.28644e-05
6.03601e-07
6.27471e-05
5.84419e-07
6.26244e-05
5.65164e-07
6.24977e-05
5.46034e-07
6.23679e-05
5.27199e-07
6.2236e-05
5.08814e-07
6.21027e-05
4.9103e-07
6.19686e-05
4.74e-07
6.18342e-05
4.57901e-07
6.16999e-05
4.42943e-07
6.1566e-05
4.29403e-07
6.14325e-05
4.17655e-07
6.12997e-05
4.08262e-07
6.11673e-05
4.01962e-07
6.10359e-05
4.00227e-07
6.09036e-05
4.04328e-07
6.07739e-05
4.19465e-07
4.49951e-07
6.06218e-05
6.38365e-05
2.82223e-07
6.38979e-05
5.25697e-07
6.39333e-05
5.86031e-07
6.39618e-05
6.29806e-07
6.39854e-05
6.67351e-07
6.4005e-05
6.87776e-07
6.40222e-05
6.95852e-07
6.40377e-05
6.97449e-07
6.40517e-05
6.94521e-07
6.40641e-05
6.87698e-07
6.40747e-05
6.77756e-07
6.40833e-05
6.65516e-07
6.40899e-05
6.51608e-07
6.40941e-05
6.36493e-07
6.40961e-05
6.20538e-07
6.40956e-05
6.04049e-07
6.40928e-05
5.87277e-07
6.40875e-05
5.70431e-07
6.40799e-05
5.53685e-07
6.40699e-05
5.37195e-07
6.40576e-05
5.21108e-07
6.4043e-05
5.05569e-07
6.40263e-05
4.90736e-07
6.40074e-05
4.76791e-07
6.39864e-05
4.63956e-07
6.39633e-05
4.52521e-07
6.3938e-05
4.42875e-07
6.39107e-05
4.35572e-07
6.38813e-05
4.31368e-07
6.38501e-05
4.31453e-07
6.3817e-05
4.37386e-07
6.37847e-05
4.51848e-07
4.77066e-07
6.37576e-05
6.56441e-05
2.21236e-07
6.57109e-05
4.58883e-07
6.5755e-05
5.4194e-07
6.57898e-05
5.9494e-07
6.58196e-05
6.37628e-07
6.58446e-05
6.6277e-07
6.5866e-05
6.7444e-07
6.58848e-05
6.78642e-07
6.59015e-05
6.77784e-07
6.59165e-05
6.72706e-07
6.593e-05
6.6426e-07
6.59422e-05
6.53316e-07
6.59533e-05
6.40553e-07
6.59633e-05
6.26469e-07
6.59724e-05
6.11459e-07
6.59806e-05
5.95851e-07
6.59879e-05
5.79917e-07
6.59945e-05
5.6388e-07
6.60002e-05
5.4793e-07
6.60052e-05
5.32234e-07
6.60093e-05
5.1695e-07
6.60127e-05
5.02235e-07
6.60152e-05
4.88258e-07
6.60167e-05
4.75212e-07
6.60174e-05
4.63331e-07
6.6017e-05
4.52911e-07
6.60155e-05
4.44341e-07
6.60129e-05
4.38147e-07
6.60093e-05
4.35015e-07
6.60048e-05
4.35928e-07
6.60002e-05
4.42028e-07
6.5997e-05
4.5499e-07
4.75853e-07
6.59982e-05
6.75015e-05
1.76551e-07
6.75607e-05
3.99646e-07
6.76062e-05
4.96448e-07
6.76455e-05
5.55628e-07
6.76819e-05
6.01194e-07
6.77151e-05
6.29643e-07
6.77452e-05
6.4436e-07
6.77728e-05
6.50945e-07
6.77986e-05
6.52018e-07
6.78227e-05
6.48611e-07
6.78453e-05
6.41651e-07
6.78666e-05
6.32046e-07
6.78866e-05
6.20501e-07
6.79056e-05
6.07538e-07
6.79235e-05
5.93571e-07
6.79404e-05
5.7894e-07
6.79564e-05
5.63927e-07
6.79715e-05
5.48766e-07
6.79857e-05
5.33655e-07
6.79992e-05
5.18771e-07
6.80119e-05
5.04281e-07
6.80238e-05
4.90351e-07
6.80349e-05
4.77156e-07
6.80452e-05
4.64894e-07
6.80547e-05
4.53799e-07
6.80635e-05
4.4416e-07
6.80715e-05
4.36337e-07
6.80788e-05
4.30791e-07
6.80858e-05
4.28092e-07
6.80927e-05
4.2896e-07
6.81006e-05
4.34153e-07
6.81111e-05
4.44528e-07
4.60193e-07
6.81267e-05
6.94169e-05
1.43694e-07
6.94687e-05
3.47837e-07
6.95135e-05
4.51658e-07
6.95537e-05
5.15362e-07
6.95918e-05
5.6313e-07
6.96271e-05
5.9432e-07
6.96598e-05
6.11736e-07
6.96902e-05
6.20474e-07
6.97189e-05
6.23302e-07
6.97461e-05
6.21438e-07
6.97719e-05
6.15879e-07
6.97964e-05
6.07551e-07
6.98197e-05
5.97176e-07
6.9842e-05
5.8529e-07
6.98632e-05
5.7232e-07
6.98835e-05
5.58618e-07
6.9903e-05
5.44473e-07
6.99216e-05
5.30128e-07
6.99395e-05
5.15789e-07
6.99566e-05
5.01642e-07
6.9973e-05
4.87859e-07
6.99888e-05
4.74609e-07
7.00039e-05
4.62072e-07
7.00183e-05
4.50441e-07
7.00322e-05
4.3994e-07
7.00455e-05
4.30833e-07
7.00584e-05
4.23434e-07
7.00711e-05
4.18116e-07
7.00839e-05
4.15307e-07
7.00973e-05
4.15478e-07
7.01125e-05
4.19042e-07
7.01307e-05
4.26251e-07
4.36806e-07
7.01541e-05
7.13908e-05
1.19248e-07
7.14349e-05
3.03695e-07
7.14766e-05
4.09935e-07
7.15154e-05
4.76634e-07
7.15528e-05
5.25729e-07
7.15883e-05
5.58823e-07
7.16216e-05
5.78379e-07
7.16532e-05
5.88945e-07
7.16831e-05
5.93321e-07
7.17117e-05
5.92852e-07
7.1739e-05
5.88574e-07
7.17652e-05
5.81418e-07
7.17902e-05
5.72117e-07
7.18143e-05
5.61222e-07
7.18374e-05
5.49172e-07
7.18597e-05
5.36326e-07
7.18812e-05
5.22984e-07
7.1902e-05
5.09392e-07
7.1922e-05
4.95764e-07
7.19413e-05
4.8229e-07
7.196e-05
4.69143e-07
7.19782e-05
4.56495e-07
7.19957e-05
4.44517e-07
7.20128e-05
4.33396e-07
7.20294e-05
4.23334e-07
7.20456e-05
4.1456e-07
7.20617e-05
4.07327e-07
7.20779e-05
4.01918e-07
7.20946e-05
3.98617e-07
7.21124e-05
3.97685e-07
7.21322e-05
3.9927e-07
7.21552e-05
4.03254e-07
4.09194e-07
7.21828e-05
7.34238e-05
1.00754e-07
7.34612e-05
2.66224e-07
7.35e-05
3.71223e-07
7.35374e-05
4.39231e-07
7.35743e-05
4.88828e-07
7.36099e-05
5.23149e-07
7.36439e-05
5.44428e-07
7.36762e-05
5.56594e-07
7.37072e-05
5.62378e-07
7.37368e-05
5.63207e-07
7.37653e-05
5.6014e-07
7.37926e-05
5.5411e-07
7.38188e-05
5.45854e-07
7.38441e-05
5.35932e-07
7.38685e-05
5.24791e-07
7.3892e-05
5.12795e-07
7.39148e-05
5.00246e-07
7.39368e-05
4.87396e-07
7.39581e-05
4.74461e-07
7.39787e-05
4.6163e-07
7.39988e-05
4.49078e-07
7.40183e-05
4.36972e-07
7.40374e-05
4.25476e-07
7.4056e-05
4.14758e-07
7.40743e-05
4.04997e-07
7.40925e-05
3.96379e-07
7.41107e-05
3.89098e-07
7.41293e-05
3.83346e-07
7.41486e-05
3.79284e-07
7.41693e-05
3.77009e-07
7.41921e-05
3.76489e-07
7.42179e-05
3.77411e-07
3.7933e-07
7.42478e-05
7.55168e-05
8.64175e-08
7.55487e-05
2.34376e-07
7.55842e-05
3.35689e-07
7.56197e-05
4.03678e-07
7.56554e-05
4.53192e-07
7.56904e-05
4.88171e-07
7.57241e-05
5.10713e-07
7.57565e-05
5.24172e-07
7.57877e-05
5.31143e-07
7.58178e-05
5.33103e-07
7.58468e-05
5.31122e-07
7.58748e-05
5.26119e-07
7.59019e-05
5.18827e-07
7.5928e-05
5.09811e-07
7.59533e-05
4.99518e-07
7.59777e-05
4.88315e-07
7.60015e-05
4.76507e-07
7.60245e-05
4.64346e-07
7.60469e-05
4.52049e-07
7.60688e-05
4.39805e-07
7.60901e-05
4.27784e-07
7.61109e-05
4.16146e-07
7.61313e-05
4.05043e-07
7.61515e-05
3.94623e-07
7.61714e-05
3.85037e-07
7.61914e-05
3.76427e-07
7.62115e-05
3.6893e-07
7.62322e-05
3.62657e-07
7.62538e-05
3.57672e-07
7.62769e-05
3.53954e-07
7.6302e-05
3.51357e-07
7.633e-05
3.49459e-07
3.47868e-07
7.63614e-05
7.7671e-05
7.50139e-08
7.76982e-05
2.07184e-07
7.77306e-05
3.03234e-07
7.77643e-05
3.70011e-07
7.77987e-05
4.18835e-07
7.78329e-05
4.53889e-07
7.78664e-05
4.77209e-07
7.7899e-05
4.9164e-07
7.79305e-05
4.99583e-07
7.79611e-05
5.02521e-07
7.79907e-05
5.01511e-07
7.80194e-05
4.97449e-07
7.80472e-05
4.91058e-07
7.80741e-05
4.82897e-07
7.81002e-05
4.73415e-07
7.81255e-05
4.62976e-07
7.81501e-05
4.51882e-07
7.81741e-05
4.40387e-07
7.81975e-05
4.28702e-07
7.82202e-05
4.17014e-07
7.82425e-05
4.05486e-07
7.82644e-05
3.94267e-07
7.8286e-05
3.83495e-07
7.83073e-05
3.73298e-07
7.83285e-05
3.63794e-07
7.83499e-05
3.55089e-07
7.83715e-05
3.47265e-07
7.83938e-05
3.4037e-07
7.84171e-05
3.34393e-07
7.84418e-05
3.29237e-07
7.84685e-05
3.24701e-07
7.84976e-05
3.20343e-07
3.15885e-07
7.85296e-05
7.98876e-05
6.5706e-08
7.9911e-05
1.83776e-07
7.99406e-05
2.73646e-07
7.99724e-05
3.38249e-07
8.00053e-05
3.8588e-07
8.00387e-05
4.20553e-07
8.00716e-05
4.44244e-07
8.01039e-05
4.59359e-07
8.01354e-05
4.68069e-07
8.01661e-05
4.71822e-07
8.0196e-05
4.71655e-07
8.0225e-05
4.68432e-07
8.02532e-05
4.62858e-07
8.02806e-05
4.55484e-07
8.03073e-05
4.46753e-07
8.03332e-05
4.37024e-07
8.03585e-05
4.26596e-07
8.03832e-05
4.15717e-07
8.04073e-05
4.04596e-07
8.04309e-05
3.93411e-07
8.04541e-05
3.82318e-07
8.04769e-05
3.71455e-07
8.04994e-05
3.60943e-07
8.05218e-05
3.50888e-07
8.05443e-05
3.41382e-07
8.05668e-05
3.32494e-07
8.05898e-05
3.24264e-07
8.06135e-05
3.1669e-07
8.06382e-05
3.09712e-07
8.06643e-05
3.03189e-07
8.06921e-05
2.96896e-07
8.0722e-05
2.90389e-07
2.83482e-07
8.07544e-05
8.21682e-05
5.79206e-08
8.21886e-05
1.63425e-07
8.22156e-05
2.46667e-07
8.22455e-05
3.08348e-07
8.2277e-05
3.54332e-07
8.23093e-05
3.88212e-07
8.23417e-05
4.11873e-07
8.23737e-05
4.27362e-07
8.24052e-05
4.3661e-07
8.2436e-05
4.40999e-07
8.24661e-05
4.41533e-07
8.24955e-05
4.39038e-07
8.25242e-05
4.34193e-07
8.25521e-05
4.27534e-07
8.25794e-05
4.19495e-07
8.2606e-05
4.10426e-07
8.2632e-05
4.0062e-07
8.26574e-05
3.90317e-07
8.26822e-05
3.7972e-07
8.27066e-05
3.69e-07
8.27307e-05
3.58302e-07
8.27544e-05
3.4775e-07
8.27779e-05
3.37451e-07
8.28013e-05
3.2749e-07
8.28247e-05
3.17933e-07
8.28484e-05
3.08819e-07
8.28725e-05
3.00156e-07
8.28973e-05
2.91908e-07
8.2923e-05
2.83984e-07
8.295e-05
2.76225e-07
8.29785e-05
2.6841e-07
8.30087e-05
2.60142e-07
2.51347e-07
8.30408e-05
8.45144e-05
5.12636e-08
8.45323e-05
1.45537e-07
8.4557e-05
2.22015e-07
8.45851e-05
2.80217e-07
8.46153e-05
3.24162e-07
8.46466e-05
3.56899e-07
8.46783e-05
3.80185e-07
8.47099e-05
3.95771e-07
8.47411e-05
4.05351e-07
8.47719e-05
4.10214e-07
8.48021e-05
4.11319e-07
8.48317e-05
4.09447e-07
8.48607e-05
4.05245e-07
8.4889e-05
3.99231e-07
8.49166e-05
3.91823e-07
8.49437e-05
3.83362e-07
8.49702e-05
3.7413e-07
8.49961e-05
3.6436e-07
8.50216e-05
3.54245e-07
8.50467e-05
3.43946e-07
8.50714e-05
3.33598e-07
8.50958e-05
3.23313e-07
8.51201e-05
3.13181e-07
8.51443e-05
3.03269e-07
8.51686e-05
2.93623e-07
8.51932e-05
2.84259e-07
8.52182e-05
2.7516e-07
8.52438e-05
2.66271e-07
8.52703e-05
2.57486e-07
8.52979e-05
2.48642e-07
8.53268e-05
2.39538e-07
8.53571e-05
2.29809e-07
2.19461e-07
8.5389e-05
8.6928e-05
4.54601e-08
8.69439e-05
1.29635e-07
8.69665e-05
1.99407e-07
8.6993e-05
2.53744e-07
8.70218e-05
2.95315e-07
8.70521e-05
3.26607e-07
8.70831e-05
3.49211e-07
8.71142e-05
3.64628e-07
8.71452e-05
3.74329e-07
8.71759e-05
3.79497e-07
8.72062e-05
3.81031e-07
8.7236e-05
3.79666e-07
8.72652e-05
3.76012e-07
8.72939e-05
3.70563e-07
8.7322e-05
3.6372e-07
8.73496e-05
3.5581e-07
8.73766e-05
3.47102e-07
8.74031e-05
3.3782e-07
8.74292e-05
3.28145e-07
8.7455e-05
3.18229e-07
8.74804e-05
3.08197e-07
8.75055e-05
2.98146e-07
8.75306e-05
2.88152e-07
8.75556e-05
2.78269e-07
8.75806e-05
2.68524e-07
8.7606e-05
2.58917e-07
8.76317e-05
2.49416e-07
8.76581e-05
2.39955e-07
8.76851e-05
2.30427e-07
8.77131e-05
2.20679e-07
8.77421e-05
2.10536e-07
8.77722e-05
1.99694e-07
1.88241e-07
8.78034e-05
8.94107e-05
4.03144e-08
8.9425e-05
1.15341e-07
8.94458e-05
1.78576e-07
8.94708e-05
2.28797e-07
8.94983e-05
2.6772e-07
8.95276e-05
2.97308e-07
8.95579e-05
3.1896e-07
8.95886e-05
3.33965e-07
8.96193e-05
3.43592e-07
8.96499e-05
3.48904e-07
8.96802e-05
3.50737e-07
8.97101e-05
3.49772e-07
8.97395e-05
3.46579e-07
8.97685e-05
3.41624e-07
8.97969e-05
3.35286e-07
8.98248e-05
3.27875e-07
8.98523e-05
3.19647e-07
8.98793e-05
3.10813e-07
8.99059e-05
3.01545e-07
8.99321e-05
2.91982e-07
8.99581e-05
2.82237e-07
8.99838e-05
2.72397e-07
9.00095e-05
2.62526e-07
9.00351e-05
2.52663e-07
9.00608e-05
2.42825e-07
9.00867e-05
2.33001e-07
9.0113e-05
2.23151e-07
9.01397e-05
2.13206e-07
9.01671e-05
2.03065e-07
9.01952e-05
1.92594e-07
9.0224e-05
1.81644e-07
9.02538e-05
1.69955e-07
1.57668e-07
9.02844e-05
9.19645e-05
3.56845e-08
9.19775e-05
1.02352e-07
9.19968e-05
1.59277e-07
9.20203e-05
2.05235e-07
9.20468e-05
2.41291e-07
9.20751e-05
2.68954e-07
9.21047e-05
2.8942e-07
9.21348e-05
3.03794e-07
9.21653e-05
3.13159e-07
9.21957e-05
3.18461e-07
9.2226e-05
3.20462e-07
9.2256e-05
3.19788e-07
9.22856e-05
3.16965e-07
9.23148e-05
3.12427e-07
9.23435e-05
3.06529e-07
9.23718e-05
2.99563e-07
9.23997e-05
2.91769e-07
9.24272e-05
2.83344e-07
9.24543e-05
2.74448e-07
9.24811e-05
2.65209e-07
9.25076e-05
2.5573e-07
9.25339e-05
2.46087e-07
9.25601e-05
2.36333e-07
9.25862e-05
2.26499e-07
9.26125e-05
2.16591e-07
9.26389e-05
2.06594e-07
9.26656e-05
1.96466e-07
9.26926e-05
1.86142e-07
9.27202e-05
1.75531e-07
9.27482e-05
1.64521e-07
9.27769e-05
1.52996e-07
9.28061e-05
1.40745e-07
1.2796e-07
9.28358e-05
9.45914e-05
3.14643e-08
9.46033e-05
9.04266e-08
9.46213e-05
1.41287e-07
9.46436e-05
1.82914e-07
9.4669e-05
2.15935e-07
9.46964e-05
2.41485e-07
9.47253e-05
2.60565e-07
9.4755e-05
2.74109e-07
9.47851e-05
2.83041e-07
9.48154e-05
2.88187e-07
9.48456e-05
2.90232e-07
9.48756e-05
2.89745e-07
9.49054e-05
2.87207e-07
9.49348e-05
2.83015e-07
9.49638e-05
2.77499e-07
9.49925e-05
2.70931e-07
9.50207e-05
2.63532e-07
9.50486e-05
2.55484e-07
9.50761e-05
2.46936e-07
9.51033e-05
2.38005e-07
9.51302e-05
2.28782e-07
9.5157e-05
2.19334e-07
9.51836e-05
2.09706e-07
9.52102e-05
1.99922e-07
9.52368e-05
1.89984e-07
9.52635e-05
1.79874e-07
9.52904e-05
1.69553e-07
9.53176e-05
1.58963e-07
9.53451e-05
1.48028e-07
9.5373e-05
1.36658e-07
9.54012e-05
1.24763e-07
9.54298e-05
1.12173e-07
9.9106e-08
9.54586e-05
9.72934e-05
2.75727e-08
9.73045e-05
7.93708e-08
9.73213e-05
1.2441e-07
9.73426e-05
1.61687e-07
9.7367e-05
1.91549e-07
9.73936e-05
2.14833e-07
9.74218e-05
2.32352e-07
9.7451e-05
2.44892e-07
9.74808e-05
2.53233e-07
9.75109e-05
2.58086e-07
9.75411e-05
2.60059e-07
9.75712e-05
2.59661e-07
9.76011e-05
2.57323e-07
9.76307e-05
2.53409e-07
9.766e-05
2.48219e-07
9.76889e-05
2.42001e-07
9.77175e-05
2.34959e-07
9.77457e-05
2.2726e-07
9.77736e-05
2.19039e-07
9.78012e-05
2.10401e-07
9.78286e-05
2.01429e-07
9.78557e-05
1.92182e-07
9.78827e-05
1.82698e-07
9.79096e-05
1.72996e-07
9.79365e-05
1.63076e-07
9.79635e-05
1.52922e-07
9.79906e-05
1.42499e-07
9.80178e-05
1.3176e-07
9.80451e-05
1.20644e-07
9.80727e-05
1.09083e-07
9.81005e-05
9.70134e-08
9.81283e-05
8.43039e-08
7.11972e-08
9.81562e-05
0.000100073
2.39457e-08
0.000100083
6.90241e-08
0.000100099
1.08467e-07
0.000100119
1.41412e-07
0.000100143
1.68027e-07
0.000100169
1.88916e-07
0.000100196
2.04728e-07
0.000100225
2.16112e-07
0.000100255
2.23719e-07
0.000100285
2.28155e-07
0.000100315
2.29947e-07
0.000100345
2.29545e-07
0.000100375
2.27332e-07
0.000100405
2.23632e-07
0.000100434
2.18716e-07
0.000100463
2.12808e-07
0.000100492
2.06093e-07
0.000100521
1.9872e-07
0.000100549
1.90813e-07
0.000100577
1.82465e-07
0.000100605
1.73751e-07
0.000100632
1.64721e-07
0.000100659
1.5541e-07
0.000100686
1.45833e-07
0.000100713
1.35991e-07
0.000100741
1.25871e-07
0.000100768
1.15444e-07
0.000100795
1.04674e-07
0.000100822
9.35169e-08
0.000100849
8.19228e-08
0.000100876
6.98508e-08
0.000100903
5.72e-08
4.42197e-08
0.00010093
0.000102931
2.0531e-08
0.000102941
5.92522e-08
0.000102956
9.33009e-08
0.000102976
1.21949e-07
0.000102999
1.45256e-07
0.000103024
1.63647e-07
0.000103051
1.77628e-07
0.000103079
1.87724e-07
0.000103109
1.94472e-07
0.000103138
1.98378e-07
0.000103168
1.99891e-07
0.000103199
1.99401e-07
0.000103229
1.97242e-07
0.000103259
1.93699e-07
0.000103288
1.89011e-07
0.000103318
1.83377e-07
0.000103347
1.76962e-07
0.000103376
1.69899e-07
0.000103404
1.62298e-07
0.000103432
1.54243e-07
0.00010346
1.45798e-07
0.000103488
1.37009e-07
0.000103516
1.27906e-07
0.000103543
1.18503e-07
0.00010357
1.08803e-07
0.000103597
9.87963e-08
0.000103624
8.84629e-08
0.000103651
7.77773e-08
0.000103678
6.67087e-08
0.000103705
5.5226e-08
0.000103731
4.33064e-08
0.000103757
3.08776e-08
1.81904e-08
0.000103784
0.000105872
1.72848e-08
0.000105881
4.99392e-08
0.000105896
7.87653e-08
0.000105915
1.0316e-07
0.000105937
1.23117e-07
0.000105961
1.38929e-07
0.000105988
1.50975e-07
0.000106016
1.59673e-07
0.000106045
1.65452e-07
0.000106075
1.68729e-07
0.000106105
1.69876e-07
0.000106135
1.69224e-07
0.000106165
1.67057e-07
0.000106195
1.6362e-07
0.000106225
1.59121e-07
0.000106255
1.53732e-07
0.000106284
1.47598e-07
0.000106313
1.40836e-07
0.000106342
1.33541e-07
0.00010637
1.25788e-07
0.000106399
1.17632e-07
0.000106427
1.09115e-07
0.000106454
1.00263e-07
0.000106482
9.10909e-08
0.000106509
8.16024e-08
0.000106536
7.17925e-08
0.000106563
6.16501e-08
0.000106589
5.1159e-08
0.000106616
4.03018e-08
0.000106642
2.90613e-08
0.000106668
1.743e-08
0.000106693
5.35756e-09
-6.91239e-09
0.000106718
0.000108897
1.41681e-08
0.000108905
4.09813e-08
0.00010892
6.47249e-08
0.000108938
8.49084e-08
0.000108959
1.01488e-07
0.000108984
1.14655e-07
0.00010901
1.24683e-07
0.000109038
1.31889e-07
0.000109067
1.36609e-07
0.000109096
1.39171e-07
0.000109126
1.39878e-07
0.000109156
1.39e-07
0.000109187
1.36772e-07
0.000109217
1.334e-07
0.000109247
1.29058e-07
0.000109277
1.23893e-07
0.000109306
1.18029e-07
0.000109336
1.11564e-07
0.000109365
1.04582e-07
0.000109393
9.71468e-08
0.000109422
8.93067e-08
0.00010945
8.10981e-08
0.000109477
7.2545e-08
0.000109505
6.36623e-08
0.000109532
5.44559e-08
0.000109559
4.4926e-08
0.000109585
3.50679e-08
0.000109612
2.48752e-08
0.000109638
1.43402e-08
0.000109663
3.45902e-09
0.000109688
-7.76596e-09
0.000109713
-1.93654e-08
-3.1109e-08
0.000109737
0.000112008
1.11451e-08
0.000112016
3.22821e-08
0.00011203
5.10491e-08
0.000112048
6.70556e-08
0.000112069
8.02387e-08
0.000112093
9.07095e-08
0.000112119
9.8652e-08
0.000112147
1.04292e-07
0.000112175
1.07878e-07
0.000112205
1.09657e-07
0.000112235
1.09863e-07
0.000112265
1.08707e-07
0.000112296
1.06377e-07
0.000112326
1.03038e-07
0.000112356
9.88302e-08
0.000112386
9.38758e-08
0.000112416
8.82757e-08
0.000112445
8.21137e-08
0.000112474
7.54579e-08
0.000112503
6.83628e-08
0.000112532
6.08702e-08
0.00011256
5.30115e-08
0.000112587
4.48089e-08
0.000112615
3.6277e-08
0.000112642
2.74243e-08
0.000112669
1.82551e-08
0.000112695
8.77103e-09
0.000112721
-1.02715e-09
0.000112746
-1.11382e-08
0.000112771
-2.15567e-08
0.000112796
-3.22721e-08
0.00011282
-4.32991e-08
-5.44245e-08
0.000112843
0.000115207
8.18002e-09
0.000115216
2.37482e-08
0.000115229
3.76094e-08
0.000115247
4.94607e-08
0.000115268
5.92303e-08
0.000115292
6.6966e-08
0.000115318
7.2771e-08
0.000115345
7.67878e-08
0.000115374
7.91824e-08
0.000115403
8.01267e-08
0.000115433
7.97863e-08
0.000115464
7.83151e-08
0.000115494
7.5853e-08
0.000115525
7.25248e-08
0.000115555
6.84396e-08
0.000115585
6.36913e-08
0.000115615
5.83601e-08
0.000115645
5.25126e-08
0.000115674
4.6204e-08
0.000115703
3.94785e-08
0.000115732
3.23714e-08
0.00011576
2.49092e-08
0.000115787
1.71122e-08
0.000115815
8.99473e-09
0.000115842
5.67558e-10
0.000115868
-8.16204e-09
0.000115894
-1.71872e-08
0.000115919
-2.65017e-08
0.000115944
-3.60973e-08
0.000115969
-4.59623e-08
0.000115993
-5.60807e-08
0.000116016
-6.64571e-08
-7.68992e-08
0.000116038
0.000118499
5.23467e-09
0.000118507
1.52858e-08
0.000118521
2.42742e-08
0.000118538
3.19758e-08
0.000118559
3.83155e-08
0.000118583
4.32861e-08
0.000118609
4.69165e-08
0.000118636
4.92702e-08
0.000118665
5.0435e-08
0.000118694
5.05092e-08
0.000118725
4.95927e-08
0.000118755
4.7783e-08
0.000118786
4.51724e-08
0.000118817
4.18459e-08
0.000118847
3.78801e-08
0.000118877
3.33424e-08
0.000118907
2.82915e-08
0.000118937
2.27774e-08
0.000118967
1.68419e-08
0.000118996
1.05198e-08
0.000119024
3.8388e-09
0.000119052
-3.17824e-09
0.00011908
-1.05141e-08
0.000119107
-1.81541e-08
0.000119134
-2.60872e-08
0.00011916
-3.43027e-08
0.000119185
-4.2791e-08
0.00011921
-5.15405e-08
0.000119235
-6.05394e-08
0.000119259
-6.97699e-08
0.000119282
-7.92134e-08
0.000119304
-8.88624e-08
-9.8546e-08
0.000119326
0.000121884
2.27829e-09
0.000121893
6.80681e-09
0.000121906
1.09124e-08
0.000121924
1.44479e-08
0.000121945
1.73367e-08
0.000121968
1.95189e-08
0.000121994
2.09507e-08
0.000122022
2.16183e-08
0.000122051
2.1533e-08
0.000122081
2.07206e-08
0.000122111
1.92161e-08
0.000122142
1.70612e-08
0.000122173
1.43008e-08
0.000122204
1.09807e-08
0.000122234
7.14478e-09
0.000122265
2.83419e-09
0.000122295
-1.91372e-09
0.000122325
-7.0658e-09
0.000122354
-1.25929e-08
0.000122383
-1.84705e-08
0.000122412
-2.46773e-08
0.00012244
-3.11958e-08
0.000122467
-3.80107e-08
0.000122494
-4.51092e-08
0.000122521
-5.24788e-08
0.000122546
-6.01083e-08
0.000122572
-6.79848e-08
0.000122596
-7.6095e-08
0.00012262
-8.44233e-08
0.000122643
-9.29505e-08
0.000122666
-1.01657e-07
0.000122687
-1.10532e-07
-1.1943e-07
0.000122708
0.000125366
-7.03115e-10
0.000125375
-1.77205e-09
0.000125389
-2.61168e-09
0.000125406
-3.28722e-09
0.000125427
-3.8788e-09
0.000125452
-4.50378e-09
0.000125478
-5.28185e-09
0.000125506
-6.30594e-09
0.000125535
-7.64254e-09
0.000125565
-9.33909e-09
0.000125596
-1.14259e-08
0.000125627
-1.39174e-08
0.000125658
-1.68156e-08
0.000125689
-2.01139e-08
0.00012572
-2.38005e-08
0.00012575
-2.78604e-08
0.000125781
-3.22771e-08
0.000125811
-3.7034e-08
0.00012584
-4.21148e-08
0.000125869
-4.75044e-08
0.000125898
-5.31889e-08
0.000125926
-5.91556e-08
0.000125953
-6.53922e-08
0.00012598
-7.18873e-08
0.000126006
-7.86291e-08
0.000126032
-8.56053e-08
0.000126056
-9.28024e-08
0.00012608
-1.00205e-07
0.000126104
-1.07797e-07
0.000126126
-1.15555e-07
0.000126148
-1.2346e-07
0.000126169
-1.31492e-07
-1.39524e-07
0.000126189
0.000128948
-3.75495e-09
0.000128957
-1.05738e-08
0.000128971
-1.64783e-08
0.000128989
-2.14387e-08
0.000129011
-2.55455e-08
0.000129035
-2.89874e-08
0.000129062
-3.19697e-08
0.00012909
-3.46693e-08
0.00012912
-3.72335e-08
0.00012915
-3.9786e-08
0.000129181
-4.24241e-08
0.000129213
-4.52192e-08
0.000129244
-4.82203e-08
0.000129275
-5.14601e-08
0.000129306
-5.49589e-08
0.000129337
-5.87274e-08
0.000129368
-6.27698e-08
0.000129398
-6.70854e-08
0.000129427
-7.16708e-08
0.000129456
-7.65203e-08
0.000129485
-8.16273e-08
0.000129513
-8.69837e-08
0.00012954
-9.25812e-08
0.000129566
-9.84098e-08
0.000129592
-1.04459e-07
0.000129617
-1.10717e-07
0.000129642
-1.17171e-07
0.000129665
-1.23804e-07
0.000129688
-1.30601e-07
0.00012971
-1.3754e-07
0.000129731
-1.44605e-07
0.000129752
-1.5178e-07
-1.58963e-07
0.000129771
0.000132632
-6.94173e-09
0.000132641
-1.97663e-08
0.000132656
-3.09248e-08
0.000132675
-4.02735e-08
0.000132697
-4.79308e-08
0.000132722
-5.4184e-08
0.00013275
-5.93423e-08
0.000132779
-6.36757e-08
0.000132809
-6.74195e-08
0.00013284
-7.07783e-08
0.000132871
-7.39194e-08
0.000132903
-7.69709e-08
0.000132935
-8.00291e-08
0.000132967
-8.31652e-08
0.000132998
-8.64307e-08
0.000133029
-8.98616e-08
0.00013306
-9.34817e-08
0.00013309
-9.73067e-08
0.00013312
-1.01345e-07
0.000133149
-1.056e-07
0.000133177
-1.10073e-07
0.000133205
-1.14761e-07
0.000133232
-1.19659e-07
0.000133259
-1.2476e-07
0.000133284
-1.30054e-07
0.000133309
-1.35532e-07
0.000133333
-1.41181e-07
0.000133356
-1.46984e-07
0.000133378
-1.52927e-07
0.0001334
-1.58987e-07
0.00013342
-1.65147e-07
0.00013344
-1.7138e-07
-1.77601e-07
0.000133459
0.000136422
-1.03439e-08
0.000136431
-2.95703e-08
0.000136447
-4.62599e-08
0.000136467
-6.01315e-08
0.00013649
-7.1368e-08
0.000136516
-8.04024e-08
0.000136545
-8.76722e-08
0.000136575
-9.35525e-08
0.000136606
-9.83782e-08
0.000136637
-1.02445e-07
0.000136669
-1.05995e-07
0.000136701
-1.09215e-07
0.000136734
-1.12248e-07
0.000136766
-1.15205e-07
0.000136797
-1.18167e-07
0.000136829
-1.21194e-07
0.00013686
-1.24328e-07
0.00013689
-1.276e-07
0.00013692
-1.3103e-07
0.000136949
-1.3463e-07
0.000136977
-1.38408e-07
0.000137005
-1.42367e-07
0.000137031
-1.46504e-07
0.000137058
-1.50817e-07
0.000137083
-1.55298e-07
0.000137107
-1.59937e-07
0.000137131
-1.64725e-07
0.000137153
-1.69648e-07
0.000137175
-1.74691e-07
0.000137196
-1.79838e-07
0.000137216
-1.85078e-07
0.000137235
-1.90394e-07
-1.95726e-07
0.000137253
0.000140319
-1.40724e-08
0.00014033
-4.02933e-08
0.000140347
-6.28999e-08
0.000140368
-8.14501e-08
0.000140393
-9.62727e-08
0.000140421
-1.0803e-07
0.00014045
-1.17321e-07
0.000140481
-1.24639e-07
0.000140513
-1.3043e-07
0.000140546
-1.35091e-07
0.000140579
-1.38941e-07
0.000140612
-1.42227e-07
0.000140645
-1.45141e-07
0.000140678
-1.47828e-07
0.00014071
-1.50402e-07
0.000140742
-1.52944e-07
0.000140773
-1.55516e-07
0.000140803
-1.58161e-07
0.000140833
-1.60911e-07
0.000140862
-1.63786e-07
0.000140891
-1.668e-07
0.000140918
-1.69961e-07
0.000140945
-1.73272e-07
0.000140971
-1.7673e-07
0.000140996
-1.80333e-07
0.00014102
-1.84072e-07
0.000141043
-1.87938e-07
0.000141066
-1.9192e-07
0.000141087
-1.96003e-07
0.000141107
-2.00171e-07
0.000141127
-2.04408e-07
0.000141145
-2.08684e-07
-2.12953e-07
0.000141162
0.000144329
-1.82901e-08
0.000144341
-5.23851e-08
0.000144359
-8.14317e-08
0.000144383
-1.04809e-07
0.00014441
-1.23151e-07
0.000144439
-1.37473e-07
0.00014447
-1.4858e-07
0.000144503
-1.57109e-07
0.000144536
-1.63647e-07
0.00014457
-1.68706e-07
0.000144603
-1.72688e-07
0.000144637
-1.75895e-07
0.000144671
-1.78561e-07
0.000144704
-1.8087e-07
0.000144736
-1.82958e-07
0.000144768
-1.84928e-07
0.000144799
-1.86857e-07
0.00014483
-1.888e-07
0.00014486
-1.90799e-07
0.000144889
-1.92881e-07
0.000144917
-1.95067e-07
0.000144945
-1.97367e-07
0.000144971
-1.99789e-07
0.000144997
-2.02335e-07
0.000145022
-2.05003e-07
0.000145045
-2.07788e-07
0.000145068
-2.10682e-07
0.00014509
-2.13679e-07
0.000145111
-2.16768e-07
0.00014513
-2.19938e-07
0.000145149
-2.23184e-07
0.000145167
-2.26495e-07
-2.2984e-07
0.000145184
0.000148453
-2.32528e-08
0.000148467
-6.65263e-08
0.000148488
-1.0268e-07
0.000148514
-1.31e-07
0.000148544
-1.52767e-07
0.000148576
-1.69506e-07
0.00014861
-1.82221e-07
0.000148644
-1.91702e-07
0.000148679
-1.98717e-07
0.000148715
-2.03922e-07
0.00014875
-2.07803e-07
0.000148785
-2.10721e-07
0.000148819
-2.12954e-07
0.000148853
-2.14718e-07
0.000148886
-2.16174e-07
0.000148919
-2.17443e-07
0.00014895
-2.18612e-07
0.000148981
-2.19748e-07
0.000149011
-2.20898e-07
0.000149041
-2.22096e-07
0.000149069
-2.23367e-07
0.000149096
-2.24727e-07
0.000149123
-2.26184e-07
0.000149148
-2.27743e-07
0.000149172
-2.29405e-07
0.000149196
-2.31167e-07
0.000149218
-2.33024e-07
0.000149239
-2.34969e-07
0.00014926
-2.36992e-07
0.000149279
-2.3908e-07
0.000149297
-2.41222e-07
0.000149314
-2.43388e-07
-2.45559e-07
0.000149329
0.000152695
-2.94117e-08
0.000152713
-8.3874e-08
0.000152738
-1.27831e-07
0.000152768
-1.60808e-07
0.0001528
-1.85496e-07
0.000152835
-2.04192e-07
0.000152871
-2.18077e-07
0.000152907
-2.2811e-07
0.000152944
-2.3527e-07
0.00015298
-2.40349e-07
0.000153016
-2.439e-07
0.000153052
-2.46331e-07
0.000153087
-2.47959e-07
0.000153121
-2.49029e-07
0.000153155
-2.4972e-07
0.000153188
-2.50167e-07
0.000153219
-2.50467e-07
0.00015325
-2.50696e-07
0.00015328
-2.50906e-07
0.000153309
-2.51136e-07
0.000153337
-2.51415e-07
0.000153364
-2.51761e-07
0.00015339
-2.52185e-07
0.000153415
-2.52695e-07
0.000153439
-2.53294e-07
0.000153462
-2.53982e-07
0.000153484
-2.54755e-07
0.000153505
-2.5561e-07
0.000153524
-2.56542e-07
0.000153543
-2.57547e-07
0.00015356
-2.58626e-07
0.000153576
-2.59773e-07
-2.60978e-07
0.000153592
0.00015706
-3.75171e-08
0.000157082
-1.06393e-07
0.000157113
-1.59098e-07
0.000157149
-1.96427e-07
0.000157187
-2.23525e-07
0.000157226
-2.4352e-07
0.000157266
-2.57767e-07
0.000157305
-2.67561e-07
0.000157344
-2.74194e-07
0.000157383
-2.78595e-07
0.00015742
-2.81361e-07
0.000157457
-2.82932e-07
0.000157492
-2.83652e-07
0.000157527
-2.8378e-07
0.000157561
-2.83502e-07
0.000157594
-2.82954e-07
0.000157625
-2.82238e-07
0.000157656
-2.8143e-07
0.000157686
-2.80585e-07
0.000157715
-2.79745e-07
0.000157742
-2.78936e-07
0.000157768
-2.78181e-07
0.000157794
-2.77492e-07
0.000157818
-2.76877e-07
0.000157841
-2.76341e-07
0.000157863
-2.75885e-07
0.000157884
-2.75507e-07
0.000157903
-2.75204e-07
0.000157922
-2.74971e-07
0.000157939
-2.74797e-07
0.000157955
-2.74676e-07
0.00015797
-2.74582e-07
-2.74514e-07
0.000157983
0.00016155
-4.9412e-08
0.000161581
-1.36717e-07
0.000161618
-1.96906e-07
0.000161659
-2.3672e-07
0.000161701
-2.65448e-07
0.000161743
-2.86197e-07
0.000161786
-3.00129e-07
0.000161827
-3.09028e-07
0.000161868
-3.1458e-07
0.000161907
-3.1782e-07
0.000161945
-3.19374e-07
0.000161982
-3.19713e-07
0.000162017
-3.19207e-07
0.000162051
-3.18122e-07
0.000162085
-3.16645e-07
0.000162117
-3.14912e-07
0.000162147
-3.1302e-07
0.000162177
-3.11044e-07
0.000162205
-3.09036e-07
0.000162233
-3.07033e-07
0.000162259
-3.05064e-07
0.000162284
-3.03146e-07
0.000162308
-3.01293e-07
0.00016233
-2.99511e-07
0.000162352
-2.97807e-07
0.000162372
-2.9618e-07
0.000162391
-2.94631e-07
0.000162409
-2.93159e-07
0.000162426
-2.91762e-07
0.000162442
-2.9044e-07
0.000162456
-2.89196e-07
0.000162469
-2.88038e-07
-2.8696e-07
0.000162482
0.000166174
-6.99678e-08
0.000166223
-1.85432e-07
0.000166275
-2.49098e-07
0.000166325
-2.86392e-07
0.000166373
-3.13288e-07
0.000166418
-3.31935e-07
0.000166461
-3.4328e-07
0.000166502
-3.49682e-07
0.000166541
-3.53042e-07
0.000166577
-3.54328e-07
0.000166612
-3.54094e-07
0.000166645
-3.52784e-07
0.000166676
-3.50746e-07
0.000166707
-3.4822e-07
0.000166735
-3.4537e-07
0.000166763
-3.42314e-07
0.000166789
-3.39139e-07
0.000166814
-3.35909e-07
0.000166837
-3.32668e-07
0.00016686
-3.29449e-07
0.000166881
-3.26274e-07