/*--------------------------------*- C++ -*----------------------------------*\
| =========                 |                                                 |
| \\      /  F ield         | OpenFOAM: The Open Source CFD Toolbox           |
|  \\    /   O peration     | Version:  4.1                                   |
|   \\  /    A nd           | Web:      www.OpenFOAM.org                      |
|    \\/     M anipulation  |                                                 |
\*---------------------------------------------------------------------------*/
FoamFile
{
    version     2.0;
    format      ascii;
    class       volSymmTensorField;
    location    "200";
    object      R;
}
// * * * * * * * * * * * * * * * * * * * * * * * * * * * * * * * * * * * * * //

dimensions      [0 2 -2 0 0 0 0];

internalField   nonuniform List<symmTensor> 
6820
(
(0.205732 -0.0655181 0 0.119059 0 0.158783)
(0.282327 -0.0957378 0 0.109535 0 0.187468)
(0.351933 -0.111301 0 0.106212 0 0.215544)
(0.414146 -0.12096 0 0.107185 0 0.242572)
(0.468927 -0.128211 0 0.110859 0 0.268124)
(0.516417 -0.134403 0 0.116012 0 0.291795)
(0.556897 -0.139948 0 0.121757 0 0.313248)
(0.59079 -0.144896 0 0.127487 0 0.33226)
(0.618634 -0.149198 0 0.132822 0 0.348736)
(0.641039 -0.152811 0 0.137552 0 0.362696)
(0.658639 -0.155728 0 0.141583 0 0.374247)
(0.672061 -0.157979 0 0.144897 0 0.383563)
(0.681901 -0.159621 0 0.147526 0 0.390855)
(0.688712 -0.160722 0 0.149529 0 0.396353)
(0.692989 -0.161357 0 0.150974 0 0.400288)
(0.695174 -0.161599 0 0.151938 0 0.402886)
(0.695648 -0.161514 0 0.152491 0 0.404353)
(0.694742 -0.161164 0 0.152702 0 0.404879)
(0.692736 -0.160602 0 0.152629 0 0.40463)
(0.689865 -0.159872 0 0.152327 0 0.403752)
(0.686327 -0.159014 0 0.151841 0 0.402371)
(0.682285 -0.15806 0 0.151209 0 0.400594)
(0.677875 -0.157036 0 0.150466 0 0.398511)
(0.673204 -0.155964 0 0.149637 0 0.396196)
(0.668361 -0.15486 0 0.148745 0 0.393713)
(0.663415 -0.153737 0 0.147809 0 0.39111)
(0.658421 -0.152604 0 0.146841 0 0.388428)
(0.653416 -0.151467 0 0.145854 0 0.385698)
(0.648426 -0.150329 0 0.144853 0 0.382941)
(0.643466 -0.149186 0 0.143841 0 0.380174)
(0.638527 -0.14804 0 0.142819 0 0.377399)
(0.633687 -0.146895 0 0.141819 0 0.374659)
(0.630534 -0.146781 0 0.141966 0 0.372691)
(0.141614 -0.008466 0 0.126764 0 0.13657)
(0.150538 -0.0154132 0 0.119379 0 0.139441)
(0.159408 -0.0210917 0 0.112608 0 0.141974)
(0.168023 -0.0259305 0 0.106664 0 0.144248)
(0.176199 -0.0300995 0 0.101598 0 0.146285)
(0.183854 -0.0337131 0 0.0973955 0 0.14811)
(0.19097 -0.0368707 0 0.0939958 0 0.149757)
(0.197549 -0.0396508 0 0.0913105 0 0.151252)
(0.203608 -0.0421153 0 0.0892425 0 0.152615)
(0.209179 -0.0443165 0 0.0876966 0 0.153867)
(0.214305 -0.0463005 0 0.0865848 0 0.155025)
(0.219034 -0.048108 0 0.0858283 0 0.156105)
(0.223417 -0.0497738 0 0.085359 0 0.157125)
(0.227507 -0.0513275 0 0.0851195 0 0.158098)
(0.231352 -0.0527933 0 0.0850625 0 0.159038)
(0.234997 -0.0541909 0 0.0851497 0 0.159956)
(0.238484 -0.0555358 0 0.0853506 0 0.160863)
(0.241847 -0.05684 0 0.085641 0 0.161768)
(0.245117 -0.0581127 0 0.086002 0 0.162679)
(0.248319 -0.0593607 0 0.0864187 0 0.163603)
(0.251476 -0.060589 0 0.0868799 0 0.164543)
(0.254604 -0.0618017 0 0.087377 0 0.165505)
(0.25772 -0.0630018 0 0.0879033 0 0.166494)
(0.260835 -0.0641914 0 0.088454 0 0.167511)
(0.263959 -0.0653722 0 0.0890255 0 0.168559)
(0.267102 -0.066546 0 0.0896155 0 0.169642)
(0.270273 -0.0677147 0 0.0902226 0 0.170761)
(0.273483 -0.0688809 0 0.0908468 0 0.171922)
(0.276747 -0.0700492 0 0.0914898 0 0.173131)
(0.280085 -0.0712253 0 0.0921549 0 0.174397)
(0.283537 -0.0724263 0 0.0928535 0 0.175739)
(0.287137 -0.0736576 0 0.0935922 0 0.177181)
(0.291678 -0.0752459 0 0.0947312 0 0.179038)
(0.135647 -0.00198155 0 0.129365 0 0.13447)
(0.138142 -0.00333261 0 0.124875 0 0.135412)
(0.140542 -0.00436733 0 0.120287 0 0.136113)
(0.142757 -0.00524994 0 0.115858 0 0.136576)
(0.144725 -0.00600327 0 0.111696 0 0.136817)
(0.146447 -0.00665847 0 0.107828 0 0.13687)
(0.14794 -0.00725479 0 0.104256 0 0.136768)
(0.149223 -0.00782091 0 0.100968 0 0.13654)
(0.150311 -0.00837449 0 0.097951 0 0.136206)
(0.151225 -0.00892687 0 0.0951858 0 0.135787)
(0.151986 -0.00948566 0 0.0926542 0 0.1353)
(0.152612 -0.0100556 0 0.0903373 0 0.134761)
(0.153125 -0.0106391 0 0.088217 0 0.134182)
(0.153542 -0.0112374 0 0.0862761 0 0.133576)
(0.15388 -0.0118504 0 0.0844982 0 0.132952)
(0.154158 -0.0124775 0 0.0828689 0 0.13232)
(0.154389 -0.0131177 0 0.0813744 0 0.131687)
(0.154588 -0.0137694 0 0.0800029 0 0.131059)
(0.154766 -0.0144314 0 0.0787435 0 0.130444)
(0.154935 -0.0151022 0 0.0775865 0 0.129846)
(0.155105 -0.01578 0 0.0765232 0 0.129268)
(0.155282 -0.0164631 0 0.0755454 0 0.128715)
(0.155472 -0.0171497 0 0.0746459 0 0.128187)
(0.155679 -0.0178385 0 0.0738184 0 0.127686)
(0.15591 -0.0185287 0 0.0730572 0 0.127214)
(0.15617 -0.0192197 0 0.0723578 0 0.126774)
(0.156463 -0.0199117 0 0.0717162 0 0.126366)
(0.156796 -0.0206058 0 0.0711293 0 0.125993)
(0.157177 -0.0213041 0 0.0705948 0 0.125658)
(0.157616 -0.0220111 0 0.0701127 0 0.125366)
(0.158126 -0.0227328 0 0.0696829 0 0.125121)
(0.158732 -0.0234869 0 0.0693176 0 0.124937)
(0.159519 -0.0243136 0 0.0690525 0 0.124845)
(0.134186 -0.000782879 0 0.130263 0 0.133857)
(0.135191 -0.00139776 0 0.126845 0 0.134317)
(0.136192 -0.0018807 0 0.123378 0 0.134656)
(0.137119 -0.00231628 0 0.120007 0 0.134859)
(0.13792 -0.00270609 0 0.116776 0 0.134921)
(0.13859 -0.00305289 0 0.113692 0 0.134859)
(0.139139 -0.00336915 0 0.110761 0 0.134692)
(0.139577 -0.00366485 0 0.107989 0 0.134436)
(0.13991 -0.00394618 0 0.105374 0 0.134104)
(0.140148 -0.00421801 0 0.102912 0 0.133708)
(0.140301 -0.00448464 0 0.100596 0 0.13326)
(0.140378 -0.00474959 0 0.0984182 0 0.132768)
(0.14039 -0.0050155 0 0.0963714 0 0.132241)
(0.140344 -0.00528433 0 0.0944471 0 0.131686)
(0.14025 -0.00555749 0 0.0926369 0 0.13111)
(0.140114 -0.00583596 0 0.0909331 0 0.130519)
(0.139945 -0.00612034 0 0.0893283 0 0.129917)
(0.139748 -0.00641101 0 0.0878156 0 0.12931)
(0.139531 -0.0067081 0 0.0863885 0 0.128699)
(0.139298 -0.00701163 0 0.085041 0 0.128091)
(0.139055 -0.0073215 0 0.0837679 0 0.127486)
(0.138807 -0.00763738 0 0.0825639 0 0.126888)
(0.138556 -0.00795895 0 0.0814245 0 0.126298)
(0.138307 -0.00828595 0 0.0803453 0 0.125718)
(0.138062 -0.00861828 0 0.0793224 0 0.12515)
(0.137825 -0.00895601 0 0.078352 0 0.124596)
(0.137598 -0.00929957 0 0.077431 0 0.124055)
(0.137384 -0.00964981 0 0.0765564 0 0.12353)
(0.137187 -0.0100083 0 0.075726 0 0.123021)
(0.137009 -0.0103774 0 0.0749381 0 0.12253)
(0.136854 -0.0107611 0 0.0741924 0 0.122057)
(0.136724 -0.0111648 0 0.0734909 0 0.121604)
(0.13662 -0.0116 0 0.0728474 0 0.121167)
(0.133619 -0.000369741 0 0.1308 0 0.133544)
(0.133991 -0.000663172 0 0.128074 0 0.133735)
(0.134406 -0.000892403 0 0.125331 0 0.133878)
(0.134815 -0.00111572 0 0.122629 0 0.133954)
(0.13517 -0.00133049 0 0.12 0 0.133948)
(0.135456 -0.00152914 0 0.117457 0 0.133863)
(0.135675 -0.00171483 0 0.115011 0 0.133708)
(0.135829 -0.00189184 0 0.112667 0 0.133492)
(0.135922 -0.00206241 0 0.110426 0 0.133221)
(0.135957 -0.00222813 0 0.108287 0 0.132903)
(0.13594 -0.00239062 0 0.106247 0 0.132545)
(0.135876 -0.00255134 0 0.104304 0 0.132154)
(0.135769 -0.00271143 0 0.102454 0 0.131734)
(0.135625 -0.00287178 0 0.100691 0 0.13129)
(0.135449 -0.00303307 0 0.0990127 0 0.130828)
(0.135244 -0.00319584 0 0.0974145 0 0.13035)
(0.135016 -0.00336052 0 0.0958922 0 0.129861)
(0.134767 -0.00352743 0 0.0944418 0 0.129363)
(0.134501 -0.00369682 0 0.0930596 0 0.12886)
(0.134222 -0.00386891 0 0.0917418 0 0.128354)
(0.133933 -0.00404386 0 0.0904848 0 0.127846)
(0.133637 -0.00422181 0 0.0892854 0 0.127339)
(0.133335 -0.00440292 0 0.0881402 0 0.126835)
(0.133031 -0.00458739 0 0.0870463 0 0.126334)
(0.132725 -0.00477552 0 0.0860008 0 0.125838)
(0.132421 -0.00496777 0 0.0850011 0 0.125349)
(0.13212 -0.00516482 0 0.0840446 0 0.124866)
(0.131822 -0.00536766 0 0.0831292 0 0.124391)
(0.13153 -0.0055777 0 0.0822532 0 0.123925)
(0.131243 -0.00579679 0 0.0814154 0 0.123466)
(0.130962 -0.00602725 0 0.0806157 0 0.123015)
(0.130684 -0.0062715 0 0.0798555 0 0.122572)
(0.130398 -0.00653386 0 0.0791371 0 0.122126)
(0.133352 -0.000209778 0 0.131145 0 0.133354)
(0.133395 -0.000362517 0 0.128832 0 0.133363)
(0.133482 -0.000470259 0 0.126515 0 0.13336)
(0.133596 -0.000577362 0 0.124223 0 0.133332)
(0.133699 -0.00068497 0 0.121983 0 0.133264)
(0.133773 -0.00078643 0 0.119805 0 0.133148)
(0.133812 -0.000882908 0 0.117697 0 0.132988)
(0.133817 -0.0009769 0 0.115662 0 0.132787)
(0.133787 -0.00106915 0 0.113704 0 0.132549)
(0.133721 -0.00115992 0 0.111821 0 0.132276)
(0.133622 -0.00124971 0 0.110014 0 0.131975)
(0.133493 -0.0013391 0 0.108281 0 0.131648)
(0.133338 -0.00142861 0 0.10662 0 0.131299)
(0.133157 -0.00151864 0 0.105029 0 0.130932)
(0.132955 -0.00160955 0 0.103505 0 0.130549)
(0.132734 -0.00170165 0 0.102045 0 0.130154)
(0.132496 -0.00179517 0 0.100647 0 0.129749)
(0.132243 -0.00189035 0 0.099307 0 0.129336)
(0.131979 -0.00198737 0 0.0980235 0 0.128917)
(0.131704 -0.00208639 0 0.0967934 0 0.128494)
(0.131422 -0.0021876 0 0.0956142 0 0.128069)
(0.131133 -0.00229117 0 0.0944832 0 0.127642)
(0.130839 -0.00239734 0 0.0933981 0 0.127216)
(0.130542 -0.00250639 0 0.0923567 0 0.126791)
(0.130244 -0.00261866 0 0.0913568 0 0.126368)
(0.129944 -0.00273467 0 0.0903966 0 0.125949)
(0.129645 -0.00285506 0 0.0894741 0 0.125533)
(0.129346 -0.00298068 0 0.088588 0 0.125121)
(0.129048 -0.00311259 0 0.0877371 0 0.124714)
(0.12875 -0.003252 0 0.086921 0 0.124311)
(0.128451 -0.00340009 0 0.0861398 0 0.123911)
(0.128149 -0.00355766 0 0.0853945 0 0.123514)
(0.127831 -0.00372571 0 0.084683 0 0.12311)
(0.133205 -0.000140074 0 0.131382 0 0.133226)
(0.133061 -0.000232216 0 0.129345 0 0.133103)
(0.132946 -0.000281906 0 0.127333 0 0.132982)
(0.132864 -0.000324906 0 0.125351 0 0.132859)
(0.132793 -0.000368789 0 0.123411 0 0.132722)
(0.132718 -0.000410819 0 0.121517 0 0.132562)
(0.132631 -0.000451778 0 0.119674 0 0.132378)
(0.132531 -0.000493265 0 0.117886 0 0.132171)
(0.132414 -0.000535518 0 0.116154 0 0.131939)
(0.132278 -0.000578357 0 0.114481 0 0.131686)
(0.132123 -0.000621847 0 0.112867 0 0.131413)
(0.131952 -0.000666183 0 0.11131 0 0.131122)
(0.131763 -0.000711534 0 0.109811 0 0.130815)
(0.131559 -0.000758038 0 0.108367 0 0.130495)
(0.131342 -0.000805822 0 0.106978 0 0.130163)
(0.131112 -0.000855005 0 0.10564 0 0.129822)
(0.130871 -0.000905694 0 0.104354 0 0.129473)
(0.130621 -0.000957991 0 0.103116 0 0.129118)
(0.130363 -0.001012 0 0.101925 0 0.128757)
(0.130098 -0.00106783 0 0.100778 0 0.128393)
(0.129827 -0.00112563 0 0.0996754 0 0.128027)
(0.129552 -0.00118554 0 0.0986139 0 0.12766)
(0.129273 -0.00124779 0 0.097592 0 0.127292)
(0.128992 -0.00131263 0 0.0966081 0 0.126924)
(0.128709 -0.00138042 0 0.0956607 0 0.126558)
(0.128425 -0.00145157 0 0.0947484 0 0.126193)
(0.12814 -0.00152665 0 0.09387 0 0.125831)
(0.127854 -0.00160628 0 0.0930246 0 0.125471)
(0.127568 -0.00169117 0 0.0922114 0 0.125113)
(0.12728 -0.00178199 0 0.0914304 0 0.124758)
(0.126989 -0.00187914 0 0.0906819 0 0.124405)
(0.126692 -0.00198246 0 0.0899664 0 0.124052)
(0.12638 -0.00209142 0 0.0892793 0 0.123693)
(0.133111 -0.000104574 0 0.131554 0 0.133134)
(0.132854 -0.000171615 0 0.129711 0 0.132914)
(0.132611 -0.000199183 0 0.127911 0 0.1327)
(0.132394 -0.00021373 0 0.126146 0 0.132493)
(0.132197 -0.000225331 0 0.12442 0 0.132287)
(0.132007 -0.000234363 0 0.122734 0 0.132074)
(0.131821 -0.000242265 0 0.12109 0 0.131854)
(0.131635 -0.000250903 0 0.119489 0 0.131622)
(0.131446 -0.000260919 0 0.117935 0 0.131379)
(0.13125 -0.000272337 0 0.116428 0 0.131124)
(0.131046 -0.000285201 0 0.114969 0 0.130858)
(0.130835 -0.000299595 0 0.113558 0 0.130581)
(0.130616 -0.000315561 0 0.112193 0 0.130294)
(0.13039 -0.000333116 0 0.110875 0 0.129999)
(0.130156 -0.00035228 0 0.109602 0 0.129696)
(0.129915 -0.000373079 0 0.108374 0 0.129387)
(0.129668 -0.000395546 0 0.107189 0 0.129072)
(0.129416 -0.000419721 0 0.106045 0 0.128754)
(0.12916 -0.000445661 0 0.104942 0 0.128432)
(0.1289 -0.000473439 0 0.103877 0 0.128108)
(0.128636 -0.000503155 0 0.102851 0 0.127782)
(0.128371 -0.000534941 0 0.10186 0 0.127455)
(0.128103 -0.000568972 0 0.100904 0 0.127128)
(0.127834 -0.000605469 0 0.0999824 0 0.126802)
(0.127564 -0.000644714 0 0.099093 0 0.126477)
(0.127293 -0.000687047 0 0.0982351 0 0.126152)
(0.127021 -0.000732864 0 0.0974077 0 0.12583)
(0.126749 -0.000782587 0 0.0966104 0 0.125509)
(0.126476 -0.000836613 0 0.0958427 0 0.12519)
(0.1262 -0.000895188 0 0.0951046 0 0.124873)
(0.125921 -0.00095823 0 0.0943965 0 0.124557)
(0.125636 -0.00102513 0 0.0937181 0 0.124241)
(0.125338 -0.00109477 0 0.0930636 0 0.123918)
(0.133044 -8.33307e-05 0 0.131686 0 0.133064)
(0.132713 -0.000139177 0 0.129984 0 0.132771)
(0.132385 -0.000160485 0 0.128336 0 0.132484)
(0.132077 -0.000164927 0 0.126732 0 0.132207)
(0.131787 -0.000162216 0 0.12517 0 0.131939)
(0.131511 -0.000154656 0 0.123647 0 0.131673)
(0.131245 -0.000144451 0 0.122162 0 0.131409)
(0.130987 -0.000133918 0 0.120716 0 0.131145)
(0.130734 -0.000124229 0 0.11931 0 0.130877)
(0.130483 -0.000115793 0 0.117943 0 0.130607)
(0.130234 -0.000108844 0 0.116616 0 0.130332)
(0.129984 -0.000103558 0 0.115329 0 0.130053)
(0.129733 -0.000100025 0 0.114082 0 0.12977)
(0.12948 -9.82772e-05 0 0.112874 0 0.129483)
(0.129226 -9.83272e-05 0 0.111705 0 0.129193)
(0.12897 -0.000100181 0 0.110573 0 0.128899)
(0.128712 -0.000103846 0 0.109477 0 0.128603)
(0.128453 -0.000109332 0 0.108418 0 0.128306)
(0.128193 -0.000116663 0 0.107394 0 0.128007)
(0.127931 -0.00012588 0 0.106403 0 0.127707)
(0.127669 -0.000137048 0 0.105445 0 0.127407)
(0.127407 -0.00015026 0 0.104519 0 0.127107)
(0.127144 -0.000165644 0 0.103624 0 0.126808)
(0.126881 -0.000183364 0 0.102759 0 0.126509)
(0.126618 -0.000203623 0 0.101923 0 0.126212)
(0.126355 -0.000226653 0 0.101116 0 0.125917)
(0.126093 -0.000252706 0 0.100336 0 0.125623)
(0.125829 -0.00028201 0 0.0995835 0 0.12533)
(0.125565 -0.000314714 0 0.0988584 0 0.12504)
(0.125299 -0.000350782 0 0.0981606 0 0.124751)
(0.125031 -0.000389851 0 0.0974902 0 0.124462)
(0.124757 -0.000431122 0 0.0968466 0 0.124174)
(0.124472 -0.000473198 0 0.0962231 0 0.123881)
(0.132993 -6.88084e-05 0 0.131791 0 0.133009)
(0.132608 -0.000118299 0 0.130196 0 0.132659)
(0.132222 -0.000139191 0 0.128663 0 0.132315)
(0.13185 -0.000142477 0 0.127178 0 0.131982)
(0.131494 -0.000136222 0 0.125736 0 0.13166)
(0.131152 -0.000123321 0 0.124335 0 0.131346)
(0.130823 -0.000106112 0 0.122972 0 0.131039)
(0.130505 -8.69761e-05 0 0.121645 0 0.130737)
(0.130197 -6.74111e-05 0 0.120354 0 0.13044)
(0.129898 -4.81878e-05 0 0.119099 0 0.130145)
(0.129605 -2.98083e-05 0 0.117879 0 0.129852)
(0.129316 -1.26386e-05 0 0.116694 0 0.12956)
(0.129033 3.08969e-06 0 0.115544 0 0.129268)
(0.128752 1.72433e-05 0 0.114429 0 0.128977)
(0.128474 2.97432e-05 0 0.113347 0 0.128687)
(0.128199 4.05403e-05 0 0.112298 0 0.128397)
(0.127925 4.96023e-05 0 0.111281 0 0.128107)
(0.127654 5.69039e-05 0 0.110296 0 0.127818)
(0.127384 6.24172e-05 0 0.109342 0 0.12753)
(0.127115 6.61045e-05 0 0.108418 0 0.127243)
(0.126849 6.79132e-05 0 0.107523 0 0.126957)
(0.126584 6.7771e-05 0 0.106657 0 0.126673)
(0.12632 6.5584e-05 0 0.105819 0 0.12639)
(0.126058 6.12358e-05 0 0.105007 0 0.126109)
(0.125797 5.45924e-05 0 0.104222 0 0.12583)
(0.125537 4.55127e-05 0 0.103463 0 0.125553)
(0.125278 3.3869e-05 0 0.10273 0 0.125278)
(0.125019 1.9584e-05 0 0.102021 0 0.125006)
(0.12476 2.68407e-06 0 0.101338 0 0.124735)
(0.124501 -1.66214e-05 0 0.10068 0 0.124466)
(0.124239 -3.78358e-05 0 0.100047 0 0.124198)
(0.123974 -6.01276e-05 0 0.0994376 0 0.123931)
(0.1237 -8.20238e-05 0 0.0988454 0 0.12366)
(0.132951 -5.79703e-05 0 0.131876 0 0.132965)
(0.132525 -0.000102658 0 0.130368 0 0.132569)
(0.132097 -0.00012446 0 0.128922 0 0.13218)
(0.131678 -0.00012976 0 0.127528 0 0.131802)
(0.131274 -0.000124675 0 0.126179 0 0.131435)
(0.130883 -0.000111965 0 0.124872 0 0.13108)
(0.130505 -9.37631e-05 0 0.123603 0 0.130734)
(0.130141 -7.22745e-05 0 0.12237 0 0.130397)
(0.129788 -4.91031e-05 0 0.121172 0 0.130068)
(0.129446 -2.52383e-05 0 0.120008 0 0.129745)
(0.129114 -1.37101e-06 0 0.118878 0 0.129429)
(0.128791 2.19777e-05 0 0.117779 0 0.129118)
(0.128475 4.4441e-05 0 0.116712 0 0.128811)
(0.128166 6.5772e-05 0 0.115676 0 0.128508)
(0.127863 8.58016e-05 0 0.11467 0 0.128209)
(0.127566 0.000104411 0 0.113694 0 0.127914)
(0.127274 0.000121514 0 0.112747 0 0.127621)
(0.126986 0.000137048 0 0.111828 0 0.127332)
(0.126702 0.00015096 0 0.110937 0 0.127045)
(0.126423 0.000163198 0 0.110073 0 0.126762)
(0.126147 0.00017371 0 0.109235 0 0.126481)
(0.125874 0.000182433 0 0.108423 0 0.126203)
(0.125605 0.000189298 0 0.107636 0 0.125928)
(0.125339 0.000194229 0 0.106874 0 0.125656)
(0.125075 0.000197149 0 0.106135 0 0.125387)
(0.124813 0.000197994 0 0.105421 0 0.125121)
(0.124554 0.00019673 0 0.104729 0 0.124857)
(0.124295 0.000193392 0 0.104061 0 0.124597)
(0.124038 0.000188118 0 0.103416 0 0.124338)
(0.12378 0.000181212 0 0.102794 0 0.124082)
(0.123523 0.000173212 0 0.102194 0 0.123828)
(0.123263 0.000164908 0 0.101617 0 0.123576)
(0.122996 0.000157753 0 0.101053 0 0.12332)
(0.132917 -4.94402e-05 0 0.131946 0 0.132928)
(0.132457 -8.98269e-05 0 0.130509 0 0.132494)
(0.131996 -0.000112204 0 0.129134 0 0.132068)
(0.131543 -0.000120009 0 0.127811 0 0.131654)
(0.131103 -0.000117667 0 0.126534 0 0.131252)
(0.130675 -0.000107565 0 0.1253 0 0.130861)
(0.13026 -9.15179e-05 0 0.124104 0 0.130482)
(0.129858 -7.14055e-05 0 0.122944 0 0.130113)
(0.129469 -4.87281e-05 0 0.121819 0 0.129754)
(0.129092 -2.45078e-05 0 0.120727 0 0.129405)
(0.128727 5.04432e-07 0 0.119667 0 0.129064)
(0.128372 2.57189e-05 0 0.118637 0 0.128731)
(0.128027 5.06894e-05 0 0.117637 0 0.128406)
(0.127691 7.5089e-05 0 0.116666 0 0.128087)
(0.127364 9.86758e-05 0 0.115723 0 0.127774)
(0.127044 0.000121268 0 0.114808 0 0.127467)
(0.126732 0.000142728 0 0.113919 0 0.127165)
(0.126426 0.000162949 0 0.113056 0 0.126869)
(0.126127 0.000181846 0 0.112219 0 0.126577)
(0.125833 0.000199348 0 0.111407 0 0.126291)
(0.125545 0.000215388 0 0.110619 0 0.126008)
(0.125262 0.000229908 0 0.109854 0 0.12573)
(0.124983 0.00024285 0 0.109113 0 0.125456)
(0.124709 0.000254162 0 0.108394 0 0.125187)
(0.124438 0.00026381 0 0.107698 0 0.124921)
(0.124172 0.000271779 0 0.107023 0 0.124659)
(0.123908 0.000278103 0 0.106371 0 0.1244)
(0.123646 0.000282881 0 0.105739 0 0.124145)
(0.123387 0.000286315 0 0.105129 0 0.123894)
(0.123129 0.000288741 0 0.10454 0 0.123645)
(0.122871 0.000290683 0 0.103972 0 0.123399)
(0.122613 0.000292846 0 0.103423 0 0.123156)
(0.12235 0.000296639 0 0.102887 0 0.12291)
(0.132888 -4.24998e-05 0 0.132006 0 0.132898)
(0.1324 -7.88353e-05 0 0.130628 0 0.132432)
(0.131912 -0.000101078 0 0.129311 0 0.131975)
(0.131432 -0.000110871 0 0.128045 0 0.131531)
(0.130964 -0.00011131 0 0.126826 0 0.131099)
(0.130507 -0.000104351 0 0.12565 0 0.130679)
(0.130063 -9.14791e-05 0 0.124512 0 0.130272)
(0.129633 -7.42283e-05 0 0.123411 0 0.129876)
(0.129215 -5.39081e-05 0 0.122344 0 0.129491)
(0.12881 -3.14801e-05 0 0.121309 0 0.129118)
(0.128417 -7.67947e-06 0 0.120306 0 0.128754)
(0.128036 1.68987e-05 0 0.119332 0 0.1284)
(0.127666 4.17829e-05 0 0.118388 0 0.128055)
(0.127306 6.66095e-05 0 0.11747 0 0.127718)
(0.126956 9.10966e-05 0 0.11658 0 0.127389)
(0.126615 0.000115023 0 0.115716 0 0.127068)
(0.126284 0.000138215 0 0.114877 0 0.126755)
(0.12596 0.000160534 0 0.114063 0 0.126448)
(0.125644 0.00018187 0 0.113272 0 0.126147)
(0.125335 0.000202132 0 0.112505 0 0.125853)
(0.125033 0.000221245 0 0.11176 0 0.125564)
(0.124738 0.000239145 0 0.111038 0 0.125281)
(0.124448 0.000255786 0 0.110337 0 0.125004)
(0.124164 0.000271133 0 0.109657 0 0.124731)
(0.123885 0.000285177 0 0.108998 0 0.124464)
(0.12361 0.000297943 0 0.108359 0 0.124201)
(0.12334 0.000309501 0 0.107741 0 0.123943)
(0.123073 0.000319989 0 0.107142 0 0.123689)
(0.122809 0.000329634 0 0.106564 0 0.123439)
(0.122547 0.000338768 0 0.106004 0 0.123193)
(0.122287 0.000347869 0 0.105464 0 0.122951)
(0.122029 0.000357545 0 0.104941 0 0.122711)
(0.121767 0.00036912 0 0.104429 0 0.12247)
(0.132863 -3.67208e-05 0 0.132057 0 0.132872)
(0.132351 -6.92336e-05 0 0.13073 0 0.132378)
(0.131841 -9.07045e-05 0 0.129461 0 0.131896)
(0.131339 -0.000101728 0 0.128244 0 0.131427)
(0.130847 -0.000104407 0 0.127072 0 0.13097)
(0.130368 -0.000100301 0 0.125943 0 0.130526)
(0.129902 -9.06163e-05 0 0.124852 0 0.130095)
(0.129448 -7.65891e-05 0 0.123798 0 0.129676)
(0.129008 -5.93269e-05 0 0.122777 0 0.129269)
(0.12858 -3.96881e-05 0 0.121789 0 0.128874)
(0.128165 -1.8346e-05 0 0.120831 0 0.12849)
(0.127761 4.14539e-06 0 0.119902 0 0.128116)
(0.12737 2.73346e-05 0 0.119002 0 0.127753)
(0.12699 5.08617e-05 0 0.118128 0 0.127399)
(0.12662 7.44391e-05 0 0.117281 0 0.127055)
(0.126261 9.78352e-05 0 0.116458 0 0.126719)
(0.125911 0.000120863 0 0.11566 0 0.126392)
(0.125571 0.000143372 0 0.114885 0 0.126072)
(0.125239 0.00016524 0 0.114133 0 0.125761)
(0.124916 0.000186369 0 0.113404 0 0.125456)
(0.1246 0.000206679 0 0.112695 0 0.125159)
(0.124292 0.00022611 0 0.112008 0 0.124868)
(0.12399 0.000244622 0 0.111341 0 0.124584)
(0.123695 0.000262195 0 0.110695 0 0.124306)
(0.123406 0.000278839 0 0.110067 0 0.124033)
(0.123122 0.0002946 0 0.10946 0 0.123766)
(0.122843 0.00030957 0 0.108871 0 0.123505)
(0.122569 0.000323901 0 0.108301 0 0.123249)
(0.122299 0.000337819 0 0.107749 0 0.122997)
(0.122033 0.000351631 0 0.107216 0 0.12275)
(0.121769 0.000365754 0 0.1067 0 0.122508)
(0.121508 0.000380704 0 0.1062 0 0.122269)
(0.121244 0.000397728 0 0.10571 0 0.122029)
(0.132842 -3.18206e-05 0 0.132101 0 0.132849)
(0.132309 -6.07587e-05 0 0.130818 0 0.132333)
(0.131779 -8.10037e-05 0 0.129591 0 0.131828)
(0.131258 -9.25636e-05 0 0.128414 0 0.131337)
(0.130749 -9.68267e-05 0 0.127282 0 0.13086)
(0.130251 -9.50044e-05 0 0.126192 0 0.130395)
(0.129766 -8.80758e-05 0 0.12514 0 0.129944)
(0.129294 -7.70318e-05 0 0.124124 0 0.129506)
(0.128834 -6.27921e-05 0 0.123142 0 0.12908)
(0.128388 -4.61011e-05 0 0.122191 0 0.128666)
(0.127955 -2.75553e-05 0 0.121271 0 0.128264)
(0.127534 -7.6515e-06 0 0.120379 0 0.127874)
(0.127125 1.31978e-05 0 0.119515 0 0.127494)
(0.126727 3.4656e-05 0 0.118677 0 0.127124)
(0.126341 5.64491e-05 0 0.117865 0 0.126765)
(0.125966 7.83528e-05 0 0.117077 0 0.126415)
(0.125601 0.000100183 0 0.116313 0 0.126075)
(0.125245 0.000121791 0 0.115571 0 0.125743)
(0.124899 0.000143055 0 0.114852 0 0.12542)
(0.124562 0.000163876 0 0.114154 0 0.125105)
(0.124234 0.000184181 0 0.113476 0 0.124798)
(0.123913 0.000203915 0 0.112819 0 0.124498)
(0.123601 0.000223046 0 0.112181 0 0.124206)
(0.123295 0.000241567 0 0.111563 0 0.12392)
(0.122996 0.0002595 0 0.110963 0 0.123641)
(0.122703 0.000276904 0 0.110382 0 0.123368)
(0.122416 0.000293881 0 0.109819 0 0.123102)
(0.122134 0.000310583 0 0.109273 0 0.122841)
(0.121857 0.000327221 0 0.108745 0 0.122585)
(0.121585 0.000344066 0 0.108234 0 0.122335)
(0.121316 0.000361472 0 0.107739 0 0.12209)
(0.121051 0.000379865 0 0.107259 0 0.121849)
(0.120785 0.000400393 0 0.106788 0 0.121609)
(0.132823 -2.76003e-05 0 0.13214 0 0.132829)
(0.132272 -5.3221e-05 0 0.130895 0 0.132293)
(0.131726 -7.19556e-05 0 0.129704 0 0.131769)
(0.131189 -8.35066e-05 0 0.128562 0 0.131259)
(0.130663 -8.87566e-05 0 0.127464 0 0.130764)
(0.13015 -8.86266e-05 0 0.126408 0 0.130282)
(0.129649 -8.39054e-05 0 0.125389 0 0.129814)
(0.129161 -7.53906e-05 0 0.124405 0 0.129359)
(0.128687 -6.38413e-05 0 0.123454 0 0.128917)
(0.128226 -4.98958e-05 0 0.122535 0 0.128487)
(0.127777 -3.40758e-05 0 0.121646 0 0.12807)
(0.127341 -1.68188e-05 0 0.120784 0 0.127664)
(0.126918 1.50784e-06 0 0.11995 0 0.12727)
(0.126506 2.06006e-05 0 0.119142 0 0.126887)
(0.126106 4.02101e-05 0 0.118359 0 0.126514)
(0.125717 6.01307e-05 0 0.117599 0 0.126152)
(0.125338 8.01933e-05 0 0.116863 0 0.125799)
(0.12497 0.00010026 0 0.116148 0 0.125456)
(0.124612 0.000120219 0 0.115455 0 0.125122)
(0.124263 0.000139983 0 0.114783 0 0.124797)
(0.123923 0.000159487 0 0.114131 0 0.12448)
(0.123592 0.000178687 0 0.113499 0 0.124171)
(0.123268 0.000197562 0 0.112885 0 0.12387)
(0.122953 0.000216117 0 0.11229 0 0.123576)
(0.122644 0.000234385 0 0.111713 0 0.12329)
(0.122343 0.000252432 0 0.111154 0 0.12301)
(0.122047 0.000270361 0 0.110612 0 0.122737)
(0.121758 0.000288318 0 0.110087 0 0.12247)
(0.121474 0.000306491 0 0.109578 0 0.12221)
(0.121196 0.000325113 0 0.109086 0 0.121955)
(0.120923 0.000344479 0 0.108609 0 0.121706)
(0.120653 0.000364939 0 0.108146 0 0.121461)
(0.120383 0.00038756 0 0.10769 0 0.121218)
(0.132806 -2.39138e-05 0 0.132174 0 0.132812)
(0.132239 -4.64682e-05 0 0.130963 0 0.132258)
(0.131678 -6.3535e-05 0 0.129804 0 0.131717)
(0.131127 -7.46778e-05 0 0.128692 0 0.131191)
(0.130588 -8.04296e-05 0 0.127624 0 0.13068)
(0.130061 -8.14734e-05 0 0.126596 0 0.130183)
(0.129547 -7.84387e-05 0 0.125605 0 0.1297)
(0.129047 -7.19672e-05 0 0.124649 0 0.129231)
(0.128559 -6.26826e-05 0 0.123725 0 0.128775)
(0.128085 -5.11264e-05 0 0.122833 0 0.128332)
(0.127624 -3.77496e-05 0 0.121969 0 0.127901)
(0.127176 -2.29333e-05 0 0.121134 0 0.127483)
(0.12674 -6.99925e-06 0 0.120325 0 0.127076)
(0.126317 9.78424e-06 0 0.119541 0 0.126681)
(0.125905 2.71955e-05 0 0.118782 0 0.126297)
(0.125504 4.50514e-05 0 0.118047 0 0.125923)
(0.125115 6.32015e-05 0 0.117333 0 0.125559)
(0.124736 8.15236e-05 0 0.116642 0 0.125206)
(0.124367 9.99206e-05 0 0.115971 0 0.124862)
(0.124008 0.000118318 0 0.115321 0 0.124527)
(0.123658 0.000136662 0 0.11469 0 0.124201)
(0.123317 0.000154921 0 0.114079 0 0.123883)
(0.122984 0.000173086 0 0.113485 0 0.123574)
(0.12266 0.000191171 0 0.11291 0 0.123272)
(0.122343 0.000209216 0 0.112352 0 0.122979)
(0.122034 0.000227289 0 0.111812 0 0.122692)
(0.121731 0.000245491 0 0.111287 0 0.122413)
(0.121435 0.000263955 0 0.11078 0 0.12214)
(0.121145 0.000282845 0 0.110287 0 0.121874)
(0.120861 0.000302358 0 0.109811 0 0.121614)
(0.120583 0.000322733 0 0.109349 0 0.12136)
(0.120309 0.000344256 0 0.1089 0 0.121111)
(0.120036 0.000367898 0 0.108457 0 0.120864)
(0.132792 -2.06512e-05 0 0.132204 0 0.132797)
(0.13221 -4.03721e-05 0 0.131023 0 0.132227)
(0.131636 -5.56997e-05 0 0.129892 0 0.131671)
(0.131072 -6.61545e-05 0 0.128807 0 0.131131)
(0.130521 -7.2033e-05 0 0.127765 0 0.130606)
(0.129983 -7.38281e-05 0 0.126762 0 0.130096)
(0.129458 -7.20343e-05 0 0.125796 0 0.1296)
(0.128946 -6.71658e-05 0 0.124864 0 0.129118)
(0.128448 -5.97319e-05 0 0.123963 0 0.12865)
(0.127963 -5.01877e-05 0 0.123094 0 0.128195)
(0.127491 -3.89199e-05 0 0.122253 0 0.127753)
(0.127032 -2.6258e-05 0 0.121439 0 0.127323)
(0.126586 -1.24815e-05 0 0.120652 0 0.126906)
(0.126152 2.17515e-06 0 0.119889 0 0.1265)
(0.125731 1.75176e-05 0 0.11915 0 0.126106)
(0.12532 3.33857e-05 0 0.118435 0 0.125722)
(0.124921 4.96489e-05 0 0.117741 0 0.125349)
(0.124533 6.62021e-05 0 0.117069 0 0.124986)
(0.124155 8.29637e-05 0 0.116417 0 0.124633)
(0.123787 9.98731e-05 0 0.115785 0 0.12429)
(0.123429 0.00011689 0 0.115172 0 0.123956)
(0.12308 0.000133995 0 0.114578 0 0.12363)
(0.122739 0.000151188 0 0.114001 0 0.123313)
(0.122407 0.000168491 0 0.113442 0 0.123005)
(0.122083 0.000185949 0 0.1129 0 0.122704)
(0.121767 0.000203632 0 0.112375 0 0.122411)
(0.121458 0.000221634 0 0.111865 0 0.122125)
(0.121156 0.000240072 0 0.111372 0 0.121847)
(0.120861 0.000259089 0 0.110893 0 0.121575)
(0.120572 0.000278847 0 0.110429 0 0.12131)
(0.120289 0.000299542 0 0.109979 0 0.121051)
(0.120012 0.000321404 0 0.109542 0 0.120798)
(0.119735 0.000345326 0 0.109111 0 0.120547)
(0.132779 -1.77278e-05 0 0.13223 0 0.132783)
(0.132184 -3.48242e-05 0 0.131076 0 0.132199)
(0.131598 -4.83955e-05 0 0.129971 0 0.13163)
(0.131023 -5.7972e-05 0 0.12891 0 0.131077)
(0.130462 -6.36948e-05 0 0.127891 0 0.13054)
(0.129913 -6.5908e-05 0 0.12691 0 0.130018)
(0.129378 -6.49923e-05 0 0.125966 0 0.12951)
(0.128856 -6.13555e-05 0 0.125054 0 0.129018)
(0.128348 -5.54097e-05 0 0.124174 0 0.128539)
(0.127854 -4.75325e-05 0 0.123325 0 0.128073)
(0.127373 -3.80514e-05 0 0.122503 0 0.127621)
(0.126905 -2.72478e-05 0 0.121708 0 0.127182)
(0.126451 -1.53617e-05 0 0.120939 0 0.126755)
(0.126008 -2.59533e-06 0 0.120195 0 0.12634)
(0.125578 1.08837e-05 0 0.119474 0 0.125937)
(0.125159 2.49378e-05 0 0.118775 0 0.125545)
(0.124752 3.94554e-05 0 0.118099 0 0.125164)
(0.124356 5.43487e-05 0 0.117443 0 0.124793)
(0.12397 6.95506e-05 0 0.116807 0 0.124432)
(0.123595 8.50141e-05 0 0.11619 0 0.124081)
(0.12323 0.000100711 0 0.115592 0 0.123739)
(0.122873 0.000116631 0 0.115013 0 0.123407)
(0.122526 0.000132782 0 0.11445 0 0.123083)
(0.122188 0.000149193 0 0.113905 0 0.122768)
(0.121858 0.000165911 0 0.113377 0 0.122461)
(0.121536 0.000183002 0 0.112864 0 0.122162)
(0.121222 0.000200551 0 0.112367 0 0.121871)
(0.120915 0.000218664 0 0.111885 0 0.121587)
(0.120615 0.000237458 0 0.111418 0 0.12131)
(0.120322 0.000257068 0 0.110964 0 0.121041)
(0.120035 0.000277649 0 0.110525 0 0.120777)
(0.119754 0.000299387 0 0.110097 0 0.12052)
(0.119474 0.000323091 0 0.109675 0 0.120264)
(0.132767 -1.50771e-05 0 0.132254 0 0.132771)
(0.13216 -2.97323e-05 0 0.131125 0 0.132174)
(0.131564 -4.15621e-05 0 0.130042 0 0.131594)
(0.130979 -5.01349e-05 0 0.129003 0 0.131029)
(0.130408 -5.54929e-05 0 0.128004 0 0.130481)
(0.12985 -5.78659e-05 0 0.127043 0 0.129948)
(0.129306 -5.75395e-05 0 0.126117 0 0.129431)
(0.128776 -5.48317e-05 0 0.125225 0 0.128928)
(0.12826 -5.00712e-05 0 0.124363 0 0.12844)
(0.127757 -4.35661e-05 0 0.12353 0 0.127965)
(0.127268 -3.5589e-05 0 0.122726 0 0.127504)
(0.126793 -2.63764e-05 0 0.121948 0 0.127057)
(0.12633 -1.61317e-05 0 0.121195 0 0.126621)
(0.12588 -5.02644e-06 0 0.120466 0 0.126198)
(0.125443 6.79684e-06 0 0.11976 0 0.125787)
(0.125017 1.92216e-05 0 0.119077 0 0.125388)
(0.124603 3.21546e-05 0 0.118414 0 0.124999)
(0.1242 4.55232e-05 0 0.117772 0 0.124621)
(0.123808 5.92743e-05 0 0.11715 0 0.124254)
(0.123426 7.33724e-05 0 0.116547 0 0.123896)
(0.123055 8.77993e-05 0 0.115962 0 0.123548)