/*--------------------------------*- C++ -*----------------------------------*\
| =========                 |                                                 |
| \\      /  F ield         | OpenFOAM: The Open Source CFD Toolbox           |
|  \\    /   O peration     | Version:  4.1                                   |
|   \\  /    A nd           | Web:      www.OpenFOAM.org                      |
|    \\/     M anipulation  |                                                 |
\*---------------------------------------------------------------------------*/
FoamFile
{
    version     2.0;
    format      ascii;
    class       volVectorField;
    location    "200";
    object      U;
}
// * * * * * * * * * * * * * * * * * * * * * * * * * * * * * * * * * * * * * //

dimensions      [0 1 -1 0 0 0 0];

internalField   nonuniform List<vector> 
6820
(
(7.2813 0.0192592 0)
(7.18937 0.0329196 0)
(7.08954 0.0360649 0)
(6.98497 0.0374682 0)
(6.88235 0.0387298 0)
(6.78323 0.0397514 0)
(6.68733 0.0405126 0)
(6.5949 0.0410282 0)
(6.50638 0.0412721 0)
(6.42197 0.0412225 0)
(6.34164 0.0408857 0)
(6.26532 0.0402892 0)
(6.1929 0.0394687 0)
(6.12423 0.038462 0)
(6.05916 0.0373062 0)
(5.99752 0.0360359 0)
(5.93913 0.034682 0)
(5.88381 0.0332719 0)
(5.83141 0.0318291 0)
(5.78175 0.0303737 0)
(5.73467 0.0289232 0)
(5.69001 0.027493 0)
(5.64759 0.0260969 0)
(5.60727 0.0247485 0)
(5.56885 0.0234622 0)
(5.53214 0.0222549 0)
(5.49693 0.0211476 0)
(5.46295 0.0201739 0)
(5.42986 0.0193703 0)
(5.39734 0.0188452 0)
(5.36422 0.0186456 0)
(5.3323 0.0189966 0)
(5.29322 0.0214346 0)
(7.35129 0.0206754 0)
(7.39587 0.0322554 0)
(7.42788 0.0326262 0)
(7.44989 0.0331898 0)
(7.46743 0.034346 0)
(7.48124 0.0351292 0)
(7.49073 0.0355033 0)
(7.49606 0.0356392 0)
(7.4978 0.0355972 0)
(7.49643 0.0353982 0)
(7.49234 0.0350761 0)
(7.48588 0.034669 0)
(7.47743 0.0342071 0)
(7.46732 0.0337111 0)
(7.45583 0.0331958 0)
(7.44322 0.0326722 0)
(7.42971 0.0321479 0)
(7.41548 0.031629 0)
(7.4007 0.0311199 0)
(7.3855 0.0306249 0)
(7.37 0.0301485 0)
(7.3543 0.0296963 0)
(7.33847 0.0292756 0)
(7.32258 0.028896 0)
(7.30667 0.0285717 0)
(7.2908 0.0283229 0)
(7.27497 0.0281787 0)
(7.25922 0.0281881 0)
(7.24353 0.0284079 0)
(7.22789 0.0290067 0)
(7.21242 0.0299746 0)
(7.19653 0.0322511 0)
(7.18269 0.034195 0)
(7.33498 0.0124945 0)
(7.34478 0.0201391 0)
(7.35182 0.0214288 0)
(7.35499 0.0232939 0)
(7.35737 0.0252034 0)
(7.35986 0.0263555 0)
(7.36209 0.0269896 0)
(7.36396 0.027424 0)
(7.36562 0.0277597 0)
(7.36714 0.028015 0)
(7.36847 0.0282085 0)
(7.36959 0.0283585 0)
(7.37046 0.0284744 0)
(7.37109 0.0285589 0)
(7.37145 0.0286129 0)
(7.37154 0.0286373 0)
(7.37135 0.0286339 0)
(7.37088 0.0286048 0)
(7.37014 0.0285531 0)
(7.36912 0.0284829 0)
(7.36784 0.0283998 0)
(7.3663 0.0283111 0)
(7.3645 0.0282264 0)
(7.36245 0.0281583 0)
(7.36016 0.0281236 0)
(7.35762 0.0281457 0)
(7.35485 0.0282574 0)
(7.35183 0.0285059 0)
(7.34856 0.0289632 0)
(7.34508 0.0297307 0)
(7.34138 0.030997 0)
(7.33762 0.0329472 0)
(7.33414 0.0361998 0)
(7.3347 0.00985378 0)
(7.34305 0.0202278 0)
(7.35047 0.0247199 0)
(7.35471 0.0280436 0)
(7.35783 0.0307593 0)
(7.36085 0.0326589 0)
(7.36353 0.0339941 0)
(7.36576 0.0350126 0)
(7.36771 0.0357831 0)
(7.36948 0.0363159 0)
(7.37107 0.0366351 0)
(7.3725 0.0367748 0)
(7.3738 0.036766 0)
(7.37497 0.0366349 0)
(7.37604 0.0364053 0)
(7.37701 0.0360985 0)
(7.37788 0.0357339 0)
(7.37865 0.0353281 0)
(7.37934 0.034896 0)
(7.37994 0.034451 0)
(7.38045 0.034006 0)
(7.38087 0.0335738 0)
(7.3812 0.0331681 0)
(7.38143 0.0328049 0)
(7.38156 0.0325037 0)
(7.38157 0.0322896 0)
(7.38147 0.0321965 0)
(7.38125 0.0322723 0)
(7.38091 0.0325811 0)
(7.38046 0.0332244 0)
(7.37994 0.0343214 0)
(7.37952 0.036092 0)
(7.37937 0.0386902 0)
(7.33417 0.0078433 0)
(7.34051 0.0172719 0)
(7.34713 0.0212226 0)
(7.35174 0.0237106 0)
(7.35553 0.0258114 0)
(7.35927 0.0273364 0)
(7.36278 0.0283657 0)
(7.36592 0.0290959 0)
(7.36879 0.0296181 0)
(7.37149 0.0299664 0)
(7.37403 0.0301762 0)
(7.37642 0.030284 0)
(7.37866 0.0303176 0)
(7.38078 0.0302964 0)
(7.38278 0.0302344 0)
(7.38467 0.030143 0)
(7.38645 0.0300311 0)
(7.38814 0.029906 0)
(7.38974 0.0297744 0)
(7.39125 0.0296428 0)
(7.39267 0.0295183 0)
(7.39401 0.0294094 0)
(7.39526 0.0293265 0)
(7.39642 0.029283 0)
(7.3975 0.0292968 0)
(7.3985 0.0293913 0)
(7.39941 0.0295986 0)
(7.40025 0.0299618 0)
(7.40103 0.0305385 0)
(7.40178 0.0314066 0)
(7.40258 0.032659 0)
(7.40357 0.0344145 0)
(7.40495 0.0367223 0)
(7.33381 0.006302 0)
(7.33862 0.0150356 0)
(7.34443 0.0196469 0)
(7.34907 0.0228737 0)
(7.353 0.0256132 0)
(7.35683 0.0276981 0)
(7.36047 0.0292003 0)
(7.3638 0.0303327 0)
(7.36691 0.0312083 0)
(7.36985 0.0318676 0)
(7.37265 0.0323433 0)
(7.37531 0.0326679 0)
(7.37783 0.0328676 0)
(7.38024 0.0329622 0)
(7.38253 0.0329688 0)
(7.38473 0.0329028 0)
(7.38683 0.0327782 0)
(7.38884 0.032608 0)
(7.39077 0.0324043 0)
(7.39262 0.0321792 0)
(7.3944 0.0319448 0)
(7.3961 0.0317142 0)
(7.39773 0.0315016 0)
(7.39929 0.0313236 0)
(7.40078 0.0312002 0)
(7.40222 0.0311559 0)
(7.40361 0.0312214 0)
(7.40496 0.0314352 0)
(7.4063 0.0318446 0)
(7.40769 0.0325069 0)
(7.40919 0.0334816 0)
(7.41095 0.0348254 0)
(7.41311 0.0365446 0)
(7.33357 0.0051856 0)
(7.33723 0.0131317 0)
(7.34217 0.0178178 0)
(7.3465 0.0209673 0)
(7.35028 0.0234515 0)
(7.35397 0.0252861 0)
(7.35755 0.0265706 0)
(7.36089 0.027499 0)
(7.36404 0.02818 0)
(7.36704 0.0286572 0)
(7.36991 0.0289664 0)
(7.37265 0.0291435 0)
(7.37528 0.0292178 0)
(7.3778 0.029212 0)
(7.38023 0.0291444 0)
(7.38256 0.0290305 0)
(7.38481 0.0288836 0)
(7.38698 0.0287151 0)
(7.38907 0.028535 0)
(7.3911 0.0283531 0)
(7.39305 0.0281788 0)
(7.39494 0.0280226 0)
(7.39678 0.0278961 0)
(7.39856 0.0278129 0)
(7.40028 0.0277897 0)
(7.40197 0.0278466 0)
(7.40364 0.0280083 0)
(7.40529 0.0283046 0)
(7.40698 0.0287692 0)
(7.40875 0.0294389 0)
(7.41067 0.030345 0)
(7.41286 0.0315022 0)
(7.41543 0.0328882 0)
(7.33341 0.0043456 0)
(7.33622 0.0114885 0)
(7.34041 0.0161421 0)
(7.34442 0.0193822 0)
(7.34807 0.0219787 0)
(7.35165 0.0240062 0)
(7.35516 0.025524 0)
(7.35848 0.0266802 0)
(7.36163 0.0275744 0)
(7.36465 0.0282537 0)
(7.36755 0.0287542 0)
(7.37034 0.0291103 0)
(7.37301 0.0293493 0)
(7.37559 0.029492 0)
(7.37807 0.0295554 0)
(7.38046 0.0295541 0)
(7.38277 0.0295009 0)
(7.385 0.0294071 0)
(7.38717 0.0292837 0)
(7.38926 0.029141 0)
(7.39129 0.0289897 0)
(7.39327 0.0288413 0)
(7.3952 0.0287081 0)
(7.39708 0.0286041 0)
(7.39893 0.0285454 0)
(7.40075 0.0285505 0)
(7.40257 0.0286403 0)
(7.4044 0.0288378 0)
(7.40629 0.0291668 0)
(7.40828 0.0296483 0)
(7.41044 0.0302945 0)
(7.41287 0.0310959 0)
(7.41563 0.0320207 0)
(7.3333 0.00370154 0)
(7.3355 0.0100994 0)
(7.33904 0.0146115 0)
(7.3427 0.0178354 0)
(7.34614 0.0203776 0)
(7.34954 0.0223493 0)
(7.35289 0.02381 0)
(7.35612 0.0248933 0)
(7.3592 0.0257027 0)
(7.36218 0.0262928 0)
(7.36505 0.026703 0)
(7.36782 0.0269686 0)
(7.37049 0.0271186 0)
(7.37307 0.0271757 0)
(7.37556 0.0271586 0)
(7.37798 0.0270832 0)
(7.38032 0.0269635 0)
(7.38259 0.0268116 0)
(7.3848 0.0266389 0)
(7.38695 0.0264556 0)
(7.38904 0.0262721 0)
(7.39108 0.0260989 0)
(7.39309 0.0259468 0)
(7.39506 0.0258279 0)
(7.397 0.0257552 0)
(7.39894 0.0257431 0)
(7.40088 0.0258065 0)
(7.40286 0.0259609 0)
(7.40491 0.0262191 0)
(7.40708 0.0265894 0)
(7.40941 0.0270695 0)
(7.41199 0.0276348 0)
(7.41485 0.0282531 0)
(7.33324 0.0031958 0)
(7.33499 0.00891461 0)
(7.33798 0.0132053 0)
(7.34129 0.016365 0)
(7.34451 0.0188612 0)
(7.34773 0.0208328 0)
(7.35095 0.0223406 0)
(7.35408 0.0234939 0)
(7.3571 0.0243842 0)
(7.36004 0.025063 0)
(7.36288 0.0255668 0)
(7.36563 0.025928 0)
(7.36829 0.0261735 0)
(7.37087 0.0263245 0)
(7.37338 0.0263984 0)
(7.37581 0.0264098 0)
(7.37816 0.0263712 0)
(7.38046 0.026294 0)
(7.38269 0.0261883 0)
(7.38487 0.0260636 0)
(7.387 0.0259294 0)
(7.38908 0.025795 0)
(7.39113 0.0256705 0)
(7.39315 0.0255659 0)
(7.39516 0.0254923 0)
(7.39717 0.0254606 0)
(7.3992 0.0254817 0)
(7.40127 0.0255647 0)
(7.40341 0.0257154 0)
(7.40568 0.0259331 0)
(7.40809 0.0262079 0)
(7.41073 0.0265083 0)
(7.41359 0.0268073 0)
(7.33319 0.00278797 0)
(7.33461 0.00789799 0)
(7.33716 0.0119243 0)
(7.34013 0.0149802 0)
(7.34313 0.0174046 0)
(7.34617 0.0193335 0)
(7.34922 0.0208231 0)
(7.35223 0.0219614 0)
(7.35516 0.0228304 0)
(7.35802 0.0234825 0)
(7.3608 0.0239553 0)
(7.3635 0.0242812 0)
(7.36613 0.0244878 0)
(7.36868 0.024597 0)
(7.37116 0.0246267 0)
(7.37357 0.0245922 0)
(7.37593 0.0245069 0)
(7.37822 0.0243824 0)
(7.38046 0.0242293 0)
(7.38265 0.0240573 0)
(7.38479 0.0238757 0)
(7.3869 0.0236934 0)
(7.38898 0.0235193 0)
(7.39104 0.023362 0)
(7.3931 0.0232301 0)
(7.39516 0.0231314 0)
(7.39725 0.0230724 0)
(7.39939 0.0230571 0)
(7.40161 0.0230854 0)
(7.40393 0.0231504 0)
(7.4064 0.0232371 0)
(7.40905 0.0233116 0)
(7.41189 0.0233529 0)
(7.33316 0.00245079 0)
(7.33433 0.00701793 0)
(7.33651 0.0107565 0)
(7.33918 0.0136748 0)
(7.34197 0.0160072 0)
(7.34482 0.0178788 0)
(7.34771 0.0193458 0)
(7.3506 0.0204819 0)
(7.35344 0.0213605 0)
(7.35622 0.0220321 0)
(7.35894 0.0225325 0)
(7.3616 0.0228922 0)
(7.36419 0.0231368 0)
(7.36671 0.023287 0)
(7.36918 0.0233595 0)
(7.37158 0.0233687 0)
(7.37393 0.0233268 0)
(7.37622 0.0232444 0)
(7.37846 0.0231311 0)
(7.38066 0.0229955 0)
(7.38282 0.0228454 0)
(7.38495 0.0226884 0)
(7.38705 0.0225316 0)
(7.38914 0.0223816 0)
(7.39123 0.0222442 0)
(7.39333 0.0221243 0)
(7.39546 0.0220247 0)
(7.39764 0.0219456 0)
(7.39989 0.0218825 0)
(7.40224 0.0218251 0)
(7.40471 0.0217564 0)
(7.40733 0.0216428 0)
(7.41009 0.0214709 0)
(7.33314 0.00216551 0)
(7.33412 0.006248 0)
(7.336 0.00969067 0)
(7.33841 0.012447 0)
(7.34098 0.0146716 0)
(7.34365 0.0164707 0)
(7.34639 0.0178969 0)
(7.34915 0.0190104 0)
(7.35189 0.0198736 0)
(7.35458 0.0205328 0)
(7.35723 0.0210221 0)
(7.35983 0.02137 0)
(7.36237 0.0216011 0)
(7.36485 0.0217355 0)
(7.36728 0.0217895 0)
(7.36965 0.0217774 0)
(7.37198 0.0217113 0)
(7.37425 0.0216015 0)
(7.37648 0.0214575 0)
(7.37867 0.0212874 0)
(7.38083 0.0210988 0)
(7.38296 0.0208984 0)
(7.38507 0.0206923 0)
(7.38718 0.0204857 0)
(7.38928 0.0202827 0)
(7.3914 0.0200859 0)
(7.39354 0.0198958 0)
(7.39574 0.0197095 0)
(7.39799 0.0195204 0)
(7.40034 0.0193163 0)
(7.40278 0.0190801 0)
(7.40535 0.0187805 0)
(7.40803 0.0184105 0)
(7.33312 0.00191911 0)
(7.33395 0.00556694 0)
(7.3356 0.00871493 0)
(7.33776 0.0112921 0)
(7.34014 0.0133946 0)
(7.34264 0.0151077 0)
(7.34524 0.0164794 0)
(7.34787 0.0175599 0)
(7.3505 0.0184026 0)
(7.35311 0.0190504 0)
(7.35568 0.0195355 0)
(7.35822 0.0198849 0)
(7.36071 0.0201217 0)
(7.36315 0.0202649 0)
(7.36555 0.0203302 0)
(7.36789 0.0203308 0)
(7.3702 0.0202781 0)
(7.37246 0.0201817 0)
(7.37468 0.02005 0)
(7.37686 0.0198903 0)
(7.37902 0.0197088 0)
(7.38115 0.0195111 0)
(7.38326 0.0193017 0)
(7.38537 0.0190841 0)
(7.38748 0.0188604 0)
(7.38961 0.0186309 0)
(7.39176 0.018394 0)
(7.39395 0.0181449 0)
(7.3962 0.0178753 0)
(7.39852 0.0175723 0)
(7.40091 0.0172198 0)
(7.4034 0.016789 0)
(7.40597 0.0162793 0)
(7.33311 0.00170241 0)
(7.33383 0.00495774 0)
(7.33528 0.00781788 0)
(7.33723 0.0102047 0)
(7.33943 0.0121735 0)
(7.34177 0.0137897 0)
(7.34422 0.0150951 0)
(7.34673 0.0161315 0)
(7.34926 0.0169437 0)
(7.35178 0.0175697 0)
(7.35428 0.0180391 0)
(7.35675 0.0183764 0)
(7.35918 0.0186029 0)
(7.36158 0.0187362 0)
(7.36393 0.0187911 0)
(7.36624 0.0187799 0)
(7.36851 0.0187132 0)
(7.37075 0.0186001 0)
(7.37294 0.0184482 0)
(7.37511 0.0182642 0)
(7.37725 0.0180537 0)
(7.37937 0.0178211 0)
(7.38148 0.0175701 0)
(7.38357 0.017303 0)
(7.38568 0.0170206 0)
(7.38779 0.0167222 0)
(7.38993 0.0164045 0)
(7.3921 0.0160622 0)
(7.39431 0.0156863 0)
(7.39658 0.0152646 0)
(7.39891 0.0147826 0)
(7.40132 0.0142152 0)
(7.40377 0.0135669 0)
(7.3331 0.00150883 0)
(7.33373 0.00440684 0)
(7.33501 0.0069889 0)
(7.33679 0.00917903 0)
(7.33882 0.011005 0)
(7.34102 0.0125148 0)
(7.34333 0.0137435 0)
(7.34572 0.0147257 0)
(7.34815 0.0154989 0)
(7.35058 0.0160964 0)
(7.353 0.0165451 0)
(7.35541 0.0168678 0)
(7.35779 0.0170838 0)
(7.36013 0.0172096 0)
(7.36244 0.017259 0)
(7.36472 0.0172436 0)
(7.36696 0.0171733 0)
(7.36917 0.0170561 0)
(7.37134 0.0168992 0)
(7.37349 0.0167083 0)
(7.37561 0.016488 0)
(7.37772 0.0162419 0)
(7.37981 0.0159725 0)
(7.38189 0.0156809 0)
(7.38398 0.0153668 0)
(7.38608 0.0150283 0)
(7.38819 0.0146614 0)
(7.39033 0.01426 0)
(7.3925 0.0138152 0)
(7.39472 0.0133158 0)
(7.39697 0.0127489 0)
(7.39928 0.0120928 0)
(7.40161 0.0113559 0)
(7.3331 0.00133351 0)
(7.33365 0.00390345 0)
(7.3348 0.00621839 0)
(7.33641 0.00820888 0)
(7.3383 0.00988511 0)
(7.34036 0.0112805 0)
(7.34255 0.0124235 0)
(7.34483 0.0133427 0)
(7.34716 0.014069 0)
(7.3495 0.014631 0)
(7.35185 0.0150527 0)
(7.35419 0.0153544 0)
(7.35651 0.0155537 0)
(7.35881 0.0156654 0)
(7.36107 0.015702 0)
(7.36331 0.0156741 0)
(7.36551 0.0155904 0)
(7.36769 0.0154585 0)
(7.36983 0.0152845 0)
(7.37195 0.0150732 0)
(7.37405 0.0148286 0)
(7.37613 0.0145535 0)
(7.3782 0.0142493 0)
(7.38026 0.0139165 0)
(7.38232 0.0135541 0)
(7.38438 0.0131595 0)
(7.38646 0.0127284 0)
(7.38855 0.0122548 0)
(7.39067 0.0117306 0)
(7.39281 0.0111456 0)
(7.39498 0.0104893 0)
(7.39718 0.00974327 0)
(7.3994 0.00891932 0)
(7.33309 0.00117277 0)
(7.33358 0.00343885 0)
(7.33462 0.0054977 0)
(7.3361 0.0072881 0)
(7.33786 0.00880948 0)
(7.33979 0.010084 0)
(7.34187 0.0111338 0)
(7.34404 0.011982 0)
(7.34628 0.012654 0)
(7.34854 0.013174 0)
(7.35081 0.0135629 0)
(7.35309 0.0138389 0)
(7.35535 0.0140175 0)
(7.35759 0.0141121 0)
(7.35981 0.0141341 0)
(7.36201 0.014093 0)
(7.36417 0.0139967 0)
(7.36631 0.0138519 0)
(7.36843 0.013664 0)
(7.37052 0.0134373 0)
(7.37259 0.0131747 0)
(7.37464 0.0128785 0)
(7.37668 0.0125495 0)
(7.37871 0.0121875 0)
(7.38074 0.0117909 0)
(7.38277 0.0113568 0)
(7.3848 0.010881 0)
(7.38684 0.0103576 0)
(7.3889 0.00977938 0)
(7.39096 0.00913765 0)
(7.39305 0.00842363 0)
(7.39514 0.00762191 0)
(7.39723 0.00674655 0)
(7.33309 0.00102374 0)
(7.33353 0.00300596 0)
(7.33448 0.00481913 0)
(7.33584 0.00641056 0)
(7.33748 0.00777358 0)
(7.3393 0.00892183 0)
(7.34127 0.00987195 0)
(7.34335 0.0106423 0)
(7.34549 0.0112534 0)
(7.34767 0.0117254 0)
(7.34988 0.0120762 0)
(7.35209 0.0123217 0)
(7.35429 0.0124753 0)
(7.35648 0.0125489 0)
(7.35866 0.0125526 0)
(7.36081 0.0124947 0)
(7.36294 0.0123822 0)
(7.36504 0.0122209 0)
(7.36712 0.0120152 0)
(7.36918 0.0117688 0)
(7.37121 0.011484 0)
(7.37323 0.0111623 0)
(7.37524 0.010804 0)
(7.37723 0.0104084 0)
(7.37922 0.00997378 0)
(7.3812 0.00949704 0)
(7.38318 0.00897412 0)
(7.38516 0.00839975 0)
(7.38714 0.00776767 0)
(7.38913 0.00707069 0)
(7.39112 0.00630184 0)
(7.3931 0.00544859 0)
(7.39507 0.00452651 0)
(7.33308 0.000884146 0)
(7.33349 0.0025989 0)
(7.33436 0.00417578 0)
(7.33562 0.00557026 0)
(7.33716 0.00677263 0)
(7.33888 0.00779039 0)
(7.34075 0.00863541 0)
(7.34274 0.00932193 0)
(7.3448 0.00986623 0)
(7.34691 0.0102848 0)
(7.34904 0.0105926 0)
(7.35119 0.0108031 0)
(7.35334 0.010928 0)
(7.35548 0.0109774 0)
(7.3576 0.0109601 0)
(7.35971 0.0108834 0)
(7.3618 0.0107533 0)
(7.36386 0.0105748 0)
(7.3659 0.0103516 0)
(7.36792 0.0100866 0)
(7.36992 0.0097817 0)
(7.37191 0.00943785 0)
(7.37387 0.00905501 0)
(7.37582 0.00863223 0)
(7.37776 0.00816761 0)
(7.3797 0.00765829 0)
(7.38162 0.00710052 0)
(7.38354 0.00648974 0)
(7.38545 0.00582068 0)
(7.38735 0.00508754 0)
(7.38924 0.00428493 0)
(7.39112 0.00340274 0)
(7.39298 0.00245723 0)
(7.33308 0.00075208 0)
(7.33345 0.00221264 0)
(7.33426 0.00356142 0)
(7.33544 0.00476135 0)
(7.33688 0.00580164 0)
(7.33852 0.00668551 0)
(7.3403 0.00742091 0)
(7.34221 0.00801846 0)
(7.34419 0.00849078 0)
(7.34623 0.00885097 0)
(7.3483 0.00911131 0)
(7.35039 0.00928288 0)
(7.35248 0.0093755 0)
(7.35457 0.00939776 0)
(7.35665 0.00935698 0)
(7.35871 0.00925934 0)
(7.36075 0.00910989 0)
(7.36278 0.00891271 0)
(7.36478 0.0086709 0)
(7.36676 0.00838666 0)
(7.36872 0.00806135 0)
(7.37066 0.00769546 0)
(7.37258 0.00728867 0)
(7.37449 0.00683985 0)
(7.37638 0.00634709 0)
(7.37826 0.00580775 0)
(7.38012 0.00521851 0)
(7.38197 0.00457551 0)
(7.3838 0.00387441 0)
(7.38562 0.00311073 0)
(7.38742 0.00228039 0)
(7.3892 0.00137551 0)
(7.39095 0.000412497 0)
(7.33308 0.000625904 0)
(7.33342 0.00184277 0)
(7.33418 0.00297024 0)
(7.33529 0.00397801 0)
(7.33666 0.0048554 0)
(7.33821 0.00560275 0)
(7.33992 0.00622485 0)
(7.34175 0.0067292 0)
(7.34366 0.00712519 0)
(7.34564 0.00742287 0)
(7.34765 0.0076319 0)
(7.34968 0.00776114 0)
(7.35172 0.00781855 0)
(7.35376 0.0078111 0)
(7.35579 0.00774481 0)
(7.3578 0.0076247 0)
(7.35981 0.00745489 0)
(7.36179 0.00723864 0)
(7.36375 0.00697839 0)
(7.36569 0.00667581 0)
(7.3676 0.00633179 0)
(7.3695 0.00594653 0)
(7.37138 0.00551953 0)
(7.37323 0.00504962 0)
(7.37507 0.00453503 0)
(7.37689 0.0039734 0)
(7.37868 0.00336195 0)
(7.38046 0.0026975 0)
(7.38222 0.00197666 0)
(7.38395 0.00119604 0)
(7.38566 0.000352696 0)
(7.38734 -0.000559417 0)
(7.38899 -0.00152437 0)
(7.33308 0.000504133 0)
(7.3334 0.00148529 0)
(7.33411 0.00239678 0)
(7.33517 0.00321438 0)
(7.33647 0.00392827 0)
(7.33796 0.00453693 0)
(7.3396 0.00504261 0)
(7.34136 0.00545012 0)
(7.34321 0.005766 0)
(7.34513 0.00599753 0)
(7.34708 0.0061519 0)
(7.34906 0.00623584 0)
(7.35105 0.00625546 0)
(7.35304 0.0062162 0)
(7.35502 0.0061227 0)
(7.357 0.00597887 0)
(7.35895 0.00578789 0)
(7.36089 0.00555221 0)
(7.36281 0.00527361 0)
(7.3647 0.00495322 0)
(7.36658 0.00459154 0)
(7.36843 0.00418846 0)
(7.37025 0.00374334 0)
(7.37206 0.003255 0)
(7.37384 0.0027218 0)
(7.37559 0.0021417 0)
(7.37733 0.00151237 0)
(7.37903 0.000831283 0)
(7.38072 9.58215e-05 0)
(7.38237 -0.000696464 0)
(7.38399 -0.00154759 0)
(7.38557 -0.00246202 0)
(7.38712 -0.0034246 0)
(7.33308 0.000385297 0)
(7.33338 0.0011363 0)
(7.33406 0.00183573 0)
(7.33507 0.00246477 0)
(7.33632 0.00301487 0)
(7.33775 0.0034833 0)
(7.33934 0.0038703 0)
(7.34104 0.00417828 0)
(7.34284 0.00441122 0)
(7.3447 0.00457385 0)
(7.3466 0.00467104 0)
(7.34853 0.00470745 0)
(7.35047 0.00468743 0)
(7.35241 0.00461487 0)
(7.35435 0.00449314 0)
(7.35628 0.00432507 0)
(7.3582 0.00411292 0)
(7.36009 0.00385842 0)
(7.36196 0.00356275 0)
(7.36381 0.00322659 0)
(7.36564 0.0028501 0)
(7.36744 0.00243299 0)
(7.36922 0.00197453 0)
(7.37097 0.0014736 0)
(7.37269 0.000928759 0)
(7.37438 0.00033829 0)
(7.37605 -0.000299684 0)
(7.37768 -0.000987104 0)
(7.37929 -0.00172591 0)
(7.38086 -0.00251778 0)
(7.38239 -0.00336406 0)
(7.38388 -0.00426795 0)
(7.38534 -0.00521558 0)
(7.33307 0.000267893 0)
(7.33337 0.000791684 0)
(7.33402 0.00128101 0)
(7.335 0.00172197 0)
(7.3362 0.00210753 0)
(7.33759 0.0024342 0)
(7.33913 0.00270049 0)
(7.34079 0.00290667 0)
(7.34254 0.00305437 0)
(7.34435 0.00314592 0)
(7.3462 0.00318395 0)
(7.34809 0.00317115 0)
(7.34998 0.00311009 0)
(7.35188 0.00300315 0)
(7.35378 0.00285238 0)
(7.35567 0.00265951 0)
(7.35754 0.00242589 0)
(7.35939 0.0021525 0)
(7.36122 0.00183991 0)
(7.36302 0.00148833 0)
(7.3648 0.00109761 0)
(7.36655 0.000667261 0)
(7.36828 0.000196479 0)
(7.36997 -0.000315803 0)
(7.37163 -0.000870857 0)
(7.37327 -0.0014701 0)
(7.37487 -0.00211501 0)
(7.37643 -0.00280704 0)
(7.37796 -0.00354758 0)
(7.37946 -0.00433767 0)
(7.38091 -0.00517811 0)
(7.38232 -0.00607098 0)
(7.38368 -0.00700369 0)
(7.33307 0.000150983 0)
(7.33336 0.000449044 0)
(7.334 0.000729384 0)
(7.33495 0.000982619 0)
(7.33612 0.00120325 0)
(7.33748 0.00138729 0)
(7.33898 0.00153169 0)
(7.3406 0.00163471 0)
(7.34231 0.00169575 0)
(7.34408 0.00171491 0)
(7.34589 0.00169266 0)
(7.34773 0.00162978 0)
(7.34959 0.00152721 0)
(7.35145 0.00138588 0)
(7.3533 0.00120667 0)
(7.35515 0.0009903 0)
(7.35697 0.000737291 0)
(7.35878 0.000447955 0)
(7.36057 0.000122359 0)
(7.36232 -0.000239684 0)
(7.36405 -0.0006386 0)
(7.36575 -0.00107505 0)
(7.36742 -0.00154987 0)
(7.36906 -0.00206408 0)
(7.37067 -0.00261881 0)
(7.37224 -0.00321522 0)
(7.37377 -0.0038545 0)
(7.37527 -0.00453771 0)
(7.37672 -0.00526582 0)
(7.37814 -0.00603947 0)
(7.37951 -0.00685913 0)
(7.38083 -0.00772615 0)
(7.38212 -0.00862964 0)
(7.33307 3.32683e-05 0)
(7.33336 0.000103941 0)
(7.33398 0.000173718 0)
(7.33491 0.0002378 0)
(7.33607 0.000292271 0)
(7.3374 0.000332565 0)
(7.33888 0.00035407 0)
(7.34047 0.000353068 0)
(7.34215 0.000326747 0)
(7.34388 0.000272901 0)
(7.34566 0.000189835 0)
(7.34747 7.63392e-05 0)
(7.34929 -6.84088e-05 0)
(7.35111 -0.000244976 0)
(7.35293 -0.000453777 0)
(7.35473 -0.000695159 0)
(7.35652 -0.000969456 0)
(7.35828 -0.00127704 0)
(7.36002 -0.00161838 0)
(7.36174 -0.00199403 0)
(7.36342 -0.00240466 0)
(7.36507 -0.00285107 0)
(7.36669 -0.00333412 0)
(7.36827 -0.00385473 0)
(7.36982 -0.00441388 0)
(7.37133 -0.0050125 0)
(7.3728 -0.00565145 0)
(7.37423 -0.00633148 0)
(7.37562 -0.00705319 0)
(7.37697 -0.00781681 0)
(7.37827 -0.00862253 0)
(7.37951 -0.00947082 0)
(7.38072 -0.0103522 0)
(7.33307 -8.67012e-05 0)
(7.33336 -0.000248343 0)
(7.33398 -0.000393429 0)
(7.33491 -0.00052161 0)
(7.33606 -0.000635306 0)
(7.33738 -0.000739981 0)
(7.33884 -0.000842069 0)
(7.34041 -0.000947391 0)
(7.34207 -0.00106099 0)
(7.34378 -0.0011873 0)
(7.34553 -0.00133004 0)
(7.3473 -0.00149222 0)
(7.34909 -0.0016762 0)
(7.35088 -0.00188389 0)
(7.35266 -0.00211682 0)
(7.35442 -0.00237632 0)
(7.35617 -0.0026635 0)
(7.35789 -0.0029794 0)
(7.35959 -0.00332501 0)
(7.36125 -0.0037013 0)
(7.36289 -0.00410923 0)
(7.36449 -0.00454978 0)
(7.36605 -0.00502393 0)
(7.36758 -0.00553263 0)
(7.36907 -0.00607679 0)
(7.37051 -0.00665726 0)
(7.37192 -0.00727476 0)
(7.37329 -0.00792987 0)
(7.37461 -0.00862302 0)
(7.37588 -0.0093543 0)
(7.37711 -0.0101239 0)
(7.37828 -0.010932 0)
(7.37942 -0.011771 0)
(7.33307 -0.000210637 0)
(7.33336 -0.000612269 0)
(7.33399 -0.000978297 0)
(7.33493 -0.00130251 0)
(7.33609 -0.00158613 0)
(7.33742 -0.00183621 0)
(7.33887 -0.00206151 0)
(7.34044 -0.00227035 0)
(7.34208 -0.00247047 0)
(7.34378 -0.00266905 0)
(7.34551 -0.00287232 0)
(7.34726 -0.00308543 0)
(7.34902 -0.00331248 0)
(7.35078 -0.00355684 0)
(7.35253 -0.00382121 0)
(7.35426 -0.00410778 0)
(7.35597 -0.00441838 0)
(7.35766 -0.00475455 0)
(7.35931 -0.00511763 0)
(7.36094 -0.00550883 0)
(7.36253 -0.00592924 0)
(7.36408 -0.00637988 0)
(7.3656 -0.00686168 0)
(7.36708 -0.00737551 0)
(7.36851 -0.00792214 0)
(7.36991 -0.00850222 0)
(7.37126 -0.00911628 0)
(7.37256 -0.00976467 0)
(7.37382 -0.0104476 0)
(7.37503 -0.011165 0)
(7.37619 -0.0119167 0)
(7.3773 -0.0127023 0)
(7.37837 -0.0135155 0)
(7.33307 -0.000341546 0)
(7.33337 -0.000996172 0)
(7.33403 -0.00159305 0)
(7.335 -0.0021191 0)
(7.33618 -0.00257519 0)
(7.33752 -0.00297119 0)
(7.339 -0.0033187 0)
(7.34057 -0.00362841 0)
(7.34221 -0.00391042 0)
(7.3439 -0.00417426 0)
(7.34561 -0.00442839 0)
(7.34735 -0.00467986 0)
(7.34908 -0.00493452 0)
(7.35081 -0.00519723 0)
(7.35253 -0.00547202 0)
(7.35422 -0.0057622 0)
(7.3559 -0.00607051 0)
(7.35754 -0.00639926 0)
(7.35915 -0.00675039 0)
(7.36073 -0.00712558 0)
(7.36227 -0.00752628 0)
(7.36378 -0.00795377 0)
(7.36524 -0.00840915 0)
(7.36666 -0.00889339 0)
(7.36804 -0.00940731 0)
(7.36938 -0.00995158 0)
(7.37067 -0.0105267 0)
(7.37191 -0.0111331 0)
(7.3731 -0.0117709 0)
(7.37425 -0.01244 0)
(7.37535 -0.0131406 0)
(7.37639 -0.0138724 0)
(7.3774 -0.0146307 0)
(7.33307 -0.000483264 0)
(7.3334 -0.00141047 0)
(7.33409 -0.00225213 0)
(7.33511 -0.00298692 0)
(7.33634 -0.00361714 0)
(7.33772 -0.00415824 0)
(7.33923 -0.00462696 0)
(7.34082 -0.00503827 0)
(7.34248 -0.00540634 0)
(7.34417 -0.0057442 0)
(7.34589 -0.00606285 0)
(7.34762 -0.00637112 0)
(7.34934 -0.00667614 0)
(7.35105 -0.00698373 0)
(7.35275 -0.0072986 0)
(7.35442 -0.00762456 0)
(7.35607 -0.0079647 0)
(7.35768 -0.00832155 0)
(7.35926 -0.00869724 0)
(7.36081 -0.00909354 0)
(7.36231 -0.00951194 0)
(7.36378 -0.00995371 0)
(7.3652 -0.0104199 0)
(7.36657 -0.0109115 0)
(7.36791 -0.0114291 0)
(7.36919 -0.0119733 0)
(7.37043 -0.0125446 0)
(7.37162 -0.0131432 0)
(7.37276 -0.0137691 0)
(7.37385 -0.0144222 0)
(7.37488 -0.0151024 0)
(7.37587 -0.0158089 0)
(7.3768 -0.016538 0)
(7.33308 -0.000641226 0)
(7.33344 -0.00186993 0)
(7.33419 -0.00297575 0)
(7.33529 -0.0039281 0)
(7.33659 -0.00473373 0)
(7.33804 -0.00541502 0)
(7.33958 -0.00599237 0)
(7.34121 -0.00648367 0)
(7.34288 -0.00690727 0)
(7.34459 -0.00728077 0)
(7.3463 -0.00761899 0)
(7.34802 -0.00793384 0)
(7.34972 -0.00823499 0)
(7.35141 -0.00853036 0)
(7.35308 -0.00882628 0)
(7.35472 -0.00912782 0)
(7.35633 -0.009439 0)
(7.35791 -0.00976307 0)
(7.35945 -0.0101026 0)
(7.36095 -0.0104599 0)
(7.3624 -0.0108365 0)
(7.36382 -0.011234 0)
(7.36519 -0.0116535 0)
(7.36651 -0.012096 0)
(7.36779 -0.0125623 0)
(7.36902 -0.0130529 0)
(7.3702 -0.0135683 0)
(7.37133 -0.0141089 0)
(7.37241 -0.0146747 0)
(7.37344 -0.0152656 0)
(7.37442 -0.0158821 0)
(7.37535 -0.0165234 0)
(7.37624 -0.0171873 0)
(7.33308 -0.000823817 0)
(7.33349 -0.00239646 0)
(7.33435 -0.00379056 0)
(7.33556 -0.00496747 0)
(7.33698 -0.00595154 0)
(7.33851 -0.00678376 0)
(7.34014 -0.00749314 0)
(7.34183 -0.00810139 0)
(7.34356 -0.00862991 0)
(7.3453 -0.0090985 0)
(7.34704 -0.00952303 0)
(7.34877 -0.00991597 0)
(7.35048 -0.0102875 0)
(7.35216 -0.010646 0)
(7.35382 -0.0109983 0)
(7.35545 -0.0113498 0)
(7.35704 -0.0117049 0)
(7.35859 -0.0120672 0)
(7.36009 -0.0124395 0)
(7.36156 -0.0128242 0)
(7.36298 -0.0132232 0)
(7.36436 -0.013638 0)
(7.36568 -0.01407 0)
(7.36696 -0.01452 0)
(7.3682 -0.014989 0)
(7.36938 -0.0154774 0)
(7.37051 -0.0159858 0)
(7.37158 -0.0165143 0)
(7.37261 -0.0170632 0)
(7.37358 -0.0176323 0)
(7.3745 -0.0182217 0)
(7.37537 -0.0188307 0)
(7.37618 -0.0194575 0)
(7.33309 -0.00104464 0)
(7.33359 -0.00302648 0)
(7.3346 -0.00474239 0)
(7.33598 -0.0061409 0)
(7.33752 -0.00726703 0)
(7.33915 -0.00818055 0)
(7.34084 -0.00892259 0)
(7.34259 -0.009528 0)
(7.34435 -0.0100312 0)
(7.3461 -0.010461 0)
(7.34785 -0.0108384 0)
(7.34957 -0.0111792 0)
(7.35127 -0.0114959 0)
(7.35293 -0.0117982 0)
(7.35456 -0.0120935 0)
(7.35616 -0.0123875 0)
(7.35771 -0.0126848 0)
(7.35922 -0.0129887 0)
(7.36068 -0.0133022 0)
(7.3621 -0.0136274 0)
(7.36347 -0.0139661 0)
(7.36479 -0.0143199 0)
(7.36607 -0.0146899 0)
(7.36729 -0.0150769 0)
(7.36847 -0.0154819 0)
(7.36959 -0.0159052 0)
(7.37066 -0.0163474 0)
(7.37168 -0.0168087 0)
(7.37264 -0.0172894 0)
(7.37356 -0.0177893 0)
(7.37442 -0.0183089 0)
(7.37523 -0.0188476 0)
(7.376 -0.0194046 0)
(7.33311 -0.00132753 0)
(7.33375 -0.00380872 0)
(7.33501 -0.00588728 0)
(7.33665 -0.00755691 0)
(7.33842 -0.00893001 0)
(7.34023 -0.0100775 0)
(7.34208 -0.0110261 0)
(7.34393 -0.0118076 0)
(7.34577 -0.0124617 0)
(7.34757 -0.0130213 0)
(7.34934 -0.0135096 0)
(7.35107 -0.0139444 0)
(7.35276 -0.0143406 0)
(7.3544 -0.0147101 0)
(7.356 -0.0150621 0)
(7.35756 -0.0154036 0)
(7.35907 -0.0157401 0)
(7.36053 -0.016076 0)
(7.36194 -0.0164144 0)
(7.3633 -0.0167582 0)
(7.36461 -0.0171093 0)
(7.36587 -0.0174695 0)
(7.36708 -0.0178399 0)
(7.36823 -0.0182215 0)
(7.36934 -0.0186152 0)
(7.37039 -0.0190216 0)
(7.37138 -0.0194412 0)
(7.37233 -0.0198742 0)
(7.37322 -0.020321 0)
(7.37405 -0.0207816 0)
(7.37483 -0.0212566 0)
(7.37555 -0.0217453 0)
(7.37622 -0.0222477 0)
(7.33314 -0.00172934 0)
(7.33403 -0.00485683 0)
(7.33562 -0.00721318 0)
(7.33751 -0.00887643 0)
(7.33941 -0.0101316 0)
(7.34132 -0.011131 0)
(7.34325 -0.0119234 0)
(7.34517 -0.0125541 0)
(7.34703 -0.0130722 0)
(7.34884 -0.0135127 0)
(7.35059 -0.0138967 0)
(7.35229 -0.0142391 0)
(7.35393 -0.0145521 0)
(7.35552 -0.0148454 0)
(7.35705 -0.0151262 0)
(7.35853 -0.0153999 0)
(7.35995 -0.015671 0)
(7.36132 -0.0159431 0)
(7.36264 -0.0162189 0)
(7.36391 -0.0165008 0)
(7.36512 -0.0167906 0)
(7.36628 -0.0170896 0)
(7.36739 -0.0173991 0)
(7.36844 -0.0177199 0)
(7.36944 -0.0180528 0)
(7.37039 -0.0183981 0)
(7.37129 -0.0187563 0)
(7.37213 -0.0191275 0)
(7.37292 -0.019512 0)
(7.37366 -0.0199097 0)
(7.37434 -0.0203208 0)
(7.37497 -0.0207446 0)
(7.37557 -0.0211811 0)
(7.33321 -0.00231994 0)
(7.33467 -0.00646564 0)
(7.33705 -0.00957763 0)
(7.3395 -0.0118428 0)
(7.34167 -0.0135682 0)
(7.34369 -0.0148881 0)
(7.34564 -0.0158816 0)
(7.3475 -0.0166409 0)
(7.34925 -0.017243 0)
(7.3509 -0.017736 0)
(7.35247 -0.0181506 0)
(7.35396 -0.0185099 0)
(7.35539 -0.0188316 0)
(7.35675 -0.0191279 0)
(7.35805 -0.0194073 0)
(7.35929 -0.0196759 0)
(7.36047 -0.0199383 0)
(7.36159 -0.0201977 0)
(7.36266 -0.0204566 0)
(7.36368 -0.020717 0)
(7.36464 -0.0209802 0)
(7.36555 -0.0212476 0)
(7.36641 -0.02152 0)
(7.36722 -0.0217982 0)
(7.36797 -0.0220829 0)
(7.36867 -0.0223745 0)
(7.36932 -0.0226736 0)
(7.36991 -0.0229805 0)
(7.37046 -0.0232956 0)
(7.37095 -0.0236194 0)
(7.37139 -0.0239529 0)
(7.37178 -0.0242971 0)
(7.37212 -0.0246535 0)
(7.33323 -0.00331687 0)
(7.33507 -0.00751368 0)
(7.33783 -0.0096794 0)
(7.34034 -0.0112236 0)
(7.34241 -0.0125753 0)
(7.34425 -0.0136439 0)
(7.34592 -0.0144322 0)
(7.34739 -0.0150419 0)
(7.34866 -0.0155437 0)
(7.34979 -0.0159635 0)
(7.3508 -0.0163169 0)
(7.35172 -0.0166209 0)
(7.35256 -0.0168906 0)
(7.35333 -0.0171369 0)
(7.35405 -0.0173673 0)
(7.3547 -0.0175879 0)
(7.35532 -0.0178033 0)
(7.35588 -0.018017 0)
(7.35641 -0.0182318 0)
(7.3569 -0.0184494 0)
(7.35735 -0.0186713 0)
(7.35776 -0.0188986 0)
(7.35814 -0.0191317 0)
(7.35849 -0.0193713 0)
(7.35879 -0.0196174 0)
(7.35907 -0.0198703 0)
(7.35931 -0.0201297 0)
(7.35951 -0.0203954 0)
(7.35969 -0.020667 0)
(7.35982 -0.0209435 0)
(7.35992 -0.0212242 0)
(7.35999 -0.0215049 0)
(7.36003 -0.0217875 0)
(7.33597 -0.00735663 0)
(7.34631 -0.0151198 0)
(7.35617 -0.0177735 0)
(7.36436 -0.0189471 0)
(7.37189 -0.0198421 0)
(7.37923 -0.0204327 0)
(7.38619 -0.0207348 0)
(7.39264 -0.0208976 0)
(7.39864 -0.0210192 0)
(7.40428 -0.0211254 0)
(7.40961 -0.0212207 0)
(7.41464 -0.0213109 0)
(7.41939 -0.0214015 0)
(7.42389 -0.0214948 0)
(7.42815 -0.0215913 0)
(7.4322 -0.0216913 0)
(7.43603 -0.0217952 0)
(7.43968 -0.0219034 0)
(7.44313 -0.0220164 0)
(7.44641 -0.0221347 0)
(7.44952 -0.0222588 0)
(7.45247 -0.0223891 0)
(7.45527 -0.0225264 0)
(7.45792 -0.0226709 0)
(7.46043 -0.0228232 0)
(7.46282 -0.0229837 0)
(7.46508 -0.0231526 0)
(7.46722 -0.0233304 0)
(7.46925 -0.023517 0)
(7.47118 -0.0237128 0)
(7.47301 -0.0239173 0)
(7.47474 -0.0241313 0)
(7.47643 -0.0243524 0)
(7.32333 -0.00889583 0)
(7.30976 -0.0181973 0)
(7.29238 -0.0222946 0)
(7.27072 -0.0243935 0)
(7.24809 -0.0257346 0)
(7.22589 -0.0265703 0)