/*--------------------------------*- C++ -*----------------------------------*\
| =========                 |                                                 |
| \\      /  F ield         | OpenFOAM: The Open Source CFD Toolbox           |
|  \\    /   O peration     | Version:  4.1                                   |
|   \\  /    A nd           | Web:      www.OpenFOAM.org                      |
|    \\/     M anipulation  |                                                 |
\*---------------------------------------------------------------------------*/
FoamFile
{
    version     2.0;
    format      ascii;
    class       volScalarField;
    location    "700";
    object      k;
}
// * * * * * * * * * * * * * * * * * * * * * * * * * * * * * * * * * * * * * //

dimensions      [0 2 -2 0 0 0 0];

internalField   nonuniform List<scalar> 
6820
(
0.257082
0.434211
0.59852
0.709382
0.778145
0.818049
0.838548
0.845896
0.844371
0.836963
0.825767
0.812247
0.797426
0.782015
0.766498
0.751201
0.736337
0.722037
0.708379
0.695402
0.683116
0.671517
0.660586
0.650297
0.64062
0.631522
0.622968
0.614929
0.607345
0.600302
0.593196
0.588711
0.574463
0.811277
1.44613
1.51874
1.38792
1.22323
1.07762
0.95922
0.864569
0.788642
0.727157
0.676842
0.635256
0.600578
0.571431
0.546763
0.525757
0.507776
0.49231
0.478953
0.467376
0.457309
0.448531
0.440858
0.434137
0.428239
0.423057
0.418499
0.414491
0.410965
0.407886
0.405158
0.40295
0.400702
0.368869
0.66416
0.797428
0.829397
0.816589
0.786286
0.750411
0.713991
0.679044
0.646311
0.616001
0.588103
0.562514
0.539088
0.517663
0.498077
0.480173
0.463799
0.44882
0.435106
0.422543
0.411025
0.400456
0.390751
0.381831
0.373626
0.366073
0.359115
0.352701
0.346788
0.341328
0.336303
0.331653
0.240027
0.336287
0.412169
0.460222
0.487105
0.500012
0.504037
0.502508
0.497533
0.490423
0.482012
0.472846
0.463295
0.453611
0.443967
0.434484
0.425242
0.416294
0.407675
0.399404
0.391489
0.383933
0.37673
0.369875
0.363355
0.357161
0.351278
0.345693
0.340392
0.335363
0.330591
0.326065
0.321765
0.214145
0.250649
0.284542
0.31208
0.332947
0.348027
0.358469
0.365345
0.369529
0.371681
0.372296
0.371745
0.370308
0.368203
0.365595
0.362616
0.359369
0.355933
0.352374
0.348742
0.345078
0.341412
0.337769
0.33417
0.330629
0.327157
0.323764
0.320456
0.317236
0.314109
0.311076
0.308139
0.305297
0.20564
0.221937
0.238617
0.25366
0.26644
0.276904
0.285273
0.29185
0.296934
0.300784
0.303614
0.305602
0.306896
0.307616
0.307861
0.307715
0.307247
0.306514
0.305564
0.304439
0.303172
0.301792
0.300324
0.298789
0.297204
0.295583
0.293939
0.292282
0.290622
0.288966
0.28732
0.28569
0.284081
0.202357
0.210378
0.219404
0.228106
0.235957
0.242783
0.248605
0.253515
0.257621
0.261026
0.263824
0.266096
0.267914
0.269339
0.270425
0.271218
0.271758
0.272079
0.272212
0.272182
0.272013
0.271724
0.271333
0.270855
0.270303
0.269689
0.269023
0.268315
0.267571
0.266799
0.266006
0.265197
0.264377
0.201008
0.2051
0.210232
0.215526
0.22054
0.225078
0.229098
0.232621
0.235689
0.238346
0.240635
0.242597
0.244268
0.245681
0.246866
0.247847
0.248647
0.249289
0.249788
0.250162
0.250425
0.25059
0.250667
0.250668
0.250602
0.250476
0.250298
0.250074
0.249811
0.249514
0.249187
0.248836
0.248464
0.200424
0.202508
0.205459
0.208754
0.21204
0.21513
0.217953
0.220495
0.222768
0.224789
0.226579
0.228159
0.229548
0.230765
0.231826
0.232746
0.23354
0.23422
0.234797
0.235281
0.235681
0.236006
0.236263
0.236458
0.236599
0.236691
0.236738
0.236746
0.236719
0.23666
0.236574
0.236463
0.236331
0.200163
0.201193
0.202864
0.204904
0.207067
0.20919
0.211193
0.213044
0.214736
0.216272
0.217659
0.218908
0.220029
0.221031
0.221926
0.222722
0.223428
0.224051
0.224599
0.225079
0.225496
0.225856
0.226164
0.226425
0.226643
0.226822
0.226965
0.227076
0.227158
0.227213
0.227245
0.227255
0.227247
0.200044
0.20052
0.201431
0.202661
0.20406
0.205505
0.206921
0.208268
0.209528
0.210694
0.211766
0.212747
0.213641
0.214454
0.215192
0.215859
0.21646
0.217002
0.217488
0.217924
0.218312
0.218657
0.218963
0.219231
0.219467
0.219671
0.219848
0.219999
0.220126
0.220232
0.220318
0.220387
0.220439
0.199989
0.200177
0.20064
0.201347
0.20222
0.203178
0.204159
0.205125
0.206054
0.206932
0.207754
0.208519
0.209226
0.209879
0.210478
0.211028
0.21153
0.211989
0.212406
0.212786
0.21313
0.213441
0.213722
0.213975
0.214201
0.214404
0.214584
0.214744
0.214885
0.215009
0.215117
0.21521
0.215291
0.199965
0.200004
0.200209
0.200585
0.201099
0.201706
0.202361
0.203034
0.203702
0.204351
0.204971
0.205558
0.206111
0.206627
0.207107
0.207553
0.207966
0.208347
0.208698
0.209021
0.209317
0.209589
0.209837
0.210063
0.21027
0.210457
0.210627
0.210781
0.21092
0.211045
0.211158
0.211259
0.211349
0.199954
0.199918
0.199979
0.20015
0.200426
0.200784
0.201198
0.201645
0.202107
0.20257
0.203025
0.203465
0.203886
0.204286
0.204664
0.205019
0.205352
0.205662
0.205951
0.20622
0.206469
0.2067
0.206913
0.20711
0.207291
0.207458
0.207611
0.207752
0.207881
0.207999
0.208107
0.208206
0.208296
0.199949
0.199877
0.199858
0.199908
0.20003
0.200217
0.200456
0.200733
0.201034
0.201348
0.201667
0.201984
0.202294
0.202594
0.202883
0.203158
0.203419
0.203665
0.203898
0.204116
0.204321
0.204512
0.20469
0.204857
0.205011
0.205155
0.205289
0.205413
0.205528
0.205634
0.205733
0.205824
0.205909
0.199947
0.199857
0.199796
0.199776
0.199803
0.199877
0.199994
0.200145
0.200323
0.20052
0.200729
0.200944
0.20116
0.201375
0.201586
0.201791
0.201988
0.202178
0.202358
0.20253
0.202693
0.202846
0.202991
0.203127
0.203256
0.203376
0.203488
0.203594
0.203693
0.203785
0.203872
0.203953
0.204029
0.199947
0.199847
0.199764
0.199706
0.199676
0.199679
0.199713
0.199776
0.199863
0.19997
0.200092
0.200224
0.200363
0.200506
0.200651
0.200794
0.200936
0.201074
0.201208
0.201337
0.201461
0.201579
0.201692
0.2018
0.201902
0.201999
0.202091
0.202177
0.202259
0.202337
0.20241
0.202479
0.202545
0.199946
0.199843
0.199749
0.199669
0.199608
0.199567
0.199548
0.19955
0.199573
0.199614
0.199669
0.199737
0.199814
0.199898
0.199986
0.200078
0.20017
0.200264
0.200356
0.200447
0.200536
0.200622
0.200705
0.200786
0.200864
0.200938
0.201009
0.201077
0.201142
0.201205
0.201264
0.201321
0.201375
0.199946
0.199841
0.199742
0.199651
0.199571
0.199505
0.199453
0.199417
0.199396
0.199389
0.199396
0.199415
0.199443
0.19948
0.199523
0.199572
0.199624
0.199678
0.199735
0.199792
0.199849
0.199907
0.199964
0.20002
0.200074
0.200128
0.20018
0.20023
0.200279
0.200326
0.200372
0.200417
0.200459
0.199946
0.19984
0.199739
0.199642
0.199553
0.199471
0.1994
0.19934
0.19929
0.199252
0.199225
0.199209
0.199201
0.199202
0.199209
0.199223
0.199242
0.199265
0.199291
0.19932
0.199351
0.199383
0.199416
0.19945
0.199485
0.199519
0.199554
0.199588
0.199622
0.199655
0.199688
0.199721
0.199753
0.199946
0.19984
0.199737
0.199638
0.199543
0.199454
0.199372
0.199297
0.19923
0.199172
0.199122
0.199081
0.199048
0.199022
0.199003
0.198991
0.198984
0.198982
0.198984
0.198989
0.198998
0.19901
0.199023
0.199039
0.199056
0.199074
0.199093
0.199113
0.199134
0.199156
0.199177
0.199199
0.199221
0.199946
0.19984
0.199736
0.199635
0.199538
0.199445
0.199356
0.199273
0.199196
0.199125
0.199061
0.199004
0.198954
0.198911
0.198873
0.198842
0.198817
0.198796
0.19878
0.198768
0.19876
0.198755
0.198753
0.198754
0.198757
0.198763
0.19877
0.198778
0.198788
0.198799
0.198812
0.198825
0.198839
0.199946
0.19984
0.199736
0.199634
0.199536
0.19944
0.199349
0.199261
0.199178
0.1991
0.199028
0.198962
0.198901
0.198846
0.198798
0.198754
0.198716
0.198683
0.198655
0.198631
0.198611
0.198595
0.198583
0.198573
0.198567
0.198562
0.198561
0.198561
0.198563
0.198567
0.198572
0.198579
0.198586
0.199946
0.19984
0.199735
0.199634
0.199534
0.199438
0.199345
0.199255
0.19917
0.199089
0.199013
0.198942
0.198876
0.198816
0.198761
0.198711
0.198667
0.198628
0.198593
0.198563
0.198537
0.198514
0.198496
0.198481
0.198468
0.198459
0.198452
0.198448
0.198445
0.198444
0.198446
0.198448
0.198453
0.199946
0.19984
0.199735
0.199633
0.199534
0.199437
0.199344
0.199254
0.199168
0.199087
0.19901
0.198939
0.198873
0.198812
0.198756
0.198706
0.198661
0.198621
0.198586
0.198555
0.198528
0.198505
0.198485
0.198469
0.198456
0.198446
0.198438
0.198433
0.198429
0.198428
0.198428
0.19843
0.198433
0.199946
0.19984
0.199735
0.199634
0.199534
0.199438
0.199346
0.199257
0.199174
0.199095
0.199022
0.198954
0.198892
0.198836
0.198785
0.19874
0.1987
0.198665
0.198635
0.198609
0.198587
0.198569
0.198554
0.198542
0.198533
0.198527
0.198523
0.198521
0.19852
0.198522
0.198525
0.198529
0.198534
0.199946
0.19984
0.199736
0.199635
0.199537
0.199442
0.199353
0.199269
0.19919
0.199118
0.199053
0.198995
0.198943
0.198898
0.198858
0.198825
0.198797
0.198774
0.198756
0.198741
0.19873
0.198723
0.198718
0.198716
0.198716
0.198718
0.198722
0.198728
0.198734
0.198742
0.19875
0.19876
0.19877
0.199946
0.19984
0.199737
0.199637
0.199542
0.199453
0.19937
0.199295
0.199228
0.19917
0.199121
0.199079
0.199046
0.19902
0.199001
0.198988
0.19898
0.198977
0.198978
0.198982
0.198989
0.198998
0.19901
0.199023
0.199037
0.199052
0.199068
0.199085
0.199102
0.199119
0.199136
0.199154
0.199171
0.199946
0.199841
0.19974
0.199645
0.199557
0.199478
0.19941
0.199354
0.199309
0.199277
0.199255
0.199244
0.199241
0.199247
0.199259
0.199277
0.199299
0.199325
0.199353
0.199384
0.199416
0.199448
0.199481
0.199514
0.199547
0.199579
0.199611
0.199642
0.199672
0.199701
0.199729
0.199756
0.199782
0.199947
0.199844
0.199749
0.199664
0.199592
0.199537
0.199499
0.19948
0.199477
0.19949
0.199516
0.199553
0.199599
0.199652
0.19971
0.199772
0.199836
0.199901
0.199965
0.20003
0.200092
0.200154
0.200213
0.20027
0.200324
0.200376
0.200426
0.200473
0.200518
0.20056
0.2006
0.200637
0.200672
0.199948
0.199852
0.19977
0.199711
0.199677
0.199673
0.199697
0.199746
0.199818
0.199907
0.20001
0.200122
0.200239
0.20036
0.200481
0.2006
0.200717
0.20083
0.200939
0.201043
0.201141
0.201234
0.201322
0.201405
0.201482
0.201554
0.201622
0.201685
0.201743
0.201797
0.201848
0.201894
0.201937
0.199951
0.199872
0.199828
0.199831
0.199884
0.199985
0.200128
0.200302
0.2005
0.20071
0.200928
0.201146
0.201361
0.201569
0.201768
0.201958
0.202136
0.202304
0.20246
0.202605
0.20274
0.202865
0.202981
0.203087
0.203184
0.203274
0.203356
0.203431
0.2035
0.203563
0.20362
0.203671
0.203718
0.19996
0.199932
0.199988
0.200141
0.200383
0.200695
0.201055
0.20144
0.201833
0.202222
0.202597
0.202954
0.203288
0.203598
0.203885
0.204149
0.20439
0.204611
0.204811
0.204994
0.205159
0.205309
0.205445
0.205567
0.205677
0.205777
0.205866
0.205946
0.206017
0.20608
0.206137
0.206186
0.20623
0.19999
0.200113
0.200438
0.200945
0.201582
0.202288
0.203012
0.20372
0.20439
0.205011
0.205578
0.206091
0.206552
0.206965
0.207333
0.207661
0.207953
0.208212
0.208442
0.208646
0.208826
0.208985
0.209126
0.209249
0.209357
0.209451
0.209533
0.209603
0.209664
0.209715
0.209757
0.209792
0.209821
0.200097
0.200698
0.201729
0.20303
0.20443
0.205804
0.207078
0.208222
0.20923
0.210107
0.210866
0.211521
0.212084
0.212568
0.212984
0.213341
0.213648
0.21391
0.214135
0.214327
0.21449
0.214628
0.214743
0.214839
0.214917
0.214979
0.215028
0.215064
0.215089
0.215104
0.215111
0.215109
0.2151
0.200521
0.202675
0.205525
0.20847
0.211189
0.21355
0.215527
0.217152
0.218476
0.219552
0.220424
0.221131
0.221704
0.222168
0.222543
0.222845
0.223087
0.223277
0.223425
0.223537
0.223618
0.223672
0.223703
0.223713
0.223707
0.223684
0.223649
0.223601
0.223542
0.223475
0.223398
0.223315
0.223225
0.202177
0.209422
0.217079
0.223316
0.228003
0.231437
0.233925
0.235719
0.23701
0.237936
0.238593
0.239054
0.239367
0.239569
0.239685
0.239733
0.239727
0.239676
0.239588
0.239469
0.239324
0.239157
0.238971
0.238768
0.23855
0.23832
0.23808
0.23783
0.237573
0.237308
0.237039
0.236764
0.236486
0.208503
0.227596
0.245316
0.25869
0.267554
0.272837
0.275658
0.27695
0.277338
0.277195
0.276744
0.276116
0.275385
0.274596
0.273774
0.272932
0.27208
0.271221
0.270359
0.269495
0.268631
0.267768
0.266908
0.266051
0.265198
0.264351
0.263511
0.262678
0.261853
0.261037
0.260232
0.259437
0.258653
0.248308
0.315061
0.34816
0.362157
0.367118
0.367958
0.366701
0.364185
0.360865
0.357053
0.352965
0.348753
0.344525
0.340356
0.336297
0.332382
0.328633
0.32506
0.321669
0.318461
0.315431
0.312577
0.309891
0.307366
0.304994
0.302768
0.30068
0.298722
0.296887
0.295167
0.293555
0.292047
0.290632
0.205354
0.221127
0.238043
0.254121
0.268995
0.282971
0.296258
0.308938
0.321054
0.332632
0.343696
0.354264
0.36435
0.373971
0.38314
0.391874
0.400187
0.408094
0.415611
0.422753
0.429535
0.435971
0.442078
0.447869
0.453358
0.45856
0.463488
0.468155
0.472574
0.476757
0.480716
0.484461
0.488008
0.618472
0.693986
0.815567
0.964997
1.12997
1.29837
1.46142
1.61204
1.74441
1.85448
1.94072
2.00415
2.04776
2.07554
2.09161
2.09952
2.10197
2.10079
2.09712
2.09157
2.08453
2.07623
2.06687
2.05664
2.04569
2.03412
2.02198
2.00927
1.99591
1.98181
1.96683
1.95082
1.93363
1.91509
1.89504
1.87334
1.84985
1.82448
1.79713
1.76776
1.73633
1.70288
1.66743
1.6301
1.59099
1.55029
1.50819
1.46495
1.42085
1.37618
1.33128
1.28649
1.24217
1.19868
1.15636
1.11555
1.07654
1.03961
1.005
0.972895
0.943458
0.916791
0.892961
0.87199
0.853867
0.838545
0.825951
0.815987
0.808536
0.803464
0.800627
0.79987
0.801029
0.803936
0.808417
0.814293
0.82138
0.829495
0.838451
0.848061
0.85814
0.868507
0.878986
0.889406
0.899607
0.909437
0.918757
0.927439
0.93537
0.942448
0.948586
0.953707
0.957751
0.960658
0.962407
0.962923
0.962304
0.960261
0.95773
0.951872
0.399186
0.40416
0.417429
0.441441
0.476925
0.524347
0.58362
0.654051
0.734334
0.822618
0.916526
1.01324
1.10964
1.20262
1.28932
1.36748
1.43561
1.49305
1.53996
1.57707
1.6055
1.62647
1.6412
1.65072
1.65592
1.65747
1.65589
1.6516
1.64489
1.63599
1.62505
1.61218
1.59746
1.58092
1.56259
1.54247
1.52057
1.49689
1.47147
1.44434
1.41554
1.38516
1.3533
1.32008
1.28567
1.25025
1.21404
1.17725
1.14016
1.10302
1.06613
1.02976
0.994202
0.959729
0.926601
0.895057
0.86531
0.837544
0.811909
0.788524
0.767469
0.748795
0.732521
0.718637
0.707109
0.697884
0.690888
0.686035
0.683228
0.68236
0.683319
0.685986
0.690237
0.695944
0.702974
0.71119
0.720449
0.730604
0.741505
0.752997
0.764924
0.777129
0.789455
0.801749
0.813861
0.825648
0.836975
0.847715
0.857753
0.866983
0.875311
0.882655
0.888944
0.894113
0.898128
0.900912
0.902544
0.902759
0.902317
0.899455
0.326706
0.321609
0.317083
0.313606
0.311899
0.312721
0.316598
0.324178
0.336339
0.353958
0.37786
0.408726
0.446961
0.492563
0.545009
0.603206
0.665534
0.729983
0.794374
0.856602
0.914863
0.967804
1.01458
1.05482
1.08857
1.11611
1.13792
1.15453
1.16646
1.17419
1.17815
1.17872
1.1762
1.17085
1.1629
1.15254
1.13994
1.12526
1.10864
1.09023
1.07017
1.04862
1.02574
1.00169
0.976669
0.95087
0.924503
0.897787
0.870949
0.84422
0.817831
0.792009
0.766971
0.742923
0.720053
0.698528
0.678494
0.660071
0.643354
0.628413
0.615293
0.604018
0.594589
0.586992
0.581197
0.57716
0.574829
0.574144
0.575039
0.577443
0.58128
0.586472
0.592937
0.600588
0.609335
0.61908
0.629721
0.641149
0.653248
0.665897
0.678968
0.692331
0.70585
0.71939
0.732814
0.745989
0.758785
0.771079
0.782753
0.793698
0.803816
0.813015
0.821219
0.828351
0.834368
0.839186
0.842865
0.845164
0.846665
0.846635
0.317033
0.311837
0.306763
0.301844
0.297174
0.292876
0.289094
0.285968
0.283639
0.282345
0.282393
0.284149
0.288036
0.294518
0.304065
0.31711
0.333987
0.35487
0.37971
0.408198
0.439759
0.473585
0.508705
0.544077
0.578683
0.611622
0.642159
0.669759
0.694081
0.714957
0.732354
0.746341
0.757052
0.764659
0.769356
0.771343
0.770819
0.76798
0.76302
0.756127
0.747488
0.737289
0.725717
0.712962
0.699214
0.684668
0.669521
0.653967
0.638203
0.622421
0.606806
0.591537
0.57678
0.562689
0.549402
0.537042
0.525711
0.515496
0.506464
0.498665
0.492134
0.48689
0.482941
0.480281
0.478899
0.478775
0.479882
0.48219
0.485667
0.490275
0.495975
0.502726
0.510481
0.519193
0.528807
0.539263
0.550494
0.562425
0.574975
0.588053
0.601561
0.615392
0.629434
0.643571
0.657681
0.671643
0.685334
0.698634
0.711428
0.723603
0.735058
0.745694
0.755426
0.764169
0.771868
0.778434
0.783904
0.78806
0.791312
0.793882
0.302099
0.29852
0.294965
0.291426
0.287903
0.284414
0.280992
0.277675
0.274503
0.271521
0.268791
0.266391
0.264417
0.26299
0.262255
0.262381
0.263556
0.265984
0.269862
0.275369
0.282642
0.291752
0.302684
0.315327
0.32947
0.344815
0.36099
0.37758
0.394159
0.410317
0.425681
0.43994
0.452846
0.46422
0.473946
0.481966
0.48827
0.492886
0.495874
0.497318
0.497321
0.495998
0.493478
0.489895
0.485391
0.480113
0.474209
0.467828
0.461116
0.454219
0.447275
0.440416
0.433767
0.427441
0.421542
0.41616
0.411375
0.407255
0.403856
0.401221
0.399385
0.398373
0.398204
0.398887
0.400428
0.402827
0.406082
0.410187
0.415135
0.420915
0.427517
0.434926
0.443126
0.452096
0.461812
0.472244
0.483355
0.4951
0.507425
0.520269
0.53356
0.547217
0.56115
0.575263
0.589451
0.603606
0.617615
0.631366
0.644745
0.657643
0.669953
0.681572
0.692408
0.702369
0.711389
0.71937
0.72633
0.732071
0.736839
0.741719
0.282231
0.280115
0.277972
0.275794
0.273574
0.271311
0.269018
0.266707
0.264394
0.262096
0.259832
0.257621
0.255489
0.253464
0.251583
0.249889
0.248433
0.247279
0.246496
0.246162
0.246358
0.247166
0.24866
0.250899
0.253923
0.257743
0.262339
0.267653
0.273597
0.280048
0.286863
0.293882
0.300938
0.307868
0.31452
0.320759
0.326472
0.331573
0.335998
0.339711
0.342697
0.344964
0.346538
0.34746
0.347786
0.347582
0.346922
0.345887
0.344559
0.343026
0.341372
0.339682
0.338036
0.336511
0.335177
0.334101
0.333339
0.332945
0.332962
0.333431
0.334383
0.335847
0.337844
0.340393
0.343511
0.347208
0.351496
0.356384
0.361879
0.367987
0.374715
0.382066
0.390042
0.398644
0.407866
0.417701
0.428135
0.439147
0.450707
0.462777
0.475312
0.488253
0.501533
0.515076
0.528797
0.542602
0.556392
0.570064
0.583512
0.596629
0.609308
0.621446
0.632945
0.643708
0.653657
0.662692
0.670806
0.677824
0.683839
0.690683
0.263408
0.262271
0.261091
0.259862
0.258579
0.257239
0.255846
0.254406
0.252926
0.251414
0.249881
0.248334
0.246782
0.245235
0.243704
0.2422
0.24074
0.239341
0.238024
0.236816
0.235746
0.234845
0.234151
0.233698
0.233522
0.233653
0.234118
0.234933
0.236106
0.23763
0.239487
0.241647
0.244068
0.246697
0.249476
0.252344
0.255237
0.258094
0.260861
0.263489
0.265939
0.268183
0.270202
0.271989
0.273546
0.274884
0.276023
0.276991
0.277821
0.27855
0.279218
0.279868
0.280544
0.281288
0.282143
0.283148
0.284341
0.285757
0.287428
0.289382
0.291646
0.294241
0.29719
0.30051
0.304218
0.308328
0.312857
0.317817
0.323221
0.329084
0.335419
0.342239
0.349556
0.357382
0.365725
0.374591
0.383984
0.393898
0.404325
0.415247
0.426638
0.438462
0.450674
0.463218
0.476028
0.489029
0.502138
0.515265
0.528313
0.541183
0.553774
0.565982
0.577709
0.588855
0.599335
0.609044
0.617958
0.625918
0.632885
0.641307
0.248006
0.247448
0.246848
0.246202
0.245507
0.244759
0.243959
0.24311
0.242215
0.24128
0.240309
0.239308
0.23828
0.237232
0.236167
0.235089
0.234005
0.232919
0.23184
0.230775
0.229736
0.228734
0.227784
0.226902
0.226106
0.225412
0.224841
0.224407
0.224128
0.224014
0.224075
0.224314
0.224731
0.225319
0.226068
0.226963
0.227985
0.229113
0.230325
0.2316
0.232915
0.234252
0.235595
0.236931
0.238253
0.239557
0.240844
0.242119
0.243392
0.244675
0.245985
0.247338
0.248756
0.250258
0.251867
0.253605
0.255491
0.257546
0.25979
0.26224
0.264914
0.267827
0.270993
0.274426
0.278139
0.282145
0.286456
0.291087
0.29605
0.301359
0.307031
0.31308
0.319524
0.326379
0.33366
0.341383
0.349559
0.358197
0.367301
0.376871
0.386896
0.397361
0.408238
0.419493
0.431079
0.44294
0.455012
0.467218
0.479478
0.491703
0.5038
0.515672
0.527223
0.538354
0.548977
0.558986
0.56834
0.576899
0.58451
0.594097
0.236152
0.235916
0.235645
0.235336
0.234988
0.234596
0.234159
0.23368
0.23316
0.232602
0.232009
0.231384
0.23073
0.230051
0.229348
0.228624
0.227882
0.227123
0.226351
0.22557
0.224782
0.223993
0.223209
0.222437
0.221684
0.22096
0.220275
0.21964
0.219064
0.218559
0.218135
0.217799
0.21756
0.217423
0.217392
0.217468
0.21765
0.217938
0.218326
0.218809
0.219383
0.22004
0.220776
0.221585
0.222464
0.22341
0.224422
0.225502
0.226652
0.227877
0.229184
0.23058
0.232074
0.233676
0.235396
0.237245
0.239233
0.241371
0.243669
0.246137
0.248784
0.251618
0.254647
0.257881
0.261327
0.264993
0.268889
0.273024
0.27741
0.282058
0.286984
0.292201
0.297726
0.303578
0.309774
0.316332
0.323272
0.330608
0.338354
0.346519
0.355108
0.36412
0.373543
0.38336
0.393545
0.404059
0.414855
0.425879
0.437062
0.448332
0.459609
0.470804
0.48183
0.492592
0.503004
0.512961
0.522412
0.531232
0.539181
0.549509
0.227215
0.227152
0.227062
0.226943
0.226792
0.226607
0.226387
0.226133
0.225844
0.225523
0.225172
0.224793
0.224388
0.223959
0.223508
0.223037
0.222547
0.22204
0.221516
0.220978
0.220428
0.219867
0.219298
0.218724
0.21815
0.217579
0.217017
0.21647
0.215945
0.215447
0.214986
0.214567
0.214198
0.213887
0.213639
0.213459
0.213354
0.213327
0.213381
0.213519
0.213743
0.214054
0.214453
0.214941
0.215518
0.216187
0.216948
0.217804
0.218757
0.219811
0.220969
0.222235
0.223615
0.225112
0.226733
0.228482
0.230364
0.232384
0.234547
0.236855
0.239314
0.241927
0.244697
0.247627
0.250722
0.253985
0.257422
0.26104
0.264844
0.268846
0.273055
0.277485
0.282151
0.287068
0.292255
0.297732
0.303517
0.309631
0.316091
0.322914
0.330113
0.337697
0.34567
0.354026
0.362756
0.371838
0.381244
0.390935
0.400863
0.410969
0.42119
0.431452
0.441676
0.451777
0.461674
0.471271
0.480507
0.489277
0.497272
0.50793
0.220482
0.22051
0.220517
0.220502
0.220463
0.220397
0.220304
0.220184
0.220036
0.219862
0.219664
0.219442
0.219199
0.218936
0.218655
0.218356
0.218042
0.217713
0.21737
0.217015
0.216648
0.21627
0.215883
0.215488
0.215088
0.214685
0.214282
0.213882
0.213489
0.213108
0.212743
0.2124
0.212085
0.211803
0.211559
0.211361
0.211213
0.211121
0.211091
0.211127
0.211234
0.211417
0.211679
0.212025
0.212459
0.212983
0.213601
0.214317
0.215134
0.216055
0.217085
0.218225
0.21948
0.220851
0.222343
0.223956
0.225694
0.227557
0.229547
0.231664
0.233908
0.23628
0.238778
0.241405
0.244158
0.24704
0.250052
0.253198
0.25648
0.259906
0.263484
0.267223
0.271135
0.275236
0.27954
0.284066
0.288833
0.293862
0.299172
0.304783
0.310714
0.31698
0.323592
0.330558
0.337878
0.345547
0.35355
0.361865
0.37046
0.379295
0.388322
0.397481
0.406708
0.415932
0.425078
0.434062
0.442821
0.451266
0.45905
0.469654
0.215369
0.215443
0.2155
0.21554
0.215562
0.215563
0.215544
0.215503
0.215441
0.215359
0.215256
0.215136
0.214997
0.214844
0.214675
0.214493
0.214299
0.214094
0.213878
0.213653
0.21342
0.213178
0.21293
0.212676
0.212417
0.212155
0.211892
0.21163
0.211372
0.21112
0.210878
0.210649
0.210438
0.210249
0.210087
0.209957
0.209864
0.209814
0.209811
0.209862
0.209971
0.210143
0.210385
0.210701
0.211095
0.211573
0.212138
0.212795
0.213548
0.2144
0.215356
0.216416
0.217585
0.218864
0.220254
0.221757
0.223371
0.225098
0.226936
0.228883
0.230938
0.233097
0.235358
0.237719
0.240178
0.242732
0.245381
0.248125
0.250966
0.253906
0.256952
0.26011
0.263389
0.266801
0.270361
0.274083
0.277985
0.282087
0.286408
0.290969
0.29579
0.300889
0.306284
0.311989
0.318012
0.324358
0.331026
0.338005
0.345279
0.352824
0.360605
0.36858
0.3767
0.384907
0.39314
0.401324
0.409402
0.417301
0.424656
0.434874
0.211442
0.211535
0.211616
0.211684
0.211738
0.211777
0.211799
0.211805
0.211795
0.211768
0.211726
0.21167
0.2116
0.211518
0.211425
0.211321
0.211209
0.21109
0.210963
0.21083
0.210692
0.210549
0.210403
0.210254
0.210103
0.209952
0.209801
0.209653
0.209508
0.20937
0.209241
0.209123
0.20902
0.208935
0.208872
0.208836
0.208829
0.208858
0.208927
0.209041
0.209204
0.209423
0.209703
0.210047
0.210463
0.210953
0.211523
0.212177
0.21292
0.213754
0.214682
0.215708
0.216833
0.218059
0.219386
0.220813
0.222341
0.223966
0.225688
0.227502
0.229405
0.231393
0.233462
0.235607
0.237824
0.24011
0.242461
0.244876
0.247354
0.249897
0.252506
0.255187
0.257946
0.260793
0.263739
0.266797
0.269982
0.273312
0.276804
0.28048
0.284358
0.288459
0.292801
0.297402
0.302277
0.307436
0.312886
0.318629
0.324658
0.330961
0.33752
0.344305
0.351283
0.358409
0.365636
0.372903
0.380159
0.387348
0.394109
0.403668
0.208391
0.20849
0.208579
0.208659
0.208728
0.208786
0.208831
0.208863
0.208883
0.208891
0.208887
0.208871
0.208846
0.208811
0.208768
0.208718
0.208662
0.208601
0.208537
0.208469
0.208399
0.208327
0.208255
0.208184
0.208114
0.208046
0.207982
0.207922
0.207869
0.207824
0.20779
0.207767
0.20776
0.20777
0.207801
0.207856
0.20794
0.208055
0.208207
0.208399
0.208637
0.208924
0.209267
0.209668
0.210134
0.210668
0.211275
0.211959
0.212723
0.213572
0.214506
0.21553
0.216643
0.217848
0.219142
0.220527
0.221999
0.223556
0.225195
0.226911
0.2287
0.230556
0.232474
0.234449
0.236474
0.238545
0.240657
0.242807
0.244993
0.247213
0.24947
0.251764
0.254102
0.25649
0.258937
0.261454
0.264053
0.26675
0.269562
0.272505
0.275599
0.278864
0.282317
0.285979
0.289866
0.293992
0.29837
0.303008
0.307908
0.313068
0.31848
0.324127
0.329989
0.336034
0.342228
0.348524
0.354881
0.361256
0.367308
0.376008
0.205999
0.206095
0.206184
0.206266
0.20634
0.206405
0.206461
0.206508
0.206545
0.206572
0.206591
0.206602
0.206604
0.206601
0.206591
0.206577
0.20656
0.20654
0.206519
0.206497
0.206475
0.206455
0.206437
0.206422
0.206412
0.206407
0.206408
0.206417
0.206435
0.206464
0.206505
0.20656
0.206632
0.206723
0.206836
0.206973
0.207138
0.207335
0.207567
0.207837
0.208151
0.208511
0.208923
0.20939
0.209917
0.210508
0.211167
0.211896
0.2127
0.213581
0.214541
0.215582
0.216705
0.217909
0.219194
0.220558
0.221998
0.223512
0.225094
0.226741
0.228446
0.230202
0.232005
0.233846
0.23572
0.237621
0.239542
0.24148
0.243432
0.245394
0.247366
0.24935
0.251349
0.253366
0.25541
0.25749
0.259615
0.261798
0.264055
0.266401
0.268852
0.271427
0.274144
0.277021
0.280075
0.283324
0.286782
0.29046
0.294367
0.298508
0.302882
0.307483
0.312299
0.317313
0.322499
0.327825
0.33326
0.338772
0.344053
0.351763
0.204111
0.204199
0.204282
0.204361
0.204433
0.204499
0.204559
0.204612
0.204657
0.204696
0.204728
0.204754
0.204775
0.204792
0.204804
0.204815
0.204823
0.204832
0.20484
0.204851
0.204864
0.20488
0.204901
0.204928
0.204962
0.205003
0.205054
0.205115
0.205187
0.205273
0.205374
0.205491
0.205627
0.205784
0.205964
0.20617
0.206406
0.206673
0.206976
0.207317
0.2077
0.208129
0.208608
0.209141
0.20973
0.210379
0.211093
0.211873
0.212723
0.213644
0.214638
0.215706
0.216849
0.218065
0.219354
0.220712
0.222137
0.223624
0.225169
0.226766
0.228408
0.23009
0.231803
0.23354
0.235295
0.23706
0.238829
0.240598
0.242361
0.244115
0.245859
0.247592
0.249317
0.251037
0.252757
0.254483
0.256226
0.257996
0.259804
0.261665
0.263594
0.265606
0.267719
0.26995
0.272315
0.274831
0.277514
0.280377
0.283432
0.286688
0.290148
0.293816
0.297686
0.301749
0.305991
0.31039
0.314924
0.319572
0.324065
0.330719
0.202616
0.202694
0.202769
0.20284
0.202907
0.20297
0.203028
0.203082
0.20313
0.203174
0.203213
0.203248
0.20328
0.203309
0.203336
0.203363
0.203389
0.203416
0.203446
0.203479
0.203516
0.203559
0.203608
0.203665
0.203731
0.203807
0.203894
0.203994
0.204108
0.204237
0.204383
0.204549
0.204735
0.204945
0.20518
0.205442
0.205735
0.206061
0.206424
0.206825
0.207269
0.207759
0.208297
0.208888
0.209534
0.210239
0.211005
0.211834
0.212728
0.21369
0.21472
0.215819
0.216985
0.218219
0.219517
0.220877
0.222294
0.223766
0.225285
0.226845
0.22844
0.230063
0.231706
0.23336
0.235019
0.236675
0.238322
0.239953
0.241563
0.243149
0.244708
0.24624
0.247744
0.249223
0.250681
0.252123
0.253558
0.254993
0.25644
0.257911
0.259417
0.260974
0.262596
0.2643
0.2661
0.268012
0.270052
0.272234
0.27457
0.277072
0.279748
0.282603
0.285639
0.288853
0.292239
0.295782
0.299469
0.303289
0.307013
0.312604
0.201435
0.201501
0.201565
0.201627
0.201687
0.201744
0.201798
0.201849
0.201897
0.201941
0.201983
0.202023
0.202061
0.202097
0.202133
0.20217
0.202208
0.202248
0.202292
0.20234
0.202394
0.202455
0.202525
0.202603
0.202692
0.202793
0.202907
0.203035
0.203179
0.203341
0.203523
0.203725
0.20395
0.2042
0.204478
0.204784
0.205123
0.205497
0.205908
0.206359
0.206853
0.207393
0.207981
0.208622
0.209317
0.210069
0.21088
0.211752
0.212687
0.213686
0.214748
0.215875
0.217064
0.218314
0.219623
0.220986
0.2224
0.22386
0.225359
0.22689
0.228447
0.230022
0.231607
0.233193
0.234773
0.236339
0.237884
0.239402
0.240887
0.242335
0.243743
0.245109
0.246433
0.247717
0.248963
0.250176
0.251362
0.252528
0.253684
0.254839
0.256006
0.257195
0.258421
0.259697
0.261038
0.262457
0.26397
0.26559
0.267329
0.2692
0.271213
0.273375
0.275691
0.278164
0.280792
0.283568
0.286485
0.289536
0.292537
0.297102
0.200507
0.200561
0.200614
0.200666
0.200717
0.200767
0.200815
0.200861
0.200906
0.200949
0.200991
0.201032
0.201072
0.201113
0.201154
0.201196
0.201241
0.20129
0.201343
0.201402
0.201467
0.201541
0.201624
0.201717
0.201822
0.20194
0.202073
0.202222
0.202388
0.202574
0.20278
0.20301
0.203263
0.203544
0.203853
0.204194
0.204568
0.204978
0.205426
0.205916
0.206449
0.207029
0.207658
0.208338
0.209072
0.209862
0.21071
0.211617
0.212584
0.213613
0.214701
0.21585
0.217057
0.218321
0.219637
0.221002
0.222411
0.223859
0.225339
0.226845
0.228367
0.2299
0.231434
0.232961
0.234473
0.235962
0.237421
0.238844
0.240223
0.241556
0.242838
0.244068
0.245244
0.246368
0.247441
0.248467
0.249451
0.2504
0.251321
0.252222
0.253114
0.254008
0.254915
0.255846
0.256816
0.257836
0.25892
0.26008
0.261329
0.262678
0.264138
0.265718
0.267425
0.269263
0.271236
0.273339
0.275572
0.277931
0.280272
0.28388
0.199789
0.199831
0.199873
0.199915
0.199957
0.199998
0.20004
0.200081
0.200121
0.200161
0.200201
0.200241
0.200282
0.200323
0.200367
0.200412
0.200462
0.200515
0.200574
0.200639
0.200711
0.200793
0.200884
0.200987
0.201103
0.201233
0.201378
0.201541
0.201722
0.201924
0.202148
0.202396
0.20267
0.202972
0.203304
0.203668
0.204067
0.204504
0.20498
0.205497
0.206059
0.206668
0.207327
0.208036
0.208799
0.209617
0.210492
0.211424
0.212415
0.213464
0.21457
0.215734
0.216951
0.218221
0.219539
0.2209
0.222301
0.223734
0.225193
0.226671
0.22816
0.229652
0.231139
0.232611
0.234062
0.235482
0.236865
0.238204
0.239492
0.240726
0.241902
0.243016
0.244068
0.245059