/*--------------------------------*- C++ -*----------------------------------*\
| =========                 |                                                 |
| \\      /  F ield         | OpenFOAM: The Open Source CFD Toolbox           |
|  \\    /   O peration     | Version:  4.1                                   |
|   \\  /    A nd           | Web:      www.OpenFOAM.org                      |
|    \\/     M anipulation  |                                                 |
\*---------------------------------------------------------------------------*/
FoamFile
{
    version     2.0;
    format      ascii;
    class       volScalarField;
    location    "700";
    object      nut;
}
// * * * * * * * * * * * * * * * * * * * * * * * * * * * * * * * * * * * * * //

dimensions      [0 2 -1 0 0 0 0];

internalField   nonuniform List<scalar> 
6820
(
3.5437e-05
5.0672e-05
6.21565e-05
6.89859e-05
7.29393e-05
7.51484e-05
7.62608e-05
7.66561e-05
7.65742e-05
7.61754e-05
7.5569e-05
7.48308e-05
7.40141e-05
7.31562e-05
7.22832e-05
7.14133e-05
7.05589e-05
6.97283e-05
6.89267e-05
6.81574e-05
6.74221e-05
6.67214e-05
6.60551e-05
6.54227e-05
6.48229e-05
6.42547e-05
6.37165e-05
6.32071e-05
6.27234e-05
6.22712e-05
6.18124e-05
6.15236e-05
6.06187e-05
0.00135033
0.000930454
0.000725657
0.000569941
0.000453328
0.000372218
0.000316223
0.000276487
0.000247302
0.000225194
0.000208006
0.000194347
0.000183294
0.000174212
0.000166657
0.000160304
0.000154915
0.000150308
0.000146343
0.000142912
0.000139929
0.000137322
0.000135037
0.000133027
0.000131253
0.000129682
0.000128288
0.000127047
0.000125938
0.000124946
0.000124037
0.000123265
0.000122378
0.0034439
0.00180034
0.00133708
0.00108081
0.000912409
0.000791562
0.000700947
0.00063099
0.000575611
0.000530788
0.000493805
0.000462783
0.000436392
0.00041367
0.000393905
0.000376562
0.000361228
0.000347581
0.000335367
0.000324379
0.000314452
0.000305448
0.000297252
0.000289769
0.000282916
0.000276625
0.000270835
0.000265494
0.000260555
0.000255981
0.000251728
0.000247779
0.00024405
0.00637392
0.00310291
0.00217847
0.00173334
0.00146616
0.00128428
0.00115082
0.00104807
0.000966256
0.000899457
0.000843822
0.000796729
0.000756323
0.000721254
0.000690512
0.000663332
0.000639118
0.000617403
0.000597813
0.000580048
0.00056386
0.000549048
0.000535442
0.0005229
0.000511303
0.000500547
0.000490544
0.000481219
0.000472504
0.00046434
0.000456672
0.000449457
0.000442631
0.00899737
0.00527271
0.00366202
0.00284163
0.00235737
0.00203856
0.00181195
0.00164188
0.00150906
0.00140219
0.00131419
0.00124038
0.00117752
0.0011233
0.00107604
0.00103444
0.000997548
0.000964582
0.000934942
0.000908142
0.000883787
0.000861552
0.000841169
0.000822412
0.000805091
0.000789046
0.000774137
0.000760246
0.000747268
0.000735112
0.000723694
0.000712946
0.000702784
0.0103765
0.00752965
0.00561349
0.00443387
0.0036773
0.00316202
0.00279169
0.00251363
0.00229739
0.00212446
0.001983
0.00186511
0.00176535
0.00167982
0.00160567
0.00154077
0.00148348
0.00143253
0.00138694
0.00134589
0.00130873
0.00127495
0.00124409
0.00121579
0.00118976
0.00116571
0.00114344
0.00112276
0.00110348
0.00108548
0.00106863
0.0010528
0.0010379
0.0109773
0.00922098
0.00752197
0.0062241
0.00528073
0.00458893
0.00406896
0.0036676
0.00335003
0.00309329
0.00288184
0.00270491
0.00255483
0.00242601
0.0023143
0.00221655
0.00213034
0.00205377
0.00198532
0.00192379
0.0018682
0.00181773
0.00177172
0.00172961
0.00169094
0.00165529
0.00162235
0.00159181
0.00156341
0.00153695
0.00151223
0.00148908
0.00146735
0.0112223
0.01026
0.00902119
0.00786209
0.00689742
0.00612295
0.00550365
0.00500431
0.00459663
0.00425931
0.00397662
0.00373691
0.00353146
0.00335369
0.00319855
0.0030621
0.00294127
0.00283359
0.0027371
0.00265018
0.00257151
0.00250002
0.00243478
0.00237504
0.00232014
0.00226955
0.00222277
0.00217942
0.00213913
0.00210161
0.00206657
0.0020338
0.00200307
0.0113196
0.0108286
0.0100355
0.0091472
0.00830321
0.00755759
0.00691829
0.00637539
0.00591434
0.00552102
0.00518335
0.0048914
0.00463719
0.00441434
0.00421772
0.0040432
0.00388745
0.00374773
0.0036218
0.0035078
0.00340419
0.00330967
0.00322314
0.00314368
0.00307049
0.00300288
0.00294027
0.00288214
0.00282805
0.00277762
0.00273049
0.00268638
0.00264502
0.0113579
0.0111187
0.0106546
0.0100468
0.00939296
0.00875749
0.00817148
0.00764509
0.00717794
0.00676519
0.00640062
0.00607795
0.00579147
0.00553617
0.00530774
0.00510254
0.00491748
0.00474995
0.00459775
0.004459
0.00433209
0.00421567
0.00410857
0.00400977
0.0039184
0.00383369
0.00375499
0.00368172
0.00361336
0.00354947
0.00348964
0.00343355
0.00338086
0.0113728
0.01126
0.0110057
0.0106242
0.0101642
0.00967403
0.00918758
0.0087244
0.00829364
0.0078983
0.00753797
0.00721062
0.00691349
0.00664365
0.00639827
0.00617471
0.00597058
0.00578377
0.0056124
0.00545481
0.00530958
0.00517541
0.0050512
0.00493596
0.00482884
0.00472906
0.00463596
0.00454894
0.00446746
0.00439106
0.00431931
0.00425184
0.00418832
0.0113787
0.0113266
0.011194
0.0109703
0.0106711
0.0103231
0.00995189
0.00957697
0.009211
0.00886139
0.00853191
0.008224
0.00793771
0.00767227
0.00742651
0.00719904
0.00698845
0.00679334
0.00661237
0.00644432
0.00628806
0.00614254
0.00600683
0.00588009
0.00576155
0.00565053
0.0055464
0.00544861
0.00535665
0.00527008
0.00518847
0.00511148
0.00503876
0.0113809
0.0113572
0.0112906
0.0111664
0.010984
0.0107537
0.0104904
0.0102084
0.00991919
0.00963122
0.00935017
0.00907955
0.00882138
0.00857663
0.00834557
0.00812802
0.00792353
0.00773149
0.00755121
0.00738197
0.00722303
0.00707369
0.00693328
0.00680117
0.00667675
0.00655949
0.00644888
0.00634443
0.00624573
0.00615237
0.006064
0.00598028
0.00590091
0.0113818
0.0113708
0.0113383
0.0112723
0.0111671
0.0110237
0.0108485
0.0106497
0.0104355
0.0102131
0.00998805
0.00976447
0.00954535
0.00933265
0.00912765
0.00893106
0.00874324
0.00856427
0.00839404
0.00823233
0.00807882
0.00793318
0.00779501
0.00766394
0.00753957
0.00742154
0.00730948
0.00720304
0.00710189
0.00700573
0.00691427
0.00682723
0.00674436
0.0113822
0.0113768
0.0113611
0.0113273
0.0112692
0.0111846
0.0110744
0.0109422
0.0107927
0.0106307
0.0104607
0.0102863
0.0101104
0.00993551
0.00976319
0.0095947
0.00943091
0.00927239
0.00911949
0.00897237
0.00883111
0.00869566
0.00856591
0.00844173
0.00832294
0.00820935
0.00810074
0.00799691
0.00789765
0.00780274
0.00771199
0.0076252
0.00754218
0.0113823
0.0113794
0.0113717
0.0113547
0.0113238
0.011276
0.0112101
0.0111268
0.0110279
0.0109162
0.0107945
0.0106655
0.0105317
0.0103951
0.0102574
0.0101201
0.00998406
0.00985025
0.00971925
0.0095915
0.00946731
0.00934687
0.00923031
0.00911769
0.009009
0.00890421
0.00880327
0.00870608
0.00861256
0.00852259
0.00843607
0.00835287
0.00827289
0.0113824
0.0113805
0.0113765
0.0113679
0.0113519
0.0113259
0.0112881
0.0112379
0.0111757
0.0111025
0.0110197
0.010929
0.0108321
0.0107305
0.0106258
0.010519
0.0104112
0.0103034
0.0101961
0.01009
0.00998549
0.00988292
0.00978255
0.00968458
0.00958914
0.00949632
0.00940617
0.00931872
0.00923397
0.00915191
0.00907249
0.00899568
0.00892142
0.0113824
0.0113809
0.0113786
0.0113741
0.0113658
0.0113519
0.011331
0.0113021
0.0112646
0.0112187
0.011165
0.0111041
0.0110372
0.0109652
0.0108891
0.0108098
0.0107282
0.0106451
0.010561
0.0104765
0.0103922
0.0103084
0.0102255
0.0101436
0.0100631
0.00998398
0.00990652
0.00983076
0.00975678
0.00968463
0.00961434
0.00954593
0.00947939
0.0113824
0.0113811
0.0113795
0.0113769
0.0113724
0.0113651
0.0113537
0.0113375
0.0113158
0.0112882
0.0112548
0.0112157
0.0111715
0.0111227
0.0110698
0.0110135
0.0109543
0.0108929
0.0108297
0.0107652
0.0107
0.0106342
0.0105683
0.0105025
0.010437
0.0103722
0.010308
0.0102447
0.0101824
0.0101212
0.0100611
0.0100023
0.00994461
0.0113824
0.0113812
0.0113798
0.0113781
0.0113755
0.0113714
0.0113653
0.0113563
0.011344
0.011328
0.011308
0.0112839
0.0112559
0.0112241
0.0111889
0.0111505
0.0111093
0.0110657
0.0110202
0.0109729
0.0109243
0.0108746
0.0108242
0.0107732
0.010722
0.0106706
0.0106193
0.0105682
0.0105175
0.0104672
0.0104175
0.0103684
0.0103201
0.0113824
0.0113812
0.01138
0.0113786
0.0113768
0.0113744
0.0113709
0.0113659
0.011359
0.0113499
0.0113382
0.0113238
0.0113067
0.0112868
0.0112641
0.011239
0.0112114
0.0111816
0.0111499
0.0111165
0.0110816
0.0110454
0.0110081
0.0109699
0.0109311
0.0108917
0.0108519
0.010812
0.0107719
0.0107318
0.0106918
0.010652
0.0106125
0.0113824
0.0113812
0.01138
0.0113788
0.0113774
0.0113757
0.0113735
0.0113706
0.0113666
0.0113614
0.0113547
0.0113463
0.011336
0.0113238
0.0113097
0.0112937
0.0112758
0.0112561
0.0112347
0.0112117
0.0111873
0.0111616
0.0111348
0.0111069
0.0110782
0.0110487
0.0110186
0.010988
0.010957
0.0109257
0.0108942
0.0108625
0.0108308
0.0113824
0.0113812
0.01138
0.0113789
0.0113776
0.0113763
0.0113747
0.0113728
0.0113703
0.0113672
0.0113632
0.0113582
0.0113521
0.0113447
0.011336
0.0113259
0.0113143
0.0113014
0.0112871
0.0112715
0.0112546
0.0112365
0.0112174
0.0111972
0.0111761
0.0111541
0.0111315
0.0111081
0.0110842
0.0110598
0.011035
0.0110099
0.0109845
0.0113824
0.0113812
0.01138
0.0113789
0.0113777
0.0113765
0.0113752
0.0113737
0.011372
0.0113699
0.0113673
0.0113642
0.0113603
0.0113555
0.0113499
0.0113432
0.0113355
0.0113267
0.0113167
0.0113057
0.0112936
0.0112805
0.0112663
0.0112512
0.0112351
0.0112182
0.0112006
0.0111822
0.0111632
0.0111436
0.0111235
0.0111029
0.011082
0.0113824
0.0113812
0.01138
0.0113789
0.0113777
0.0113766
0.0113753
0.011374
0.0113726
0.0113709
0.0113689
0.0113665
0.0113635
0.0113599
0.0113556
0.0113504
0.0113444
0.0113375
0.0113297
0.0113208
0.011311
0.0113002
0.0112885
0.0112759
0.0112624
0.011248
0.0112329
0.0112171
0.0112006
0.0111835
0.0111658
0.0111476
0.011129
0.0113824
0.0113812
0.01138
0.0113789
0.0113777
0.0113765
0.0113753
0.011374
0.0113725
0.0113707
0.0113686
0.0113661
0.011363
0.0113593
0.0113548
0.0113496
0.0113434
0.0113364
0.0113284
0.0113194
0.0113095
0.0112986
0.0112868
0.0112741
0.0112606
0.0112462
0.0112311
0.0112152
0.0111987
0.0111816
0.011164
0.0111458
0.0111272
0.0113824
0.0113812
0.01138
0.0113789
0.0113777
0.0113764
0.011375
0.0113734
0.0113715
0.0113691
0.0113662
0.0113626
0.0113583
0.011353
0.0113468
0.0113395
0.0113312
0.0113218
0.0113113
0.0112998
0.0112872
0.0112735
0.0112589
0.0112434
0.0112271
0.0112099
0.011192
0.0111734
0.0111542
0.0111344
0.0111142
0.0110935
0.0110725
0.0113824
0.0113812
0.01138
0.0113788
0.0113775
0.011376
0.0113742
0.0113718
0.0113688
0.0113648
0.0113599
0.0113537
0.0113462
0.0113373
0.011327
0.0113153
0.0113021
0.0112875
0.0112715
0.0112543
0.0112359
0.0112164
0.0111959
0.0111744
0.0111521
0.011129
0.0111053
0.011081
0.0110562
0.011031
0.0110054
0.0109795
0.0109535
0.0113824
0.0113812
0.01138
0.0113787
0.011377
0.0113748
0.0113718
0.0113676
0.0113618
0.0113543
0.0113449
0.0113333
0.0113196
0.0113037
0.0112857
0.0112656
0.0112436
0.0112198
0.0111944
0.0111675
0.0111393
0.01111
0.0110797
0.0110486
0.0110167
0.0109843
0.0109514
0.0109182
0.0108847
0.010851
0.0108173
0.0107836
0.0107499
0.0113824
0.0113813
0.0113799
0.0113781
0.0113755
0.0113714
0.0113652
0.0113564
0.0113446
0.0113295
0.0113109
0.0112888
0.0112634
0.0112347
0.0112031
0.0111689
0.0111323
0.0110938
0.0110535
0.0110117
0.0109688
0.010925
0.0108805
0.0108355
0.0107902
0.0107447
0.0106992
0.0106538
0.0106086
0.0105637
0.0105192
0.0104751
0.0104314
0.0113825
0.0113812
0.0113794
0.0113761
0.0113704
0.0113611
0.0113472
0.0113279
0.0113028
0.011272
0.0112356
0.011194
0.0111477
0.0110974
0.0110436
0.0109871
0.0109282
0.0108677
0.0108058
0.0107431
0.0106799
0.0106166
0.0105533
0.0104902
0.0104277
0.0103658
0.0103047
0.0102444
0.0101851
0.0101268
0.0100696
0.0100135
0.00995843
0.0113825
0.0113808
0.011377
0.0113691
0.0113545
0.0113315
0.0112988
0.011256
0.0112036
0.0111424
0.0110735
0.0109982
0.0109178
0.0108335
0.0107465
0.0106576
0.0105676
0.0104773
0.0103873
0.0102978
0.0102094
0.0101224
0.0100368
0.00995291
0.00987085
0.00979069
0.00971249
0.00963627
0.00956206
0.00948984
0.00941961
0.00935134
0.00928499
0.0113825
0.0113787
0.0113679
0.0113447
0.0113054
0.011248
0.0111728
0.0110816
0.0109771
0.0108621
0.0107396
0.0106119
0.0104814
0.0103497
0.0102183
0.0100882
0.00996015
0.00983484
0.00971263
0.00959381
0.00947855
0.00936695
0.00925902
0.00915477
0.00905413
0.00895705
0.00886343
0.00877318
0.00868617
0.0086023
0.00852144
0.0084435
0.00836834
0.011382
0.0113691
0.0113325
0.0112633
0.0111587
0.0110222
0.0108601
0.0106799
0.0104883
0.010291
0.0100925
0.00989597
0.00970363
0.00951703
0.00933709
0.00916431
0.0089989
0.00884088
0.00869011
0.00854639
0.00840945
0.008279
0.00815471
0.00803628
0.00792339
0.00781573
0.00771302
0.00761497
0.00752133
0.00743183
0.00734625
0.00726436
0.00718596
0.0113786
0.0113249
0.0111997
0.0110009
0.0107442
0.0104511
0.0101407
0.00982717
0.00952002
0.00922488
0.00894479
0.00868112
0.00843415
0.00820345
0.00798818
0.00778733
0.00759987
0.00742475
0.00726098
0.00710765
0.00696389
0.00682892
0.00670204
0.00658259
0.00646999
0.00636371
0.00626326
0.0061682
0.00607814
0.00599273
0.00591161
0.00583451
0.00576114
0.0113536
0.011126
0.0107259
0.0102229
0.00968832
0.00916705
0.00868064
0.00823688
0.00783646
0.00747677
0.00715407
0.00686444
0.00660376
0.00636828
0.00615476
0.00596041
0.00578287
0.00562012
0.00547044
0.00533237
0.00520464
0.00508615
0.00497596
0.00487325
0.0047773
0.00468748
0.00460323
0.00452407
0.00444956
0.0043793
0.00431297
0.00425023
0.00419083
0.0111683
0.0102731
0.00924316
0.00829367
0.00748992
0.00682636
0.00627847
0.00582284
0.00544041
0.00511624
0.00483928
0.00459995
0.00439098
0.00420686
0.00404337
0.00389717
0.00376565
0.00364667
0.00353852
0.00343977
0.00334924
0.00326594
0.00318905
0.00311784
0.00305171
0.00299014
0.00293267
0.0028789
0.0028285
0.00278115
0.0027366
0.0026946
0.00265493
0.00982659
0.0072389
0.00577405
0.00486951
0.00424873
0.00378755
0.00342701
0.00314024
0.00290887
0.00271813
0.00255776
0.00242093
0.0023028
0.00219976
0.00210909
0.00202868
0.00195686
0.0018923
0.00183394
0.00178091
0.0017325
0.00168811
0.00164725
0.0016095
0.00157452
0.001542
0.00151169
0.00148336
0.00145683
0.00143192
0.00140848
0.0013864
0.00136554
0.00414167
0.00254161
0.00204418
0.00174836
0.00154034
0.00137827
0.00124767
0.00114134
0.00105377
0.000980909
0.000919643
0.000867561
0.000822822
0.00078402
0.000750079
0.000720162
0.000693612
0.000669904
0.000648618
0.000629413
0.000612007
0.000596169
0.000581703
0.000568446
0.00055626
0.000545026
0.000534642
0.000525021
0.000516086
0.00050777
0.000500015
0.000492772
0.000485985
0.000119434
0.000124352
0.000129424
0.000134072
0.000138235
0.000142037
0.000145562
0.000148849
0.000151924
0.000154806
0.000157512
0.000160054
0.000162444
0.000164691
0.000166805
0.000168794
0.000170666
0.000172429
0.000174087
0.000175649
0.000177119
0.000178503
0.000179806
0.000181034
0.00018219
0.000183279
0.000184304
0.00018527
0.000186181
0.000187038
0.000187846
0.000188607
0.000189325
6.59825e-05
7.80396e-05
9.77673e-05
0.000124026
0.000155949
0.000192309
0.00023185
0.000273246
0.000315149
0.000356342
0.000395934
0.000433455
0.000468852
0.000502375
0.00053444
0.000565492
0.00059591
0.000625959
0.000655788
0.000685452
0.000714955
0.000744281
0.000773423
0.000802395
0.00083123
0.000859976
0.000888686
0.00091741
0.00094619
0.000975061
0.00100405
0.00103317
0.00106243
0.00109186
0.00112144
0.0011512
0.00118113
0.00121125
0.00124157
0.00127212
0.00130291
0.00133398
0.00136537
0.00139715
0.00142937
0.00146212
0.00149549
0.0015296
0.00156457
0.00160055
0.00163771
0.00167621
0.00171627
0.0017581
0.00180193
0.00184799
0.00189653
0.00194778
0.002002
0.00205941
0.0021202
0.00218455
0.00225259
0.00232442
0.00240008
0.00247955
0.00256275
0.00264958
0.00273983
0.00283329
0.00292967
0.00302867
0.00312995
0.00323314
0.00333786
0.00344371
0.00355028
0.00365718
0.003764
0.00387035
0.00397584
0.0040801
0.00418279
0.00428356
0.0043821
0.00447814
0.0045714
0.00466166
0.0047487
0.00483235
0.00491246
0.00498889
0.00506157
0.00513038
0.00519534
0.00525628
0.00531358
0.00536665
0.00541526
0.00548004
0.000121852
0.000121642
0.000123435
0.000128351
0.000136161
0.000146897
0.000160663
0.000177563
0.000197646
0.000220897
0.000247208
0.000276352
0.000307973
0.000341596
0.000376663
0.000412581
0.000448783
0.000484784
0.000520226
0.000554894
0.000588709
0.000621698
0.000653958
0.000685611
0.000716783
0.000747589
0.000778121
0.000808458
0.000838666
0.0008688
0.000898911
0.000929044
0.000959241
0.000989538
0.00101997
0.00105057
0.00108136
0.00111237
0.00114365
0.00117521
0.00120711
0.00123939
0.0012721
0.00130533
0.00133913
0.00137362
0.00140888
0.00144506
0.00148228
0.00152071
0.00156052
0.0016019
0.00164507
0.00169023
0.00173763
0.00178749
0.00184006
0.00189556
0.00195421
0.0020162
0.0020817
0.00215082
0.00222364
0.0023002
0.00238048
0.00246438
0.00255179
0.00264251
0.00273633
0.00283297
0.00293215
0.00303354
0.0031368
0.00324157
0.00334751
0.00345425
0.00356142
0.00366867
0.00377565
0.00388201
0.00398742
0.00409154
0.00419407
0.00429471
0.00439318
0.00448921
0.00458256
0.00467302
0.00476038
0.00484447
0.00492513
0.00500225
0.00507571
0.00514542
0.00521138
0.00527342
0.00533188
0.00538623
0.00543604
0.00550274
0.000240028
0.000235394
0.00023056
0.00022611
0.000222653
0.000220692
0.000220427
0.000221993
0.000225635
0.000231638
0.000240283
0.000251806
0.000266367
0.000284018
0.000304696
0.000328222
0.000354318
0.000382625
0.000412737
0.000444228
0.000476678
0.000509706
0.000542987
0.000576269
0.000609375
0.000642203
0.000674715
0.000706922
0.000738864
0.0007706
0.000802199
0.000833725
0.000865243
0.000896812
0.000928487
0.000960321
0.000992365
0.00102467
0.00105729
0.00109028
0.00112371
0.00115763
0.00119213
0.00122729
0.00126321
0.00130001
0.00133779
0.00137671
0.00141693
0.0014586
0.00150192
0.0015471
0.00159434
0.00164386
0.00169588
0.00175062
0.0018083
0.00186911
0.00193321
0.00200074
0.0020718
0.00214644
0.00222466
0.00230642
0.00239161
0.00248009
0.00257165
0.00266606
0.00276305
0.00286234
0.00296362
0.00306656
0.00317085
0.00327616
0.00338219
0.00348862
0.00359514
0.00370146
0.00380729
0.00391235
0.00401637
0.00411906
0.00422017
0.00431946
0.00441666
0.00451156
0.00460392
0.00469356
0.00478027
0.00486388
0.00494426
0.00502126
0.00509477
0.0051647
0.00523103
0.00529358
0.00535268
0.0054078
0.00545836
0.00552639
0.000435141
0.000426884
0.000418769
0.000410889
0.000403371
0.000396311
0.000389777
0.000383871
0.00037867
0.000374225
0.000370657
0.000368169
0.000367047
0.000367643
0.000370341
0.000375507
0.000383444
0.000394348
0.000408286
0.000425196
0.000444894
0.000467114
0.000491531
0.000517801
0.000545584
0.000574565
0.000604468
0.000635064
0.000666172
0.000697662
0.000729445
0.000761474
0.000793729
0.000826218
0.000858965
0.00089201
0.000925398
0.000959188
0.000993442
0.00102823
0.00106363
0.00109972
0.0011366
0.00117438
0.00121316
0.00125309
0.00129429
0.00133693
0.00138118
0.0014272
0.0014752
0.00152537
0.00157791
0.00163302
0.00169088
0.00175169
0.00181559
0.00188272
0.00195316
0.00202699
0.0021042
0.00218476
0.00226859
0.00235554
0.00244545
0.00253808
0.0026332
0.00273052
0.00282975
0.00293059
0.00303273
0.00313589
0.00323978
0.00334413
0.00344867
0.00355317
0.00365739
0.00376111
0.00386413
0.00396623
0.00406721
0.00416686
0.004265
0.00436141
0.0044559
0.00454827
0.00463833
0.00472589
0.00481077
0.00489281
0.00497186
0.00504779
0.00512047
0.00518979
0.00525573
0.00531809
0.00537718
0.00543249
0.00548327
0.00555195
0.00069163
0.000679381
0.000667505
0.000656147
0.000645394
0.000635235
0.000625622
0.000616492
0.000607837
0.000599611
0.000591759
0.000584256
0.00057712
0.000570426
0.000564309
0.000558972
0.000554676
0.000551731
0.000550476
0.000551247
0.000554343
0.000560005
0.000568382
0.000579531
0.000593417
0.000609924
0.000628877
0.000650066
0.000673264
0.000698248
0.00072481
0.000752765
0.00078196
0.000812272
0.000843611
0.000875916
0.000909157
0.000943325
0.000978438
0.00101453
0.00105166
0.00108989
0.00112931
0.00117002
0.00121214
0.0012558
0.00130113
0.00134829
0.00139743
0.00144872
0.00150232
0.00155842
0.00161715
0.00167868
0.00174314
0.00181063
0.00188124
0.001955
0.00203193
0.00211199
0.00219508
0.00228109
0.00236983
0.00246111
0.00255467
0.00265025
0.00274755
0.00284627
0.00294612
0.00304679
0.00314802
0.00324954
0.00335112
0.00345254
0.00355362
0.00365419
0.0037541
0.00385322
0.00395142
0.00404858
0.00414459
0.00423931
0.00433262
0.00442437
0.00451442
0.00460261
0.00468878
0.00477277
0.00485442
0.00493356
0.00501006
0.00508375
0.00515453
0.00522226
0.00528689
0.00534823
0.00540653
0.00546132
0.00551169
0.00558017
0.00102159
0.00100379
0.000986636
0.000970275
0.000954808
0.000940234
0.000926492
0.000913495
0.000901165
0.000889429
0.000878203
0.00086742
0.000857035
0.00084703
0.000837417
0.000828239
0.000819572
0.000811524
0.000804239
0.000797893
0.000792687
0.000788849
0.000786613
0.000786213
0.000787866
0.000791758
0.000798035
0.000806794
0.00081808
0.000831893
0.000848192
0.000866907
0.000887949
0.000911218
0.000936614
0.000964047
0.000993439
0.00102473
0.00105787
0.00109285
0.00112966
0.00116832
0.00120888
0.0012514
0.00129593
0.00134259
0.00139145
0.00144264
0.00149627
0.00155244
0.00161128
0.00167289
0.00173735
0.00180475
0.00187513
0.0019485
0.00202487
0.00210418
0.00218634
0.00227123
0.00235866
0.00244844
0.00254032
0.00263403
0.00272928
0.00282576
0.00292315
0.00302115
0.00311946
0.0032178
0.00331592
0.00341361
0.00351068
0.00360698
0.0037024
0.00379684
0.00389026
0.00398259
0.00407381
0.00416389
0.0042528
0.0043405
0.00442693
0.00451202
0.0045957
0.00467784
0.00475834
0.00483706
0.00491385
0.00498856
0.00506106
0.00513118
0.0051988
0.00526377
0.00532601
0.00538533
0.00544192
0.00549535
0.00554455
0.00561183
0.00144363
0.00141787
0.00139316
0.00136961
0.00134729
0.00132621
0.00130631
0.0012875
0.00126967
0.00125275
0.00123665
0.00122129
0.00120661
0.0011926
0.00117923
0.00116653
0.00115454
0.00114329
0.00113285
0.0011233
0.00111472
0.00110722
0.00110092
0.00109593
0.00109239
0.00109046
0.00109029
0.00109202
0.0010958
0.00110176
0.00111003
0.00112071
0.00113386
0.00114956
0.00116783
0.0011887
0.00121219
0.0012383
0.00126703
0.00129838
0.00133235
0.00136897
0.00140824
0.00145019
0.00149487
0.00154231
0.00159256
0.00164568
0.0017017
0.00176068
0.00182265
0.00188765
0.00195568
0.00202672
0.00210074
0.00217767
0.00225741
0.00233981
0.00242472
0.00251192
0.00260116
0.00269217
0.00278465
0.00287829
0.00297274
0.00306768
0.00316278
0.00325771
0.00335219
0.00344595
0.00353877
0.00363047
0.0037209
0.00380998
0.00389764
0.00398388
0.00406871
0.00415217
0.00423432
0.00431523
0.00439495
0.00447354
0.00455103
0.00462743
0.00470272
0.00477686
0.00484977
0.00492137
0.00499154
0.00506014
0.00512704
0.00519208
0.00525512
0.005316
0.00537462
0.00543077
0.00548459
0.00553567
0.00558283
0.00564774
0.00196958
0.00193328
0.00189854
0.0018654
0.00183391
0.00180406
0.00177578
0.00174898
0.00172355
0.0016994
0.00167645
0.0016546
0.00163381
0.00161404
0.00159529
0.00157758
0.00156092
0.00154538
0.00153099
0.00151781
0.00150591
0.00149533
0.00148615
0.00147843
0.00147223
0.00146763
0.0014647
0.00146353
0.00146421
0.00146685
0.00147154
0.0014784
0.00148754
0.00149907
0.00151309
0.0015297
0.00154899
0.00157105
0.00159596
0.00162378
0.00165457
0.00168839
0.00172529
0.00176532
0.0018085
0.00185489
0.00190449
0.00195734
0.00201344
0.00207278
0.00213536
0.00220113
0.00227003
0.00234199
0.00241688
0.00249456
0.00257487
0.00265759
0.00274248
0.00282927
0.00291766
0.00300731
0.00309788
0.00318901
0.00328033
0.00337149
0.00346215
0.00355196
0.00364065
0.00372796
0.00381367
0.00389762
0.00397972
0.0040599
0.00413816
0.00421455
0.00428914
0.00436206
0.00443344
0.00450344
0.00457219
0.00463986
0.00470656
0.00477239
0.00483741
0.00490166
0.00496512
0.00502776
0.00508951
0.00515025
0.00520987
0.00526822
0.00532515
0.00538049
0.00543413
0.00548583
0.00553568
0.0055833
0.00562743
0.00568862
0.0025999
0.00255102
0.00250421
0.00245949
0.00241685
0.00237628
0.00233768
0.00230098
0.00226606
0.00223282
0.00220118
0.00217105
0.00214237
0.0021151
0.00208926
0.00206483
0.00204187
0.00202041
0.00200051
0.00198222
0.0019656
0.00195071
0.0019376
0.0019263
0.00191688
0.00190936
0.00190379
0.00190021
0.00189867
0.00189921
0.0019019
0.0019068
0.00191398
0.00192353
0.00193552
0.00195006
0.00196724
0.00198716
0.0020099
0.00203557
0.00206425
0.00209601
0.00213095
0.00216912
0.00221057
0.00225534
0.00230348
0.00235498
0.00240984
0.00246803
0.00252952
0.00259422
0.00266204
0.00273285
0.00280648
0.00288276
0.00296144
0.00304227
0.00312497
0.00320921
0.00329464
0.0033809
0.00346761
0.00355438
0.00364081
0.00372653
0.00381118
0.00389441
0.00397594
0.00405551
0.00413292
0.00420801
0.0042807
0.00435096
0.00441881
0.00448434
0.00454768
0.00460901
0.00466852
0.00472644
0.00478301
0.00483845
0.00489297
0.00494677
0.00499999
0.00505276
0.00510515
0.00515718
0.00520884
0.00526006
0.00531076
0.00536081
0.00541008
0.00545839
0.00550562
0.00555151
0.00559613
0.00563907
0.00567909
0.00573507
0.0033233
0.00326082
0.00320088
0.00314345
0.00308851
0.00303602
0.00298588
0.00293801
0.00289231
0.00284869
0.00280704
0.00276728
0.00272937
0.00269326
0.00265894
0.00262644
0.00259577
0.00256699
0.00254015
0.00251531
0.00249253
0.00247187
0.00245338
0.00243711
0.0024231
0.00241138
0.00240198
0.00239492
0.00239024
0.00238795
0.00238809
0.00239068
0.00239576
0.00240338
0.00241358
0.00242643
0.00244199
0.00246033
0.00248152
0.00250563
0.00253275
0.00256295
0.00259629
0.00263284
0.00267264
0.00271573
0.00276214
0.00281187
0.00286491
0.0029212
0.0029807
0.00304331
0.00310889
0.00317731
0.00324836
0.00332184
0.00339747
0.00347497
0.00355402
0.00363427
0.00371534
0.00379685
0.00387839
0.00395955
0.00403993
0.00411912
0.00419677
0.00427254
0.00434611
0.00441723
0.00448571
0.00455139
0.0046142
0.00467412
0.00473119
0.00478552
0.00483725
0.00488661
0.00493384
0.00497922
0.00502304
0.0050656
0.00510719
0.00514809
0.00518855
0.00522875
0.00526887
0.00530902
0.00534923
0.00538954
0.00542988
0.00547019
0.00551035
0.0055502
0.00558962
0.00562836
0.00566643
0.00570345
0.00573825
0.00578744
0.00411874
0.004043
0.00397011
0.00390004
0.00383274
0.00376817
0.00370624
0.00364687
0.00358997
0.00353546
0.00348324
0.00343324
0.00338541
0.00333972
0.00329616
0.00325475
0.0032155
0.00317847
0.00314372
0.0031113
0.00308128
0.00305372
0.00302867
0.00300619
0.00298632
0.00296909
0.00295454
0.00294269
0.00293356
0.00292716
0.00292351
0.00292262
0.00292451
0.00292919
0.0029367
0.00294705
0.00296029
0.00297644
0.00299556
0.00301769
0.00304287
0.00307114
0.00310256
0.00313716
0.00317497
0.003216
0.00326026
0.00330774
0.0033584
0.00341219
0.00346901
0.00352877
0.00359131
0.00365646
0.00372402
0.00379373
0.00386532
0.00393849
0.00401288
0.00408815
0.00416389
0.0042397
0.00431517
0.00438989
0.00446343
0.00453541
0.00460545
0.00467322
0.00473839
0.00480074
0.00486004
0.00491617
0.00496904
0.00501864
0.005065
0.00510825
0.00514856
0.00518613
0.00522126
0.00525423
0.00528539
0.00531508
0.00534366
0.00537146
0.00539881
0.00542598
0.00545323
0.00548074
0.00550866
0.00553707
0.005566
0.00559542
0.00562528
0.00565544
0.0056858
0.00571615
0.00574644
0.00577634
0.0058048
0.00584561
0.00495881
0.00487149
0.00478714
0.00470571
0.00462718
0.00455149
0.00447859
0.0044084
0.00434086
0.00427589
0.00421342
0.00415339
0.00409577
0.00404052
0.00398765
0.00393717
0.00388912
0.00384353
0.00380047
0.00376
0.00372219
0.00368709
0.00365477
0.00362529
0.00359869
0.00357503
0.00355432
0.00353661
0.0035219
0.00351022
0.00350159
0.00349599
0.00349345
0.00349398
0.00349757
0.00350423
0.00351399
0.00352685
0.00354283
0.00356194
0.00358421
0.00360964
0.00363826
0.00367006
0.00370505
0.00374322
0.00378455
0.00382899
0.00387649
0.00392697
0.00398032
0.00403641
0.00409507
0.00415611
0.0042193
0.00428439
0.00435107
0.00441903
0.00448792
0.00455736
0.00462696
0.0046963
0.00476498
0.00483257
0.00489868
0.0049629
0.00502488
0.00508426
0.00514077
0.00519415
0.00524421
0.00529081
0.00533386
0.00537336
0.00540934
0.00544192
0.00547126
0.00549759
0.00552117
0.00554233
0.0055614
0.00557876
0.0055948
0.00560989
0.00562441
0.0056387
0.00565309
0.00566784
0.00568317
0.00569925
0.00571619
0.00573403
0.00575277
0.00577236
0.0057927
0.00581364
0.00583511
0.00585681
0.00587794
0.00590887
0.00581332
0.00571724
0.005624
0.0055336
0.00544601
0.00536121
0.00527914
0.00519979
0.00512309
0.00504899
0.00497746
0.00490846
0.00484196
0.00477795
0.00471645
0.00465747
0.00460105
0.00454725
0.00449612
0.00444773
0.00440216
0.00435946
0.00431971
0.00428297
0.00424929
0.00421873
0.00419133
0.00416711
0.00414612
0.00412836
0.00411386
0.00410262
0.00409465
0.00408996
0.00408854
0.0040904
0.00409553
0.00410394
0.00411561
0.00413055
0.00414876
0.00417021
0.0041949
0.00422281
0.00425391
0.00428816
0.00432551
0.0043659
0.00440925
0.00445543
0.00450433
0.00455578
0.0046096
0.00466559
0.00472348
0.00478302
0.00484388
0.00490575
0.00496827
0.00503105
0.0050937
0.00515582
0.005217
0.00527682
0.0053349
0.00539084
0.00544431
0.00549497
0.00554254
0.00558679
0.00562754
0.00566464
0.00569803
0.00572769
0.00575366
0.00577604
0.005795
0.00581074
0.00582353
0.00583367
0.0058415
0.00584739
0.00585174
0.00585494
0.00585739
0.00585947
0.00586156
0.00586397
0.005867
0.00587089
0.00587581
0.00588189
0.0058892
0.00589774
0.0059075
0.00591835
0.00593027
0.00594294
0.00595594
0.00597573
0.0066525
0.00655126
0.00645253
0.00635633
0.00626266
0.00617152
0.00608291
0.00599681
0.00591321
0.00583209
0.00575343
0.00567723
0.00560349
0.0055322
0.00546341
0.00539715
0.00533346
0.0052724
0.00521405
0.00515847
0.00510575
0.00505595
0.00500915
0.00496542
0.00492482
0.00488742
0.00485327
0.0048224
0.00479485
0.00477066
0.00474984
0.00473241
0.00471838
0.00470776
0.00470055
0.00469675
0.00469635
0.00469934
0.00470571
0.00471544
0.00472851
0.0047449
0.00476457
0.00478747
0.00481357
0.00484279
0.00487507
0.0049103
0.00494839
0.00498919
0.00503257
0.00507833
0.00512627
0.00517617
0.00522776
0.00528076
0.00533484
0.00538968
0.00544492
0.00550017
0.00555505
0.00560915
0.00566209
0.00571345
0.00576288
0.00581
0.00585447
0.00589601
0.00593434
0.00596924
0.00600055
0.00602815
0.00605196
0.00607198
0.00608825