/*--------------------------------*- C++ -*----------------------------------*\
| =========                 |                                                 |
| \\      /  F ield         | OpenFOAM: The Open Source CFD Toolbox           |
|  \\    /   O peration     | Version:  4.1                                   |
|   \\  /    A nd           | Web:      www.OpenFOAM.org                      |
|    \\/     M anipulation  |                                                 |
\*---------------------------------------------------------------------------*/
FoamFile
{
    version     2.0;
    format      ascii;
    class       volScalarField;
    location    "700";
    object      omega;
}
// * * * * * * * * * * * * * * * * * * * * * * * * * * * * * * * * * * * * * //

dimensions      [0 0 -1 0 0 0 0];

internalField   nonuniform List<scalar> 
6820
(
7254.63
8569.06
9629.25
10283
10668.4
10885.8
10995.8
11034.9
11026.8
10987.3
10927.3
10854.4
10774
10689.7
10604.1
10519.1
10435.8
10355
10277.3
10202.9
10131.9
10064.5
10000.5
9939.93
9882.61
9828.41
9777.18
9728.79
9682.92
9640.12
9596.73
9568.86
9476.66
600.799
1554.22
2092.91
2435.19
2698.34
2895.12
3033.36
3126.97
3188.98
3229.02
3253.95
3268.66
3276.58
3280.08
3280.77
3279.75
3277.77
3275.35
3272.81
3270.37
3268.16
3266.26
3264.71
3263.53
3262.71
3262.26
3262.18
3262.49
3263.24
3264.49
3266.42
3268.98
3274.3
107.108
368.908
596.394
767.386
894.981
993.334
1070.57
1131.54
1179.69
1217.64
1247.46
1270.8
1289.01
1303.18
1314.18
1322.7
1329.28
1334.36
1338.3
1341.35
1343.74
1345.65
1347.19
1348.49
1349.62
1350.66
1351.65
1352.63
1353.65
1354.74
1355.94
1357.27
1358.96
37.6577
108.378
189.201
265.511
332.231
389.334
437.981
479.462
514.908
545.244
571.225
593.485
612.562
628.92
642.953
655.002
665.357
674.267
681.944
688.571
694.302
699.27
703.588
707.352
710.646
713.541
716.098
718.369
720.401
722.236
723.913
725.464
726.938
23.8008
47.5371
77.7008
109.824
141.237
170.722
197.836
222.517
244.874
265.072
283.289
299.703
314.482
327.785
339.761
350.542
360.252
369.003
376.894
384.018
390.453
396.275
401.548
406.329
410.673
414.624
418.226
421.516
424.528
427.295
429.845
432.205
434.411
19.8177
29.4751
42.5079
57.2096
72.4554
87.5719
102.186
116.107
129.248
141.581
153.108
163.852
173.844
183.124
191.734
199.716
207.113
213.966
220.316
226.199
231.653
236.71
241.401
245.756
249.802
253.564
257.065
260.326
263.368
266.209
268.869
271.361
273.708
18.4341
22.8152
29.1685
36.6489
44.6826
52.9063
61.0978
69.1228
76.9009
84.3847
91.5472
98.3754
104.866
111.022
116.85
122.36
127.565
132.478
137.112
141.482
145.602
149.486
153.147
156.599
159.854
162.925
165.823
168.56
171.145
173.59
175.903
178.094
180.173
17.9115
19.9902
23.3042
27.4134
31.9742
36.7598
41.6266
46.4842
51.2743
55.9588
60.5125
64.9193
69.1692
73.257
77.1806
80.9401
84.5376
87.9762
91.2603
94.3946
97.3844
100.235
102.953
105.543
108.011
110.364
112.606
114.743
116.781
118.725
120.58
122.35
124.042
17.7059
18.7013
20.4733
22.8216
25.5371
28.4654
31.5039
34.5854
37.6658
40.7152
43.713
46.645
49.5016
52.2762
54.9647
57.5649
60.0755
62.4966
64.8288
67.0736
69.2326
71.3079
73.3019
75.217
77.0559
78.8213
80.5159
82.1425
83.7038
85.2026
86.6414
88.0227
89.3494
17.6233
18.0951
19.0401
20.3949
22.0449
23.887
25.8451
27.8668
29.9161
31.9683
34.006
36.0167
37.9918
39.925
41.8118
43.6492
45.4354
47.1691
48.8498
50.4775
52.0525
53.5753
55.047
56.4684
57.8408
59.1653
60.4435
61.6766
62.866
64.0133
65.1197
66.1867
67.2156
17.5896
17.8082
18.3025
19.0753
20.0762
21.243
22.5218
23.8719
25.2637
26.6759
28.0933
29.5047
30.9021
32.2796
33.6328
34.9585
36.2545
37.5191
38.7514
39.9507
41.1167
42.2493
43.3486
44.4151
45.4492
46.4514
47.4223
48.3626
49.2732
50.1546
51.0077
51.8332
52.6319
17.5758
17.6732
17.924
18.3539
18.9503
19.682
20.5146
21.4186
22.3704
23.3521
24.3503
25.3549
26.3586
27.3555
28.3415
29.3133
30.2685
31.2054
32.1225
33.0191
33.8944
34.748
35.5798
36.3897
37.1777
37.944
38.6889
39.4126
40.1155
40.798
41.4605
42.1033
42.727
17.5702
17.6104
17.7324
17.9633
18.3084
18.7568
19.2901
19.889
20.5362
21.2175
21.9217
22.6397
23.3649
24.0918
24.8165
25.5355
26.2467
26.9479
27.6377
28.3151
28.9792
29.6293
30.2652
30.8864
31.4928
32.0844
32.6611
33.223
33.7703
34.3031
34.8216
35.3259
35.8164
17.5678
17.5817
17.6374
17.7559
17.9479
18.2137
18.5461
18.9344
19.3672
19.8343
20.3268
20.8373
21.3597
21.8894
22.4224
22.9557
23.4869
24.014
24.5354
25.05
25.5568
26.0551
26.5443
27.024
27.4938
27.9535
28.403
28.8423
29.2712
29.6899
30.0983
30.4965
30.8845
17.5669
17.5687
17.5913
17.6483
17.7501
17.9012
18.1009
18.3448
18.6268
18.9402
19.2785
19.6362
20.0084
20.3909
20.7804
21.1739
21.5694
21.9647
22.3585
22.7494
23.1365
23.5188
23.8959
24.2671
24.6321
24.9904
25.342
25.6865
26.0239
26.3541
26.677
26.9926
27.3009
17.5665
17.563
17.5695
17.5941
17.6444
17.7258
17.8405
17.9877
18.1651
18.369
18.5955
18.8405
19.1005
19.3722
19.6527
19.9397
20.2311
20.5251
20.8203
21.1156
21.4097
21.702
21.9918
22.2784
22.5614
22.8404
23.1151
23.3853
23.6507
23.9112
24.1667
24.4171
24.6623
17.5663
17.5605
17.5594
17.5675
17.5897
17.6303
17.6923
17.7769
17.8837
18.0113
18.1577
18.3205
18.4972
18.6856
18.8834
19.0888
19.2999
19.5153
19.7338
19.9541
20.1754
20.3967
20.6176
20.8373
21.0553
21.2713
21.4849
21.6958
21.9038
22.1087
22.3103
22.5085
22.7032
17.5662
17.5595
17.5549
17.5548
17.5621
17.5799
17.6107
17.6561
17.7169
17.7929
17.8836
17.9876
18.1036
18.2302
18.3657
18.5089
18.6583
18.8128
18.9713
19.1329
19.2967
19.4619
19.628
19.7943
19.9605
20.126
20.2906
20.4539
20.6157
20.7757
20.9337
21.0897
21.2434
17.5662
17.559
17.5529
17.5489
17.5487
17.5542
17.5672
17.5891
17.6211
17.6636
17.7166
17.7799
17.8528
17.9345
18.0241
18.1207
18.2233
18.3311
18.4432
18.559
18.6776
18.7985
18.9211
19.045
19.1696
19.2947
19.4198
19.5447
19.6691
19.7927
19.9155
20.0371
20.1576
17.5662
17.5588
17.552
17.5462
17.5424
17.5415
17.5447
17.5532
17.5679
17.5894
17.6181
17.6542
17.6975
17.7477
17.8043
17.8668
17.9347
18.0074
18.0842
18.1648
18.2484
18.3347
18.4232
18.5135
18.6053
18.698
18.7916
18.8857
18.98
19.0743
19.1685
19.2624
19.3558
17.5662
17.5588
17.5516
17.5451
17.5395
17.5354
17.5335
17.5346
17.5394
17.5483
17.562
17.5807
17.6044
17.6332
17.667
17.7055
17.7484
17.7954
17.8462
17.9004
17.9576
18.0175
18.0797
18.144
18.2101
18.2776
18.3463
18.416
18.4865
18.5575
18.629
18.7006
18.7724
17.5662
17.5587
17.5515
17.5445
17.5381
17.5325
17.5281
17.5253
17.5246
17.5265
17.5312
17.5392
17.5506
17.5656
17.5843
17.6065
17.6322
17.6612
17.6934
17.7286
17.7666
17.807
17.8498
17.8946
17.9413
17.9896
18.0394
18.0905
18.1426
18.1956
18.2494
18.3038
18.3586
17.5662
17.5587
17.5514
17.5443
17.5376
17.5313
17.5256
17.5209
17.5174
17.5153
17.5151
17.517
17.5211
17.5277
17.5369
17.5487
17.5632
17.5804
17.6002
17.6225
17.6471
17.6741
17.7031
17.7342
17.7671
17.8017
17.8378
17.8753
17.914
17.9539
17.9947
18.0363
18.0788
17.5662
17.5587
17.5514
17.5442
17.5373
17.5307
17.5245
17.5189
17.514
17.5101
17.5074
17.506
17.5063
17.5083
17.5122
17.5181
17.5261
17.5363
17.5486
17.563
17.5795
17.5981
17.6186
17.6409
17.665
17.6907
17.718
17.7467
17.7767
17.8079
17.8402
17.8735
17.9077
17.5662
17.5587
17.5514
17.5442
17.5372
17.5306
17.5242
17.5183
17.513
17.5084
17.5048
17.5022
17.501
17.5012
17.503
17.5065
17.5117
17.5189
17.5279
17.5389
17.5517
17.5664
17.5829
17.6012
17.6212
17.6427
17.6657
17.6902
17.716
17.743
17.7711
17.8002
17.8303
17.5662
17.5587
17.5514
17.5442
17.5373
17.5307
17.5244
17.5187
17.5136
17.5094
17.5062
17.5041
17.5034
17.5042
17.5067
17.5108
17.5168
17.5246
17.5343
17.5459
17.5593
17.5746
17.5917
17.6104
17.6308
17.6528
17.6762
17.701
17.7271
17.7543
17.7826
17.8119
17.8422
17.5662
17.5587
17.5514
17.5443
17.5376
17.5312
17.5255
17.5205
17.5166
17.5139
17.5127
17.5131
17.5153
17.5194
17.5256
17.5338
17.5442
17.5568
17.5714
17.5881
17.6068
17.6274
17.6498
17.674
17.6998
17.7271
17.7558
17.7858
17.817
17.8493
17.8826
17.9167
17.9517
17.5662
17.5587
17.5515
17.5446
17.5383
17.5328
17.5283
17.5254
17.5242
17.5251
17.5284
17.5344
17.543
17.5544
17.5687
17.5858
17.6056
17.6281
17.6531
17.6805
17.7101
17.7417
17.7753
17.8106
17.8475
17.8859
17.9255
17.9663
18.0082
18.0509
18.0944
18.1386
18.1834
17.5662
17.5588
17.5518
17.5455
17.5403
17.5368
17.5355
17.5371
17.542
17.5507
17.5634
17.5803
17.6014
17.6267
17.656
17.689
17.7256
17.7655
17.8084
17.854
17.902
17.9521
18.0042
18.0579
18.1131
18.1695
18.227
18.2853
18.3443
18.4039
18.4639
18.5242
18.5847
17.5663
17.5591
17.5527
17.548
17.5458
17.5473
17.5535
17.5653
17.5834
17.6079
17.6392
17.677
17.7211
17.771
17.8263
17.8865
17.9509
18.0192
18.0908
18.1652
18.2419
18.3207
18.4011
18.4827
18.5654
18.6489
18.7328
18.817
18.9014
18.9858
19.0699
19.1538
19.2372
17.5663
17.5598
17.5555
17.5552
17.5611
17.5751
17.5988
17.6332
17.6786
17.7349
17.8015
17.8776
17.9624
18.0547
18.1535
18.2578
18.3668
18.4796
18.5954
18.7136
18.8335
18.9548
19.0768
19.1992
19.3218
19.4441
19.566
19.6872
19.8076
19.927
20.0453
20.1623
20.278
17.5666
17.5622
17.5642
17.5767
17.6039
17.6486
17.7124
17.7951
17.896
18.0132
18.145
18.289
18.4433
18.606
18.7753
18.9497
19.1279
19.3087
19.4912
19.6746
19.8581
20.0413
20.2237
20.4047
20.5843
20.762
20.9376
21.111
21.282
21.4506
21.6166
21.7799
21.9406
17.5674
17.5706
17.5924
17.6417
17.7245
17.8427
17.995
18.1778
18.3868
18.6172
18.8646
19.125
19.3951
19.6719
19.953
20.2365
20.5208
20.8047
21.0871
21.3673
21.6446
21.9185
22.1886
22.4546
22.7164
22.9737
23.2264
23.4745
23.7178
23.9564
24.1903
24.4195
24.6441
17.5706
17.6016
17.687
17.8408
18.0649
18.3527
18.6933
19.0751
19.4875
19.9213
20.3693
20.8257
21.2861
21.7468
22.2053
22.6598
23.1087
23.5511
23.9861
24.4133
24.8323
25.2428
25.6448
26.038
26.4227
26.7987
27.1661
27.5252
27.8759
28.2185
28.553
28.8797
29.1987
17.5854
17.7219
18.012
18.4558
19.0269
19.692
20.4205
21.1884
21.9778
22.7761
23.5742
24.3656
25.1458
25.912
26.6623
27.3959
28.112
28.8105
29.4912
30.1545
30.8004
31.4292
32.0415
32.6374
33.2175
33.7821
34.3316
34.8666
35.3873
35.8943
36.3878
36.8684
37.3363
17.6614
18.2163
19.1615
20.3924
21.7983
23.2954
24.8285
26.3634
27.8795
29.3645
30.811
32.214
33.5724
34.8867
36.1579
37.3876
38.5772
39.7282
40.8422
41.9207
42.9651
43.9766
44.9567
45.9064
46.827
47.7195
48.5851
49.4247
50.2392
51.0297
51.7969
52.5418
53.2651
18.1027
20.3856
23.4854
26.9261
30.4414
33.9034
37.2583
40.4818
43.5648
46.506
49.3035
51.9687
54.5134
56.9473
59.2786
61.5146
63.6615
65.7245
67.7085
69.6179
71.4563
73.2276
74.9348
76.5811
78.1693
79.7022
81.1821
82.6115
83.9925
85.3273
86.618
87.8662
89.0741
21.2182
31.4407
42.4859
53.1245
62.9728
72.0352
80.4369
88.1941
95.3421
101.98
108.198
114.053
119.587
124.83
129.807
134.537
139.039
143.329
147.42
151.324
155.054
158.621
162.033
165.3
168.431
171.434
174.315
177.082
179.742
182.299
184.76
187.13
189.415
59.9537
123.961
170.318
207.141
238.336
266.971
293.908
319.086
342.453
364.002
383.806
401.993
418.712
434.116
448.349
461.538
473.8
485.234
495.93
505.964
515.405
524.31
532.73
540.712
548.294
555.511
562.395
568.971
575.266
581.3
587.093
592.661
598.026
1719.4
1778.23
1839.24
1895.41
1945.93
1992.23
2035.28
2075.52
2113.26
2148.7
2182.04
2213.4
2242.93
2270.74
2296.93
2321.61
2344.85
2366.75
2387.37
2406.81
2425.12
2442.37
2458.63
2473.95
2488.38
2501.98
2514.8
2526.88
2538.26
2548.99
2559.1
2568.63
2577.62
9373.27
8892.74
8341.93
7780.63
7245.79
6751.44
6303.3
5899.59
5535.18
5204.21
4901.63
4623.67
4367.61
4131.46
3913.64
3712.72
3527.32
3356.12
3197.86
3051.38
2915.61
2789.57
2672.37
2563.13
2461.04
2365.32
2275.25
2190.15
2109.42
2032.5
1958.9
1888.2
1820
1753.98
1689.83
1627.3
1566.17
1506.28
1447.46
1389.62
1332.66
1276.54
1221.23
1166.73
1113.07
1060.3
1008.49
957.736
908.137
859.814
812.891
767.498
723.762
681.804
641.737
603.655
567.637
533.739
501.995
472.415
444.986
419.671
396.415
375.143
355.766
338.185
322.29
307.969
295.104
283.58
273.282
264.099
255.924
248.655
242.196
236.458
231.356
226.813
222.755
219.117
215.839
212.864
210.144
207.633
205.291
203.084
200.979
198.951
196.974
195.029
193.098
191.166
189.22
187.249
185.244
183.195
181.103
178.931
176.857
173.698
3276
3322.54
3381.77
3439.32
3502.65
3569.49
3632.57
3683.48
3715.4
3723.99
3707.51
3666.46
3603.05
3520.59
3423.02
3314.46
3198.89
3079.83
2960.17
2842.12
2727.15
2616.17
2509.64
2407.67
2310.21
2217.08
2128.07
2042.9
1961.32
1883.04
1807.79
1735.31
1665.34
1597.63
1531.99
1468.22
1406.16
1345.68
1286.65
1229
1172.67
1117.62
1063.83
1011.31
960.08
910.193
861.701
814.674
769.191
725.333
683.188
642.836
604.354
567.81
533.256
500.733
470.261
441.844
415.466
391.093
368.674
348.144
329.424
312.423
297.045
283.188
270.747
259.615
249.688
240.864
233.044
226.134
220.045
214.693
209.999
205.889
202.293
199.147
196.391
193.971
191.835
189.936
188.231
186.683
185.256
183.918
182.643
181.406
180.186
178.963
177.723
176.452
175.137
173.769
172.34
170.84
169.273
167.605
165.988
163.456
1361.12
1366.26
1375.27
1386.96
1400.83
1417
1436.29
1460.3
1490.63
1528.06
1572.57
1623.18
1677.99
1734.27
1788.7
1837.8
1878.35
1907.83
1924.65
1928.29
1919.25
1898.75
1868.51
1830.43
1786.37
1737.94
1686.52
1633.18
1578.72
1523.73
1468.65
1413.8
1359.38
1305.57
1252.46
1200.16
1148.71
1098.16
1048.57
999.95
952.358
905.833
860.422
816.178
773.161
731.435
691.066
652.123
614.675
578.788
544.522
511.931
481.06
451.94
424.59
399.017
375.211
353.148
332.791
314.091
296.985
281.405
267.272
254.503
243.014
232.718
223.526
215.353
208.117
201.738
196.139
191.248
186.996
183.321
180.16
177.457
175.159
173.215
171.578
170.204
169.05
168.08
167.256
166.546
165.92
165.351
164.813
164.285
163.747
163.182
162.576
161.915
161.189
160.387
159.504
158.529
157.466
156.286
155.114
153.198
728.575
730.496
732.535
734.611
736.725
739.006
741.689
744.96
749.04
754.479
761.871
771.79
784.741
801.098
821.04
844.483
871.019
899.891
930.008
960.023
988.457
1013.85
1034.94
1050.74
1060.67
1064.49
1062.35
1054.63
1041.9
1024.79
1003.99
980.127
953.791
925.493
895.678
864.725
832.959
800.656
768.057
735.368
702.773
670.433
638.497
607.097
576.356
546.385
517.286
489.154
462.072
436.112
411.337
387.798
365.534
344.57
324.92
306.585
289.554
273.805
259.304
246.013
233.882
222.857
212.881
203.894
195.833
188.636
182.243
176.593
171.629
167.296
163.541
160.313
157.567
155.255
153.337
151.77
150.516
149.537
148.798
148.265
147.905
147.687
147.581
147.56
147.598
147.67
147.754
147.831
147.882
147.891
147.844
147.727
147.531
147.245
146.862
146.375
145.783
145.064
144.314
142.991
436.794
439.399
441.892
444.147
446.088
447.731
449.14
450.412
451.606
452.829
454.225
455.949
458.167
461.043
464.737
469.399
475.154
482.089
490.233
499.539
509.869
520.981
532.536
544.106
555.209
565.341
574.023
580.834
585.445
587.637
587.301
584.432
579.117
571.508
561.806
550.242
537.058
522.498
506.802
490.196
472.893
455.092
436.973
418.705
400.44
382.316
364.459
346.979
329.975
313.532
297.722
282.605
268.229
254.629
241.829
229.843
218.673
208.314
198.754
189.973
181.945
174.642
168.03
162.076
156.743
151.996
147.798
144.114
140.909
138.15
135.805
133.842
132.232
130.946
129.955
129.234
128.754
128.49
128.416
128.506
128.736
129.081
129.518
130.021
130.571
131.144
131.722
132.285
132.816
133.3
133.722
134.069
134.33
134.495
134.557
134.506
134.343
134.047
133.687
132.92
276.267
279.058
281.737
284.243
286.522
288.557
290.362
291.963
293.391
294.679
295.868
296.997
298.108
299.239
300.427
301.711
303.126
304.709
306.496
308.515
310.789
313.325
316.115
319.124
322.293
325.533
328.731
331.749
334.438
336.64
338.206
339.001
338.914
337.865
335.805
332.721
328.629
323.572
317.618
310.849
303.364
295.264
286.659
277.658
268.368
258.89
249.324
239.759
230.279
220.959
211.863
203.051
194.569
186.458
178.749
171.465
164.622
158.23
152.292
146.807
141.768
137.167
132.992
129.229
125.861
122.872
120.246
117.963
116.007
114.36
113.005
111.924
111.102
110.52
110.163
110.013
110.053
110.267
110.635
111.141
111.765
112.488
113.292
114.156
115.063
115.994
116.93
117.854
118.749
119.599
120.391
121.112
121.748
122.29
122.729
123.055
123.266
123.345
123.335
123.076
182.463
184.976
187.409
189.735
191.925
193.965
195.854
197.597
199.205
200.689
202.062
203.337
204.524
205.631
206.663
207.624
208.517
209.345
210.111
210.822
211.484
212.103
212.687
213.242
213.771
214.27
214.73
215.137
215.464
215.681
215.747
215.62
215.253
214.602
213.624
212.285
210.558
208.426
205.884
202.937
199.601
195.902
191.873
187.553
182.989
178.228
173.32
168.315
163.261
158.206
153.193
148.263
143.451
138.79
134.306
130.023
125.959
122.128
118.541
115.204
112.122
109.295
106.724
104.406
102.336
100.509
98.9184
97.5582
96.4209
95.4988
94.7841
94.2686
93.944
93.8016
93.8324
94.0269
94.3749
94.8656
95.4875
96.2282
97.0745
98.0122
99.0267
100.103
101.224
102.375
103.539
104.699
105.842
106.95
108.01
109.009
109.933
110.77
111.512
112.147
112.672
113.07
113.363
113.551
125.919
127.994
130.02
131.984
133.871
135.671
137.381
139.001
140.533
141.979
143.344
144.632
145.843
146.98
148.04
149.019
149.914
150.72
151.432
152.045
152.556
152.965
153.271
153.475
153.58
153.59
153.507
153.333
153.071
152.718
152.272
151.727
151.075
150.306
149.408
148.371
147.182
145.834
144.318
142.63
140.771
138.742
136.553
134.214
131.74
129.149
126.461
123.698
120.884
118.042
115.196
112.369
109.582
106.857
104.212
101.663
99.2246
96.9095
94.728
92.6883
90.7969
89.0587
87.477
86.0537
84.7899
83.6854
82.7396
81.951
81.3178
80.8377
80.5081
80.326
80.2881
80.3908
80.63
81.001
81.4985
82.1164
82.8479
83.6852
84.6194
85.6407
86.7382
87.9
89.1136
90.3655
91.6416
92.9276
94.2091
95.4716
96.701
97.8836
99.0063
100.057
101.024
101.896
102.669
103.326
103.868
104.436
90.831
92.479
94.0994
95.6853
97.2288
98.724
100.167
101.557
102.893
104.174
105.402
106.577
107.699
108.766
109.775
110.723
111.604
112.414
113.147
113.797
114.358
114.826
115.199
115.473
115.648
115.725
115.704
115.587
115.378
115.079
114.693
114.222
113.669
113.034
112.317
111.518
110.637
109.673
108.625
107.493
106.277
104.98
103.605
102.155
100.637
99.058
97.4275
95.7555
94.0528
92.3315
90.6038
88.8822
87.179
85.5064
83.8758
82.2979
80.7827
79.3391
77.9749
76.6971
75.5116
74.4232
73.4359
72.553
71.777
71.1098
70.5527
70.1066
69.7721
69.5494
69.4385
69.4392
69.5508
69.7726
70.1034
70.5415
71.0849
71.7308
72.4756
73.315
74.2438
75.2555
76.3428
77.4971
78.709
79.9678
81.2621
82.5797
83.9078
85.2333
86.5429
87.8233
89.0616
90.2449
91.3619
92.4002
93.3524
94.2056
94.9413
95.8155
68.3702
69.661
70.9374
72.1954
73.4308
74.6396
75.8192
76.968
78.0842
79.1674
80.217
81.2323
82.2124
83.1554
84.059
84.92
85.7345
86.498
87.2059
87.8533
88.4353
88.9475
89.3859
89.7473
90.0292
90.2301
90.3494
90.3871
90.3444
90.2227
90.0243
89.7516
89.4074
88.9944
88.5152
87.9726
87.3691
86.7068
85.9883
85.2157
84.3916
83.5185
82.5996
81.6383
80.6387
79.6054
78.5435
77.4588
76.3576
75.2467
74.1332
73.0243
71.9275
70.85
69.7992
68.7818
67.8047
66.8737
65.9947
65.1728
64.4124
63.7178
63.0924
62.5392
62.061
61.66
61.3382
61.0971
60.9383
60.863
60.8722
60.9671
61.1482
61.4164
61.772
62.2152
62.7458
63.363
64.0659
64.8523
65.7199
66.6649
67.6829
68.7684
69.9147
71.1141
72.3578
73.6361
74.9383
76.2532
77.5689
78.8732
80.1538
81.3983
82.5949
83.7314
84.7989
85.786
86.6593
87.7642
53.5315
54.5413
55.5444
56.5385
57.5209
58.4892
59.4414
60.3761
61.2919
62.1878
63.0631
63.917
64.7482
65.5552
66.3362
67.0886
67.8097
68.4961
69.1443
69.7505
70.3109
70.8218
71.2797
71.6815
72.0245
72.3066
72.5262
72.6823
72.7747
72.8036
72.7698
72.6747
72.5199
72.3075
72.0399
71.7194
71.3488
70.9306
70.4678
69.9631
69.4195
68.8398
68.2273
67.5851
66.9168
66.2259
65.5165
64.7925
64.0584
63.3187
62.5782
61.8417
61.1141
60.4003
59.7051
59.0333
58.3895
57.7778
57.2025
56.6672
56.1754
55.7302
55.3346
54.991
54.7019
54.4692
54.2948
54.1806
54.1281
54.1389
54.2143
54.3559
54.5649
54.8427
55.1905
55.6092
56.0999
56.663
57.2988
58.0072
58.7873
59.6378
60.5562
61.5396
62.5838
63.6837
64.8331
66.0247
67.2504
68.5011
69.7667
71.0368
72.3001
73.5454
74.7614
75.936
77.06
78.1232
79.0811
80.3431
43.4316
44.2252
45.0164
45.8039
46.586
47.361
48.1277
48.8847
49.6311
50.3659
51.0883
51.7975
52.4926
53.1722
53.8349
54.479
55.1023
55.7024
56.2768
56.8227
57.3372
57.8175
58.2608
58.6645
59.0261
59.3437
59.6154
59.8399
60.0164
60.1442
60.2235
60.2544
60.2378
60.1748
60.0667
59.9153
59.7225
59.4904
59.2213
58.9177
58.5822
58.2173
57.8258
57.4107
56.9749
56.5215
56.0537
55.5747
55.0879
54.5969
54.1051
53.6161
53.1334
52.6608
52.2016
51.7592
51.3371
50.9384
50.566
50.2228
49.9113
49.6341
49.3933
49.191
49.0291
48.9093
48.8333
48.8026
48.8187
48.8831
48.9972
49.1625
49.3805
49.6527
49.9804
50.3651
50.8083
51.311
51.8745
52.4994
53.1862
53.9348
54.7445
55.6141
56.5414
57.5236
58.5566
59.6356
60.7547
61.907
63.0848
64.2794
65.4815
66.6811
67.8681
69.0314
70.1617
71.2505
72.2458
73.5968
36.372
36.9995
37.6273
38.2543
38.8794
39.5017
40.12
40.7335
41.3412
41.9426
42.5369
43.1234
43.7013
44.2695
44.8271
45.3726
45.9046
46.4214
46.9211
47.4017
47.8611
48.2971
48.7077
49.0907
49.4443
49.7666
50.056
50.3113
50.5312
50.7152
50.8625
50.9732
51.0472
51.085
51.0873
51.0551
50.9895
50.8921
50.7645
50.6084
50.4258
50.2189
49.9899
49.7412
49.4751
49.1943
48.9013
48.5987
48.2894
47.976
47.6614
47.3483
47.0395
46.7377
46.4457
46.1661
45.9013
45.6538
45.4258
45.2196
45.037
44.88
44.7502
44.6494
44.579
44.5403
44.5348
44.5637
44.6283
44.7299
44.8697
45.0491
45.2694
45.532
45.8385
46.1902
46.5888
47.0356
47.5321
48.0795
48.679
49.3312
50.0366
50.7951
51.6061
52.4682
53.3794
54.3366
55.3362
56.3733
57.4423
58.5365
59.6487
60.7705
61.8935
63.0079
64.1049
65.1779
66.1707
67.5513
31.3253
31.8244
32.3252
32.827
33.329
33.8305
34.3308
34.8291
35.3249
35.8175
36.3064
36.791
37.2706
37.7446
38.212
38.6719
39.1232
39.5648
39.9951
40.4129
40.8165
41.2044
41.575
41.9268
42.2581
42.5677
42.854
43.116
43.3526
43.5631
43.7467
43.903
44.032
44.1334
44.2077
44.2553
44.2769
44.2733
44.2456
44.1951
44.1231
44.0314
43.9214
43.7952
43.6545
43.5013
43.3378
43.1661
42.9884
42.8068
42.6237
42.4411
42.2614
42.0866
41.919
41.7604
41.613
41.4784
41.3587
41.2552
41.1697
41.1036
41.0581
41.0345
41.034
41.0576
41.1065
41.1816
41.2839
41.4145
41.5744
41.7648
41.9868
42.2416
42.5306
42.8552
43.2167
43.6167
44.0567
44.538
45.062
45.63
46.2429
46.9014
47.6057
48.3558
49.1507
49.9892
50.869
51.7873
52.7401
53.7229
54.7302
55.7555
56.7922
57.8321
58.8675
59.8935
60.853
62.2146
27.652
28.0506
28.4517
28.8548
29.2594
29.6649
30.0709
30.4767
30.882
31.2862
31.6888
32.0895
32.4877
32.8828
33.2742
33.6613
34.0431
34.4189
34.7876
35.1483
35.4997
35.8408
36.1704
36.4873
36.7903
37.0783
37.3503
37.6052
37.8423
38.0607
38.2598
38.4392
38.5985
38.7375
38.8564
38.9551
39.0341
39.0939
39.1351
39.1586
39.1653
39.1564
39.133
39.0966
39.0485
38.9904
38.9238
38.8504
38.7719
38.6901
38.6068
38.5237
38.4425
38.365
38.2928
38.2275
38.1707
38.1238
38.0882
38.0652
38.0559
38.0614
38.0827
38.1208
38.1766
38.2507
38.3441
38.4575
38.5917
38.7475
38.9256
39.1269
39.3525
39.6034
39.8805
40.1853
40.5188
40.8825
41.2777
41.7058
42.1684
42.6666
43.2018
43.775
44.3871
45.0386
45.7296
46.4597
47.228
48.033
48.8724
49.7431
50.6415
51.563
52.5023
53.4532
54.4094
55.3674
56.2716
57.5775
24.9423
25.2611
25.5829
25.9074
26.2341
26.5626
26.8926
27.2236
27.5554
27.8874
28.2194
28.551
28.8818
29.2113
29.5391
29.8647
30.1874
30.5067
30.8219
31.1321
31.4366
31.7346
32.0251
32.3074
32.5805
32.8436
33.0959
33.3366
33.5649
33.7804
33.9824
34.1704
34.3442
34.5034
34.6481
34.7781
34.8937
34.9952
35.0828
35.1572
35.219
35.269
35.3081
35.3372
35.3575
35.37
35.3761
35.377
35.3741
35.3687
35.3622
35.356
35.3514
35.3499
35.3526
35.3609
35.3759
35.3988
35.4306
35.4722
35.5246
35.5885
35.6647
35.7539
35.8567
35.9736
36.1052
36.252
36.4147
36.5937
36.7897
37.0033
37.2353
37.4864
37.7575
38.0497
38.3639
38.7014
39.0633
39.451
39.8657
40.3088
40.7815
41.2852
41.8209
42.3894
42.9915
43.6275
44.2972
45.0001
45.7352
46.5007
47.2943
48.1129
48.9529
49.8095
50.6779
51.5563
52.3917
53.6171
22.9261
23.1808
23.4388
23.6998
23.9635
24.2296
24.4978
24.7679
25.0396
25.3124
25.5863
25.8608
26.1356
26.4105
26.6851
26.959
27.2318
27.503
27.772
28.0385
28.3017
28.5611
28.8161
29.066
29.3102
29.548
29.7788
30.0021
30.2172
30.4238
30.6213
30.8094
30.9877
31.156
31.3143
31.4623
31.6003
31.7283
31.8466
31.9555
32.0555
32.1471
32.231
32.3078
32.3783
32.4435
32.5043
32.5616
32.6165
32.67
32.7232
32.7772
32.833
32.8916
32.9541
33.0214
33.0943
33.1739
33.2607
33.3556
33.4591
33.5719
33.6944
33.827
33.9703
34.1245
34.2899
34.4671
34.6562
34.8576
35.0718
35.2992
35.5403
35.7958
36.0662
36.3523
36.6551
36.9753
37.3141
37.6726
38.0519
38.4532
38.8778
39.3268
39.8015
40.3028
40.8318
41.3891
41.9751
42.5901
43.2336
43.9049
44.6028
45.3255
46.0705
46.8346
47.6143
48.4089
49.1695
50.3003
21.4201
21.6228
21.8288
22.0381
22.2505
22.4656
22.6833
22.9034
23.1255
23.3496
23.5754
23.8026
24.031
24.2603
24.4904
24.7209
24.9515
25.1819
25.4117
25.6405
25.868
26.0936
26.317
26.5376
26.7551
26.9689
27.1786
27.3837
27.5839
27.7788
27.968
28.1513
28.3283
28.499
28.6631
28.8206
28.9716
29.1161
29.2542
29.3862
29.5125
29.6333
29.7493
29.8608
29.9685
30.0731
30.1752
30.2756
30.3751
30.4744
30.5745
30.676
30.7799
30.8869
30.9977
31.113
31.2335
31.3599
31.4926
31.6322
31.779
31.9334
32.0957
32.2663
32.4452
32.6327
32.829
33.0342
33.2484
33.4719
33.7049
33.9477
34.2005
34.4638
34.738
35.0238
35.3217
35.6324
35.9569
36.296
36.6506
37.0219
37.4108
37.8186
38.2464
38.6952
39.1661
39.6598
40.1773
40.7189
41.285
41.8754
42.4896
43.1268
43.7855
44.4637
45.1588
45.8716
46.5571
47.5882
20.2966
20.4568
20.6205
20.7875
20.9577
21.131
21.3071
21.4859
21.6673
21.851
22.037
22.2249
22.4147
22.6061
22.799
22.9932
23.1884
23.3844
23.5809
23.7777
23.9745
24.171
24.3668
24.5617
24.7553
24.9473
25.1373
25.3252
25.5104
25.6929
25.8723
26.0485
26.2212
26.3903
26.5557
26.7174
26.8754
27.0298
27.1807
27.3281
27.4725
27.6141
27.7532
27.8902
28.0256
28.1599
28.2937
28.4274
28.5617
28.6972
28.8346
28.9743
29.1171
29.2634
29.4139
29.5691
29.7293
29.895
30.0666
30.2444
30.4285
30.6193
30.8167
31.0209
31.232
31.45
31.6748
31.9065
32.1451
32.3906
32.6431
32.9026
33.1694
33.4436
33.7256
34.0157
34.3143
34.622
34.9395
35.2674
35.6065
35.9577
36.3219
36.7002
37.0934
37.5027
37.929
38.3733
38.8364
39.319
39.8217
40.3449
40.8885
41.4523
42.0357
42.6375
43.2561
43.8929
44.5073
45.4407
19.4642
19.5898
19.7189
19.8514
19.9872
20.1261
20.2681
20.4131
20.5609
20.7114
20.8644
21.0199
21.1777
21.3377
21.4998
21.6637
21.8294
21.9967
22.1654
22.3353
22.5062
22.6779
22.8503
23.023
23.1959
23.3688
23.5414
23.7135
23.8849
24.0555
24.2251
24.3935
24.5606
24.7264
24.8908
25.0538
25.2154
25.3757
25.5348
25.6928
25.85
26.0066
26.1628
26.319
26.4756
26.6329
26.7914
26.9514
27.1135
27.2781
27.4457
27.6167
27.7916
27.9708
28.1546
28.3433
28.5374
28.737
28.9423
29.1535
29.3706
29.5936
29.8226
30.0575
30.2982
30.5445
30.7964
31.0537
31.3162
31.5839
31.8566
32.1343
32.4171
32.7049
32.9979
33.2963
33.6004
33.9105
34.2272
34.5508
34.8821
35.2217
35.5704
35.929
36.2984
36.6795
37.0732
37.4805
37.9021
38.3389
38.7916
39.2608
39.7468
40.2499
40.7698
41.3062
41.858
42.4275
42.9776
43.8204
18.8562
18.954
19.0552
19.1598
19.2677
19.3789
19.4932
19.6107
19.7311
19.8545
19.9808
20.1098
20.2415
20.3758
20.5126
20.6518
20.7933
20.937
21.0828
21.2305
21.3801
21.5313
21.6842
21.8384
21.994
22.1507
22.3084
22.4671
22.6265
22.7866
22.9473
23.1086
23.2702
23.4324
23.5949
23.758
23.9215
24.0857
24.2505
24.4162
24.583
24.751
24.9206
25.0919
25.2652
25.441
25.6195
25.8011
25.9861
26.1749
26.3679
26.5653
26.7674
26.9747
27.1872
27.4052
27.6289
27.8584
28.0937
28.3349
28.5818
28.8344
29.0925
29.3559
29.6245
29.8979
30.176
30.4584
30.7448
31.0351
31.329
31.6263
31.9269
32.2308
32.5378
32.8481
33.1617
33.4789
33.8
34.1253
34.4553
34.7904
35.1314
35.4789
35.8336
36.1962
36.5676
36.9487
37.3402
37.743
38.1578
38.5853
39.0261
39.4806
39.949
40.4314
40.9272
41.4392
41.9335
42.6962
18.4232
18.4993
18.5786
18.6612
18.7472
18.8364
18.9289
19.0246
19.1234
19.2254
19.3304
19.4384
19.5494
19.6632
19.78
19.8995
20.0217
20.1467
20.2742
20.4043
20.5368
20.6718
20.8091
20.9486
21.0903
21.2341
21.38
21.5278
21.6776
21.8293
21.9829
22.1383
22.2956
22.4547
22.6158
22.7789
22.944
23.1114
23.281
23.4532
23.6279
23.8056
23.9863
24.1704
24.358
24.5495
24.7452
24.9453
25.1502
25.36
25.5751
25.7957
26.022
26.2542
26.4924
26.7368
26.9874
27.2442
27.5071
27.776
28.0507
28.3311
28.6169
28.9077
29.2033
29.5033
29.8072
30.1148
30.4256
30.7394
31.0556
31.3741
31.6945
32.0167
32.3405
32.6658
32.9927
33.3211
33.6512
33.9833
34.3176
34.6545
34.9945
35.3381
35.6858
36.0384
36.3965
36.7608
37.1322
37.5113
37.899
38.2959
38.7027
39.1201
39.5484
39.9879
40.4387
40.9035
41.3514
42.0464
18.1291
18.189
18.252
18.3183
18.3879
18.4607
18.5368
18.6161
18.6987
18.7845
18.8735
18.9657
19.0611
19.1596
19.2612
19.366
19.4738
19.5847
19.6986
19.8155
19.9353
20.0582
20.1839
20.3125
20.4441
20.5785
20.7157
20.8558
20.9988
21.1446
21.2934
21.4451
21.5997
21.7575
21.9184
22.0825
22.25
22.421
22.5957
22.7742
22.9567
23.1435
23.3347
23.5306
23.7314
23.9375
24.1489
24.3661
24.5891
24.8183
25.0539
25.296
25.5447
25.8002
26.0625
26.3317
26.6076
26.8903
27.1796
27.4752
27.7769
28.0844
28.3973
28.7153
29.0378
29.3645
29.6948
30.0283
30.3645
30.7029
31.043
31.3845
31.7269
32.0699
32.4133
32.7568
33.1004
33.4439
33.7873
34.1308
34.4744
34.8185
35.1634
35.5094
35.8571
36.2069
36.5594
36.9153
37.2752
37.6398
38.0099
38.3861
38.7692
39.1598
39.5585
39.9658
40.382
40.8101
41.2209
41.8618
17.9486
17.9976
18.0498
18.1051
18.1637
18.2255
18.2905
18.3588
18.4305
18.5054
18.5836
18.6652
18.7501
18.8383
18.9298
19.0247
19.123
19.2245
19.3294
19.4377
19.5494
19.6644
19.7828
19.9046
20.0299
20.1587
20.2909
20.4267
20.5661
20.7092
20.856
21.0066
21.1612
21.3198
21.4825
21.6496
21.8211
21.9972
22.1781
22.364
22.5551
22.7517
22.9539
23.162
23.3762
23.5968
23.824
24.058
24.299
24.5473
24.8029
25.066
25.3368
25.6152
25.9012
26.1948
26.496
26.8044
27.12
27.4423
27.7712
28.1061
28.4467
28.7924
29.1428
29.4972
29.8551
30.2159
30.5791
30.944
31.3101
31.6768