/*--------------------------------*- C++ -*----------------------------------*\
| =========                 |                                                 |
| \\      /  F ield         | OpenFOAM: The Open Source CFD Toolbox           |
|  \\    /   O peration     | Version:  4.1                                   |
|   \\  /    A nd           | Web:      www.OpenFOAM.org                      |
|    \\/     M anipulation  |                                                 |
\*---------------------------------------------------------------------------*/
FoamFile
{
    version     2.0;
    format      ascii;
    class       volScalarField;
    location    "700";
    object      p;
}
// * * * * * * * * * * * * * * * * * * * * * * * * * * * * * * * * * * * * * //

dimensions      [0 2 -2 0 0 0 0];

internalField   nonuniform List<scalar> 
6820
(
6.15725
-4.54166
-8.06829
-8.81352
-9.20612
-9.53736
-9.72573
-9.81905
-9.88195
-9.93462
-9.97769
-10.0127
-10.0429
-10.0701
-10.0949
-10.1178
-10.1392
-10.1594
-10.1786
-10.1969
-10.2145
-10.2315
-10.2479
-10.2639
-10.2794
-10.2944
-10.309
-10.3229
-10.336
-10.3483
-10.3585
-10.3684
-10.3647
-15.562
-12.0148
-11.2129
-10.4086
-10.0254
-9.94322
-9.9293
-9.92443
-9.93643
-9.96151
-9.98961
-10.0166
-10.0425
-10.0674
-10.0911
-10.1135
-10.1348
-10.155
-10.1743
-10.1928
-10.2107
-10.2279
-10.2446
-10.2607
-10.2765
-10.2917
-10.3066
-10.3209
-10.3346
-10.3478
-10.3596
-10.372
-10.3774
-13.3715
-9.86358
-9.60149
-9.59124
-9.57856
-9.66909
-9.76227
-9.82451
-9.87513
-9.9223
-9.96377
-9.99921
-10.0304
-10.0586
-10.0844
-10.1081
-10.1303
-10.151
-10.1707
-10.1895
-10.2075
-10.2248
-10.2416
-10.2578
-10.2737
-10.2891
-10.304
-10.3186
-10.3327
-10.3465
-10.3596
-10.3733
-10.3842
-10.9447
-9.47373
-9.6242
-9.73452
-9.71462
-9.76374
-9.82786
-9.87145
-9.90766
-9.9437
-9.97738
-10.0076
-10.0352
-10.0608
-10.0849
-10.1074
-10.1287
-10.1489
-10.1682
-10.1868
-10.2046
-10.2219
-10.2386
-10.255
-10.2709
-10.2864
-10.3016
-10.3165
-10.3312
-10.3456
-10.3599
-10.3748
-10.3891
-10.4923
-9.77779
-9.81644
-9.82734
-9.77783
-9.79973
-9.84622
-9.88245
-9.91482
-9.94799
-9.97977
-10.0089
-10.0358
-10.061
-10.0846
-10.1069
-10.1279
-10.148
-10.1671
-10.1855
-10.2033
-10.2205
-10.2372
-10.2535
-10.2694
-10.285
-10.3003
-10.3155
-10.3305
-10.3455
-10.3605
-10.3763
-10.3926
-10.4117
-9.93195
-9.88391
-9.85791
-9.81405
-9.82734
-9.86383
-9.89586
-9.9258
-9.95645
-9.9861
-10.0137
-10.0394
-10.0636
-10.0864
-10.1081
-10.1286
-10.1482
-10.167
-10.1852
-10.2027
-10.2197
-10.2363
-10.2525
-10.2684
-10.284
-10.2995
-10.3148
-10.3301
-10.3455
-10.3612
-10.3777
-10.3952
-10.2887
-9.96231
-9.90802
-9.88256
-9.84934
-9.85735
-9.88519
-9.91246
-9.93921
-9.96687
-9.99404
-10.0198
-10.0441
-10.0672
-10.0891
-10.11
-10.13
-10.1492
-10.1676
-10.1854
-10.2027
-10.2195
-10.236
-10.2521
-10.2679
-10.2835
-10.299
-10.3144
-10.3299
-10.3456
-10.3617
-10.3786
-10.3967
-10.1797
-9.97427
-9.92957
-9.90733
-9.88144
-9.88569
-9.90663
-9.92946
-9.95307
-9.9779
-10.0027
-10.0266
-10.0495
-10.0715
-10.0925
-10.1127
-10.1321
-10.1507
-10.1688
-10.1862
-10.2032
-10.2198
-10.2361
-10.252
-10.2678
-10.2833
-10.2988
-10.3143
-10.3299
-10.3457
-10.362
-10.3791
-10.3973
-10.1087
-9.98506
-9.94752
-9.92762
-9.90776
-9.91022
-9.92636
-9.94567
-9.96661
-9.98897
-10.0116
-10.0339
-10.0554
-10.0763
-10.0964
-10.1158
-10.1346
-10.1527
-10.1703
-10.1874
-10.2041
-10.2204
-10.2364
-10.2522
-10.2678
-10.2833
-10.2987
-10.3142
-10.3298
-10.3457
-10.362
-10.379
-10.397
-10.0644
-9.99168
-9.96053
-9.9435
-9.92898
-9.93095
-9.94395
-9.96061
-9.97935
-9.99961
-10.0204
-10.0411
-10.0614
-10.0812
-10.1005
-10.1191
-10.1372
-10.1549
-10.172
-10.1887
-10.2051
-10.2212
-10.237
-10.2526
-10.268
-10.2833
-10.2987
-10.314
-10.3296
-10.3454
-10.3616
-10.3783
-10.3959
-10.0367
-9.99503
-9.97034
-9.95647
-9.94631
-9.94839
-9.95935
-9.97404
-9.99099
-10.0095
-10.0287
-10.0481
-10.0672
-10.086
-10.1044
-10.1224
-10.1399
-10.157
-10.1737
-10.1901
-10.2061
-10.2219
-10.2375
-10.2528
-10.2681
-10.2833
-10.2984
-10.3137
-10.3291
-10.3447
-10.3606
-10.377
-10.394
-10.0202
-9.99711
-9.9784
-9.96753
-9.96073
-9.96314
-9.97273
-9.98594
-10.0014
-10.0185
-10.0363
-10.0545
-10.0726
-10.0905
-10.1081
-10.1254
-10.1424
-10.159
-10.1753
-10.1913
-10.207
-10.2225
-10.2378
-10.2529
-10.268
-10.283
-10.2979
-10.313
-10.3281
-10.3435
-10.3591
-10.3751
-10.3914
-10.0113
-9.99908
-9.98545
-9.97724
-9.97297
-9.97576
-9.98441
-9.99644
-10.0107
-10.0265
-10.0432
-10.0602
-10.0774
-10.0945
-10.1115
-10.1281
-10.1446
-10.1607
-10.1766
-10.1922
-10.2076
-10.2228
-10.2378
-10.2527
-10.2675
-10.2823
-10.297
-10.3118
-10.3267
-10.3417
-10.3569
-10.3724
-10.3881
-10.0076
-10.0014
-9.99186
-9.98595
-9.9836
-9.98674
-9.99469
-10.0057
-10.0189
-10.0336
-10.0493
-10.0654
-10.0817
-10.098
-10.1143
-10.1304
-10.1463
-10.162
-10.1775
-10.1928
-10.2078
-10.2227
-10.2375
-10.2521
-10.2667
-10.2811
-10.2956
-10.3101
-10.3246
-10.3393
-10.354
-10.3689
-10.384
-10.0072
-10.0043
-9.9979
-9.9939
-9.99301
-9.99643
-10.0038
-10.0141
-10.0263
-10.04
-10.0547
-10.0699
-10.0854
-10.1011
-10.1167
-10.1323
-10.1477
-10.1629
-10.178
-10.1929
-10.2076
-10.2222
-10.2367
-10.251
-10.2653
-10.2795
-10.2936
-10.3078
-10.322
-10.3362
-10.3505
-10.3648
-10.3791
-10.0089
-10.0078
-10.0037
-10.0013
-10.0015
-10.0051
-10.0121
-10.0216
-10.033
-10.0458
-10.0595
-10.0739
-10.0887
-10.1036
-10.1186
-10.1336
-10.1486
-10.1634
-10.1781
-10.1926
-10.207
-10.2213
-10.2354
-10.2494
-10.2634
-10.2773
-10.2911
-10.3049
-10.3187
-10.3324
-10.3462
-10.3599
-10.3736
-10.0121
-10.0118
-10.0094
-10.0081
-10.0091
-10.0129
-10.0195
-10.0284
-10.039
-10.0509
-10.0638
-10.0774
-10.0914
-10.1057
-10.1201
-10.1346
-10.149
-10.1634
-10.1777
-10.1918
-10.2059
-10.2198
-10.2336
-10.2474
-10.261
-10.2745
-10.288
-10.3014
-10.3147
-10.328
-10.3412
-10.3544
-10.3674
-10.0161
-10.0162
-10.0149
-10.0146
-10.0162
-10.0201
-10.0263
-10.0345
-10.0444
-10.0556
-10.0677
-10.0805
-10.0938
-10.1075
-10.1213
-10.1352
-10.1491
-10.163
-10.1769
-10.1907
-10.2044
-10.2179
-10.2314
-10.2448
-10.258
-10.2712
-10.2843
-10.2973
-10.3102
-10.323
-10.3356
-10.3482
-10.3606
-10.0206
-10.0208
-10.0204
-10.0207
-10.0227
-10.0266
-10.0324
-10.0401
-10.0493
-10.0597
-10.0711
-10.0832
-10.0958
-10.1088
-10.122
-10.1354
-10.1489
-10.1623
-10.1758
-10.1891
-10.2024
-10.2156
-10.2287
-10.2417
-10.2546
-10.2674
-10.2801
-10.2926
-10.3051
-10.3174
-10.3295
-10.3415
-10.3533
-10.0254
-10.0257
-10.0257
-10.0265
-10.0287
-10.0325
-10.038
-10.0452
-10.0537
-10.0634
-10.0741
-10.0855
-10.0975
-10.1098
-10.1225
-10.1353
-10.1483
-10.1613
-10.1743
-10.1872
-10.2001
-10.2129
-10.2257
-10.2383
-10.2508
-10.2632
-10.2754
-10.2875
-10.2995
-10.3113
-10.3229
-10.3343
-10.3455
-10.0304
-10.0306
-10.0309
-10.032
-10.0342
-10.0379
-10.0431
-10.0497
-10.0576
-10.0667
-10.0767
-10.0874
-10.0987
-10.1105
-10.1226
-10.1349
-10.1473
-10.1599
-10.1724
-10.185
-10.1975
-10.2099
-10.2222
-10.2344
-10.2465
-10.2585
-10.2703
-10.282
-10.2935
-10.3047
-10.3158
-10.3267
-10.3374
-10.0354
-10.0356
-10.036
-10.0372
-10.0394
-10.0428
-10.0476
-10.0537
-10.061
-10.0695
-10.0788
-10.0889
-10.0996
-10.1108
-10.1223
-10.1341
-10.1461
-10.1582
-10.1703
-10.1824
-10.1945
-10.2065
-10.2185
-10.2303
-10.242
-10.2535
-10.2649
-10.2761
-10.2871
-10.2979
-10.3084
-10.3188
-10.3289
-10.0404
-10.0405
-10.041
-10.0421
-10.0441
-10.0472
-10.0516
-10.0572
-10.0639
-10.0717
-10.0805
-10.09
-10.1001
-10.1107
-10.1217
-10.133
-10.1445
-10.1561
-10.1678
-10.1796
-10.1912
-10.2029
-10.2144
-10.2258
-10.2371
-10.2482
-10.2591
-10.2698
-10.2804
-10.2907
-10.3008
-10.3106
-10.3201
-10.0454
-10.0455
-10.0459
-10.0468
-10.0485
-10.0512
-10.055
-10.0601
-10.0663
-10.0735
-10.0816
-10.0905
-10.1001
-10.1102
-10.1207
-10.1315
-10.1426
-10.1538
-10.1651
-10.1764
-10.1877
-10.1989
-10.21
-10.221
-10.2319
-10.2426
-10.2531
-10.2634
-10.2734
-10.2833
-10.2928
-10.3021
-10.3111
-10.0504
-10.0505
-10.0507
-10.0512
-10.0525
-10.0547
-10.058
-10.0624
-10.068
-10.0746
-10.0822
-10.0906
-10.0996
-10.1092
-10.1193
-10.1297
-10.1403
-10.1511
-10.162
-10.1729
-10.1838
-10.1946
-10.2054
-10.216
-10.2264
-10.2367
-10.2468
-10.2566
-10.2663
-10.2756
-10.2847
-10.2935
-10.302
-10.0555
-10.0556
-10.0555
-10.0555
-10.0561
-10.0577
-10.0604
-10.0642
-10.0691
-10.0752
-10.0822
-10.09
-10.0986
-10.1078
-10.1174
-10.1274
-10.1376
-10.148
-10.1585
-10.1691
-10.1796
-10.1901
-10.2005
-10.2107
-10.2208
-10.2306
-10.2403
-10.2497
-10.2589
-10.2678
-10.2764
-10.2847
-10.2928
-10.0607
-10.0608
-10.0602
-10.0595
-10.0594
-10.0602
-10.0621
-10.0652
-10.0695
-10.075
-10.0815
-10.0889
-10.097
-10.1057
-10.115
-10.1246
-10.1345
-10.1445
-10.1547
-10.1649
-10.1751
-10.1852
-10.1953
-10.2051
-10.2148
-10.2243
-10.2336
-10.2426
-10.2513
-10.2598
-10.268
-10.2759
-10.2834
-10.0663
-10.0664
-10.0651
-10.0635
-10.0623
-10.0621
-10.0631
-10.0655
-10.0692
-10.074
-10.08
-10.087
-10.0947
-10.1031
-10.112
-10.1213
-10.1308
-10.1406
-10.1505
-10.1604
-10.1703
-10.1801
-10.1898
-10.1993
-10.2086
-10.2178
-10.2267
-10.2353
-10.2436
-10.2517
-10.2595
-10.2669
-10.274
-10.0726
-10.0726
-10.0703
-10.0673
-10.0648
-10.0634
-10.0634
-10.0649
-10.0678
-10.0722
-10.0777
-10.0842
-10.0916
-10.0997
-10.1083
-10.1173
-10.1266
-10.1362
-10.1458
-10.1554
-10.165
-10.1745
-10.1839
-10.1931
-10.2022
-10.211
-10.2195
-10.2278
-10.2357
-10.2434
-10.2508
-10.2578
-10.2645
-10.0799
-10.0798
-10.0761
-10.071
-10.0667
-10.0639
-10.0626
-10.0632
-10.0655
-10.0692
-10.0743
-10.0805
-10.0876
-10.0955
-10.1039
-10.1127
-10.1218
-10.1311
-10.1405
-10.1499
-10.1593
-10.1686
-10.1777
-10.1866
-10.1954
-10.2038
-10.2121
-10.22
-10.2276
-10.235
-10.242
-10.2486
-10.2549
-10.0891
-10.0887
-10.0825
-10.0746
-10.068
-10.0633
-10.0607
-10.0602
-10.0617
-10.065
-10.0698
-10.0757
-10.0826
-10.0903
-10.0986
-10.1072
-10.1162
-10.1254
-10.1346
-10.1438
-10.153
-10.1621
-10.171
-10.1797
-10.1881
-10.1964
-10.2043
-10.2119
-10.2192
-10.2263
-10.2329
-10.2392
-10.2452
-10.1016
-10.1003
-10.0901
-10.0781
-10.0684
-10.0613
-10.0571
-10.0555
-10.0564
-10.0592
-10.0637
-10.0695
-10.0763
-10.0839
-10.0921
-10.1007
-10.1096
-10.1187
-10.1278
-10.1369
-10.146
-10.1549
-10.1636
-10.1721
-10.1804
-10.1883
-10.196
-10.2034
-10.2105
-10.2172
-10.2236
-10.2296
-10.2353
-10.1198
-10.1161
-10.0989
-10.0809
-10.0673
-10.0574
-10.0513
-10.0487
-10.049
-10.0514
-10.0558
-10.0615
-10.0683
-10.076
-10.0842
-10.0928
-10.1018
-10.1108
-10.1199
-10.129
-10.1379
-10.1468
-10.1554
-10.1638
-10.1719
-10.1797
-10.1872
-10.1944
-10.2013
-10.2078
-10.2139
-10.2197
-10.2252
-10.1502
-10.1389
-10.1084
-10.0816
-10.0631
-10.0501
-10.0422
-10.0387
-10.0386
-10.0409
-10.0452
-10.0511
-10.0581
-10.0658
-10.0742
-10.083
-10.092
-10.1012
-10.1104
-10.1195
-10.1285
-10.1373
-10.1459
-10.1542
-10.1623
-10.17
-10.1775
-10.1846
-10.1913
-10.1977
-10.2038
-10.2094
-10.2147
-10.2052
-10.1768
-10.1217
-10.0809
-10.0547
-10.037
-10.0271
-10.0232
-10.0231
-10.0258
-10.0308
-10.0374
-10.045
-10.0535
-10.0624
-10.0717
-10.0812
-10.0906
-10.1001
-10.1094
-10.1186
-10.1275
-10.1361
-10.1445
-10.1526
-10.1603
-10.1677
-10.1747
-10.1813
-10.1876
-10.1935
-10.199
-10.2042
-10.2882
-10.2251
-10.1405
-10.087
-10.0483
-10.0202
-10.0051
-9.99856
-9.99681
-9.99871
-10.0036
-10.0107
-10.0192
-10.0286
-10.0387
-10.0491
-10.0597
-10.0703
-10.0809
-10.0912
-10.1013
-10.1111
-10.1206
-10.1297
-10.1384
-10.1468
-10.1547
-10.1622
-10.1693
-10.176
-10.1822
-10.188
-10.1934
-10.4384
-10.2049
-10.0755
-10.0622
-10.0474
-10.0299
-10.024
-10.0236
-10.0238
-10.0253
-10.0286
-10.0332
-10.0388
-10.0452
-10.0523
-10.06
-10.068
-10.0762
-10.0846
-10.0929
-10.1013
-10.1095
-10.1176
-10.1255
-10.1331
-10.1404
-10.1475
-10.1542
-10.1607
-10.1667
-10.1725
-10.1778
-10.1829
-11.3947
-10.1715
-9.58116
-9.50189
-9.51503
-9.55264
-9.60814
-9.66408
-9.71475
-9.76144
-9.80443
-9.84325
-9.87798
-9.90913
-9.93719
-9.96251
-9.98545
-10.0063
-10.0253
-10.0427
-10.0587
-10.0734
-10.087
-10.0996
-10.1112
-10.1219
-10.1319
-10.1411
-10.1496
-10.1574
-10.1646
-10.1711
-10.177
-15.1638
-12.9609
-11.9298
-11.2934
-10.8663
-10.6155
-10.4536
-10.3305
-10.2382
-10.1739
-10.1303
-10.1008
-10.0814
-10.0697
-10.0637
-10.0618
-10.0629
-10.0662
-10.0711
-10.0771
-10.0838
-10.091
-10.0984
-10.106
-10.1135
-10.1209
-10.1281
-10.1351
-10.1419
-10.1483
-10.1544
-10.1603
-10.1658
-1.25009
-5.34275
-7.46656
-8.23908
-8.67791
-9.04162
-9.30779
-9.48404
-9.60812
-9.704
-9.77952
-9.83849
-9.88523
-9.9234
-9.95533
-9.98247
-10.0059
-10.0263
-10.0444
-10.0607
-10.0754
-10.0887
-10.1009
-10.1122
-10.1225
-10.1321
-10.1409
-10.1491
-10.1566
-10.1635
-10.1699
-10.1757
-10.181
-10.3483
-10.1326
-10.4217
-10.6911
-10.7958
-10.8283
-10.8394
-10.8365
-10.8261
-10.8179
-10.8187
-10.8316
-10.8579
-10.8969
-10.947
-11.0055
-11.0696
-11.1363
-11.2028
-11.2668
-11.326
-11.3788
-11.4239
-11.4604
-11.4875
-11.5049
-11.5125
-11.51
-11.4977
-11.4754
-11.4433
-11.4013
-11.3495
-11.2878
-11.216
-11.1342
-11.042
-10.9393
-10.826
-10.7018
-10.5664
-10.4196
-10.2613
-10.0912
-9.90932
-9.71549
-9.50976
-9.29223
-9.06312
-8.82275
-8.57158
-8.31017
-8.03925
-7.75965
-7.47236
-7.17846
-6.87916
-6.57576
-6.26965
-5.96225
-5.65504
-5.34947
-5.047
-4.74902
-4.45686
-4.17175
-3.89479
-3.62696
-3.3691
-3.1219
-2.88587
-2.66139
-2.44871
-2.24792
-2.05901
-1.88185
-1.7162
-1.56175
-1.41809
-1.28475
-1.16125
-1.04704
-0.941594
-0.844351
-0.75477
-0.672324
-0.596499
-0.526812
-0.46279
-0.404029
-0.350044
-0.300614
-0.254987
-0.213622
-0.174295
-0.140573
-0.103369
-0.0804862
-0.0325167
-0.0412401
-10.3952
-10.3946
-10.5885
-10.7335
-10.7658
-10.7602
-10.7522
-10.7424
-10.7331
-10.731
-10.7403
-10.7621
-10.7962
-10.8413
-10.8956
-10.9567
-11.0221
-11.0893
-11.1558
-11.2194
-11.2782
-11.3306
-11.3753
-11.4114
-11.4383
-11.4556
-11.4631
-11.4606
-11.4483
-11.4261
-11.3941
-11.3523
-11.3006
-11.239
-11.1675
-11.0858
-10.9939
-10.8915
-10.7785
-10.6546
-10.5197
-10.3735
-10.2158
-10.0466
-9.86564
-9.67293
-9.46848
-9.25242
-9.02497
-8.78645
-8.53732
-8.27813
-8.00961
-7.73256
-7.44795
-7.15684
-6.86042
-6.55995
-6.25678
-5.9523
-5.64795
-5.34515
-5.04533
-4.74984
-4.45999
-4.17699
-3.90193
-3.63578
-3.37937
-3.13338
-2.89834
-2.67464
-2.46253
-2.26212
-2.07342
-1.8963
-1.73056
-1.57588
-1.43188
-1.29813
-1.17413
-1.05937
-0.953322
-0.855447
-0.765213
-0.682098
-0.605594
-0.535227
-0.470522
-0.41108
-0.356413
-0.306309
-0.259987
-0.217972
-0.177879
-0.143678
-0.105335
-0.0830312
-0.0317
-0.0470187
-10.408
-10.4228
-10.5099
-10.6112
-10.6683
-10.6972
-10.7162
-10.7262
-10.7293
-10.7322
-10.7403
-10.7566
-10.7825
-10.8186
-10.8642
-10.9178
-10.9773
-11.0401
-11.1036
-11.1653
-11.223
-11.2747
-11.3191
-11.3552
-11.3821
-11.3995
-11.4072
-11.4051
-11.3931
-11.3712
-11.3396
-11.2981
-11.2467
-11.1855
-11.1143
-11.033
-10.9415
-10.8396
-10.727
-10.6038
-10.4695
-10.3241
-10.1673
-9.99908
-9.81929
-9.6279
-9.42495
-9.21057
-8.98498
-8.74852
-8.50162
-8.24485
-7.9789
-7.70457
-7.42281
-7.13465
-6.84124
-6.54382
-6.24371
-5.94225
-5.64086
-5.34092
-5.04383
-4.75092
-4.46346
-4.18264
-3.90955
-3.64514
-3.39023
-3.14551
-2.91151
-2.68863
-2.47712
-2.27712
-2.08864
-1.91157
-1.74573
-1.59082
-1.44648
-1.31228
-1.18776
-1.07241
-0.965733
-0.867189
-0.776259
-0.692431
-0.615206
-0.544112
-0.478679
-0.418511
-0.363116
-0.312293
-0.265235
-0.222525
-0.181639
-0.146898
-0.107434
-0.0855723
-0.0310671
-0.0525473
-10.4119
-10.4366
-10.5046
-10.5983
-10.662
-10.6919
-10.7064
-10.7131
-10.7153
-10.7185
-10.7275
-10.7446
-10.7709
-10.8061
-10.8495
-10.8995
-10.9541
-11.0112
-11.0687
-11.1246
-11.177
-11.2243
-11.2653
-11.2988
-11.3241
-11.3406
-11.3478
-11.3455
-11.3336
-11.312
-11.2806
-11.2395
-11.1886
-11.1279
-11.0572
-10.9764
-10.8854
-10.7841
-10.6722
-10.5497
-10.4162
-10.2718
-10.116
-9.94899
-9.77052
-9.58062
-9.37934
-9.1668
-8.94324
-8.70898
-8.46447
-8.21025
-7.94701
-7.67554
-7.39674
-7.11164
-6.82135
-6.52709
-6.23013
-5.9318
-5.63346
-5.33647
-5.0422
-4.75195
-4.46697
-4.18843
-3.91739
-3.6548
-3.40148
-3.1581
-2.92521
-2.70321
-2.49236
-2.2928
-2.10458
-1.92759
-1.76166
-1.60653
-1.46184
-1.32718
-1.20212
-1.08617
-0.978827
-0.879579
-0.787915
-0.703333
-0.625342
-0.553477
-0.48727
-0.42633
-0.370162
-0.318573
-0.270737
-0.227284
-0.185571
-0.150235
-0.109647
-0.0881241
-0.030562
-0.057841
-10.4161
-10.4473
-10.5036
-10.5761
-10.6291
-10.6574
-10.6745
-10.6867
-10.6957
-10.7047
-10.7174
-10.7362
-10.762
-10.7951
-10.835
-10.8807
-10.9306
-10.983
-11.0358
-11.0873
-11.1357
-11.1794
-11.217
-11.2477
-11.2705
-11.2849
-11.2904
-11.2869
-11.2741
-11.252
-11.2204
-11.1792
-11.1284
-11.0679
-10.9975
-10.9171
-10.8267
-10.7259
-10.6148
-10.493
-10.3604
-10.2169
-10.0624
-9.89658
-9.71953
-9.53122
-9.3317
-9.1211
-8.89966
-8.66771
-8.42567
-8.17411
-7.91367
-7.64513
-7.36939
-7.08744
-6.80037
-6.50935
-6.21564
-5.92053
-5.62534
-5.33141
-5.04007
-4.75259
-4.4702
-4.19405
-3.92518
-3.66452
-3.41289
-3.17095
-2.93926
-2.71821
-2.50809
-2.30905
-2.12113
-1.94426
-1.77828
-1.62294
-1.47791
-1.34281
-1.2172
-1.10062
-0.992595
-0.892614
-0.800184
-0.714813
-0.636017
-0.563338
-0.496313
-0.434556
-0.37757
-0.325169
-0.276511
-0.232268
-0.189695
-0.153707
-0.111995
-0.0906937
-0.0302196
-0.0628547
-10.4191
-10.4515
-10.4986
-10.5562
-10.6036
-10.6343
-10.6551
-10.6707
-10.6828
-10.6942
-10.7083
-10.7272
-10.7519
-10.783
-10.8199
-10.8619
-10.9076
-10.9554
-11.0037
-11.0508
-11.0949
-11.1348
-11.1691
-11.1969
-11.2173
-11.2297
-11.2337
-11.2289
-11.2151
-11.1922
-11.16
-11.1185
-11.0674
-11.0068
-10.9365
-10.8563
-10.7662
-10.6659
-10.5553
-10.4342
-10.3025
-10.1599
-10.0065
-9.84194
-9.66633
-9.47963
-9.2819
-9.07328
-8.85401
-8.62441
-8.38491
-8.13605
-7.87848
-7.61296
-7.34035
-7.06163
-6.77787
-6.4902
-6.19984
-5.90806
-5.61614
-5.3254
-5.03711
-4.75253
-4.47287
-4.19923
-3.93265
-3.67405
-3.42423
-3.18385
-2.95346
-2.73348
-2.52417
-2.32572
-2.13817
-1.96148
-1.7955
-1.63998
-1.49464
-1.3591
-1.23295
-1.11574
-1.00701
-0.906281
-0.813059
-0.726867
-0.647231
-0.5737
-0.505818
-0.443201
-0.385355
-0.332097
-0.282575
-0.237494
-0.194027
-0.157327
-0.114498
-0.0932818
-0.0300811
-0.0675286
-10.4204
-10.4521
-10.493
-10.5409
-10.5832
-10.6138
-10.636
-10.6533
-10.6678
-10.6815
-10.6971
-10.7166
-10.7409
-10.7703
-10.8047
-10.8433
-10.8851
-10.9286
-10.9725
-11.0152
-11.0552
-11.0912
-11.122
-11.1467
-11.1644
-11.1746
-11.1767
-11.1704
-11.1555
-11.1316
-11.0987
-11.0566
-11.0052
-10.9444
-10.8741
-10.794
-10.704
-10.6041
-10.4939
-10.3734
-10.2424
-10.1008
-9.94834
-9.78505
-9.61085
-9.42574
-9.22979
-9.02316
-8.80608
-8.57886
-8.34194
-8.09584
-7.8412
-7.57877
-7.30937
-7.03398
-6.75361
-6.4694
-6.18251
-5.89418
-5.60566
-5.31823
-5.03313
-4.7516
-4.47479
-4.20381
-3.93967
-3.68325
-3.43537
-3.19667
-2.9677
-2.74887
-2.54048
-2.34271
-2.15561
-1.97915
-1.81321
-1.65757
-1.51195
-1.37599
-1.24931
-1.13148
-1.02205
-0.920554
-0.826521
-0.739484
-0.658979
-0.584563
-0.515787
-0.45227
-0.393522
-0.339364
-0.288939
-0.242973
-0.198581
-0.161107
-0.117169
-0.0958868
-0.0301764
-0.071807
-10.4204
-10.4506
-10.4871
-10.5279
-10.5655
-10.5951
-10.618
-10.6368
-10.653
-10.6686
-10.6854
-10.7052
-10.7288
-10.7567
-10.7887
-10.8242
-10.8623
-10.9019
-10.9417
-10.9802
-11.0162
-11.0485
-11.0758
-11.0974
-11.1124
-11.1202
-11.1203
-11.1122
-11.0958
-11.0708
-11.0369
-10.9941
-10.9422
-10.881
-10.8104
-10.7302
-10.6403
-10.5406
-10.4308
-10.3108
-10.1804
-10.0396
-9.88817
-9.72606
-9.55323
-9.3697
-9.17553
-8.97089
-8.756
-8.5312
-8.29689
-8.05359
-7.80194
-7.54265
-7.27655
-7.00456
-6.72769
-6.44703
-6.16371
-5.87895
-5.59395
-5.30995
-5.02817
-4.7498
-4.47598
-4.20778
-3.94618
-3.69208
-3.44624
-3.20933
-2.98189
-2.76433
-2.55694
-2.35992
-2.17335
-1.9972
-1.83137
-1.67564
-1.52977
-1.39343
-1.26624
-1.1478
-1.03767
-0.935402
-0.840546
-0.752646
-0.671247
-0.595918
-0.526215
-0.461764
-0.402077
-0.346978
-0.29561
-0.248714
-0.203366
-0.165053
-0.120022
-0.0985082
-0.0305292
-0.075642
-10.4194
-10.4479
-10.4807
-10.5163
-10.55
-10.5782
-10.6013
-10.6209
-10.6385
-10.6552
-10.6729
-10.6928
-10.7157
-10.7421
-10.7718
-10.8044
-10.8392
-10.8751
-10.9109
-10.9455
-10.9777
-11.0063
-11.0303
-11.0488
-11.061
-11.0664
-11.0643
-11.0545
-11.0365
-11.0101
-10.9752
-10.9315
-10.8788
-10.8171
-10.7461
-10.6657
-10.5757
-10.4761
-10.3665
-10.2469
-10.1171
-9.97706
-9.82656
-9.66558
-9.49407
-9.31207
-9.11966
-8.91699
-8.70431
-8.48191
-8.25023
-8.00977
-7.76114
-7.50504
-7.24228
-6.97376
-6.70046
-6.42342
-6.14376
-5.86264
-5.58125
-5.30077
-5.0224
-4.7473
-4.47656
-4.21124
-3.9523
-3.7006
-3.45691
-3.22188
-2.99605
-2.77983
-2.57353
-2.37735
-2.19137
-2.01558
-1.8499
-1.69415
-1.54807
-1.41137
-1.28369
-1.16465
-1.05383
-0.950793
-0.855108
-0.766331
-0.68402
-0.607754
-0.537096
-0.471678
-0.411018
-0.354941
-0.302593
-0.254723
-0.20839
-0.169174
-0.123066
-0.101146
-0.0311587
-0.0789943
-10.4174
-10.4443
-10.4741
-10.5057
-10.5361
-10.5627
-10.5856
-10.6056
-10.6239
-10.6414
-10.6596
-10.6794
-10.7015
-10.7264
-10.754
-10.7839
-10.8155
-10.8479
-10.8801
-10.9109
-10.9394
-10.9645
-10.9852
-11.0007
-11.0101
-11.013
-11.0088
-10.9971
-10.9775
-10.9497
-10.9136
-10.8689
-10.8155
-10.7531
-10.6817
-10.601
-10.5108
-10.4112
-10.3018
-10.1825
-10.0532
-9.91383
-9.7642
-9.60428
-9.43406
-9.25357
-9.06288
-8.86217
-8.65166
-8.43167
-8.20262
-7.965
-7.7194
-7.46651
-7.20712
-6.94209
-6.67239
-6.39901
-6.12306
-5.84564
-5.5679
-5.29101
-5.01611
-4.74433
-4.47675
-4.21438
-3.95815
-3.70893
-3.46747
-3.23439
-3.01024
-2.79543
-2.59028
-2.39499
-2.20966
-2.03429
-1.86881
-1.71306
-1.56681
-1.42978
-1.30164
-1.18201
-1.0705
-0.966699
-0.87018
-0.780517
-0.69728
-0.620056
-0.548419
-0.482007
-0.420342
-0.363253
-0.309891
-0.261006
-0.213659
-0.173475
-0.126309
-0.103802
-0.0320785
-0.0818334
-10.4146
-10.4398
-10.4671
-10.4956
-10.5232
-10.5484
-10.5707
-10.5907
-10.6093
-10.6272
-10.6455
-10.665
-10.6864
-10.7098
-10.7354
-10.7627
-10.7913
-10.8203
-10.849
-10.8763
-10.9013
-10.9229
-10.9404
-10.9528
-10.9596
-10.96
-10.9536
-10.94
-10.9187
-10.8895
-10.8522
-10.8065
-10.7522
-10.6892
-10.6172
-10.5361
-10.4458
-10.3461
-10.2369
-10.1179
-9.98907
-9.85032
-9.70153
-9.54267
-9.37371
-9.19469
-9.00571
-8.80693
-8.59859
-8.38101
-8.15457
-7.91978
-7.67721
-7.42754
-7.17152
-6.91001
-6.64391
-6.37422
-6.10198
-5.82828
-5.55424
-5.28096
-5.00957
-4.74115
-4.47676
-4.21738
-3.96393
-3.71723
-3.47803
-3.24696
-3.02454
-2.8112
-2.60724
-2.41289
-2.22824
-2.05333
-1.88809
-1.73238
-1.58599
-1.44865
-1.32005
-1.19985
-1.08767
-0.9831
-0.885744
-0.795186
-0.711009
-0.632811
-0.560174
-0.492742
-0.430045
-0.371911
-0.317505
-0.267563
-0.219178
-0.177963
-0.129758
-0.106478
-0.0332964
-0.0841398
-10.411
-10.4347
-10.4599
-10.4858
-10.5111
-10.5348
-10.5563
-10.5761
-10.5947
-10.6127
-10.6309
-10.6499
-10.6703
-10.6923
-10.7159
-10.7407
-10.7665
-10.7924
-10.8177
-10.8416
-10.8631
-10.8815
-10.8958
-10.9053
-10.9094
-10.9073
-10.8988
-10.8832
-10.8602
-10.8296
-10.791
-10.7442
-10.689
-10.6253
-10.5528
-10.4714
-10.3808
-10.2811
-10.1719
-10.0532
-9.92487
-9.78676
-9.63881
-9.48099
-9.31329
-9.13575
-8.94847
-8.75163
-8.54546
-8.33026
-8.10645
-7.87449
-7.63495
-7.38849
-7.13584
-6.87783
-6.61534
-6.34934
-6.08083
-5.81086
-5.54051
-5.27086
-5.003
-4.73797
-4.47679
-4.22043
-3.96977
-3.72563
-3.48873
-3.2597
-3.03905
-2.8272
-2.62447
-2.43109
-2.24717
-2.07274
-1.90776
-1.75211
-1.60559
-1.46797
-1.33893
-1.21817
-1.10531
-0.99998
-0.901784
-0.810324
-0.725195
-0.646007
-0.572351
-0.503875
-0.440121
-0.380913
-0.325433
-0.274398
-0.22495
-0.18264
-0.133416
-0.109176
-0.0348138
-0.0859045
-10.4067
-10.429
-10.4522
-10.476
-10.4994
-10.5216
-10.5423
-10.5616
-10.5799
-10.5977
-10.6155
-10.634
-10.6533
-10.6739
-10.6955
-10.718
-10.741
-10.764
-10.7861
-10.8067
-10.825
-10.8401
-10.8514
-10.858
-10.8594
-10.855
-10.8442
-10.8267
-10.802
-10.7698
-10.7299
-10.6821
-10.626
-10.5615
-10.4885
-10.4067
-10.3159
-10.2161
-10.1071
-9.98865
-9.86077
-9.72331
-9.57621
-9.41944
-9.25301
-9.07695
-8.89139
-8.69649
-8.49248
-8.27969
-8.05849
-7.82936
-7.59285
-7.34959
-7.10031
-6.8458
-6.58693
-6.32461
-6.05982
-5.79358
-5.52692
-5.26091
-4.99657
-4.73493
-4.47698
-4.22365
-3.97581
-3.73424
-3.49967
-3.27269
-3.05383
-2.8435
-2.64203
-2.44964
-2.26646
-2.09254
-1.92785
-1.77227
-1.62565
-1.48774
-1.35828
-1.23696
-1.12343
-1.01733
-0.918291
-0.82592
-0.739829
-0.659635
-0.584941
-0.515401
-0.450565
-0.390256
-0.333675
-0.28151
-0.230977
-0.187511
-0.137286
-0.111898
-0.0366263
-0.0871305
-10.4017
-10.4226
-10.4442
-10.4662
-10.4879
-10.5088
-10.5285
-10.5472
-10.565
-10.5823
-10.5997
-10.6173
-10.6356
-10.6546
-10.6743
-10.6946
-10.715
-10.7351
-10.7542
-10.7717
-10.7869
-10.7989
-10.8072
-10.811
-10.8098
-10.803
-10.79
-10.7705
-10.7441
-10.7104
-10.6692
-10.6203
-10.5633
-10.4981
-10.4244
-10.3422
-10.2513
-10.1514
-10.0424
-9.92433
-9.79692
-9.66012
-9.51389
-9.35819
-9.19303
-9.01847
-8.83463
-8.64168
-8.43986
-8.22946
-8.01089
-7.78458
-7.5511
-7.31105
-7.06514
-6.81412
-6.55884
-6.30019
-6.03912
-5.7766
-5.51363
-5.25124
-4.99043
-4.73218
-4.47746
-4.22716
-3.98214
-3.74316
-3.51092
-3.28601
-3.06896
-2.86017
-2.65997
-2.46858
-2.28617
-2.11277
-1.94837
-1.79289
-1.64616
-1.50798
-1.3781
-1.25622
-1.14202
-1.03515
-0.935261
-0.84197
-0.754903
-0.673688
-0.597938
-0.527314
-0.461374
-0.399937
-0.342228
-0.288901
-0.237259
-0.192578
-0.14137
-0.114651
-0.0387237
-0.0878313
-10.396
-10.4156
-10.4358
-10.4563
-10.4765
-10.496
-10.5148
-10.5326
-10.5498
-10.5666
-10.5832
-10.5999
-10.617
-10.6345
-10.6524
-10.6705
-10.6885
-10.7058
-10.7221
-10.7366
-10.7488
-10.7579
-10.7633
-10.7644
-10.7606
-10.7514
-10.7363
-10.7148
-10.6867
-10.6515
-10.609
-10.5589
-10.501
-10.435
-10.3608
-10.2782
-10.187
-10.0871
-9.97824
-9.86042
-9.73349
-9.59737
-9.45202
-9.29739
-9.13353
-8.96049
-8.77839
-8.5874
-8.38776
-8.17977
-7.96382
-7.74035
-7.50989
-7.27304
-7.03048
-6.78294
-6.53125
-6.27626
-6.01889
-5.76007
-5.50078
-5.242
-4.9847
-4.72983
-4.47833
-4.23107
-3.98886
-3.75247
-3.52256
-3.29973
-3.08449
-2.87724
-2.67832
-2.48796
-2.30631
-2.13344
-1.96935
-1.81396
-1.66714
-1.5287
-1.3984
-1.27596
-1.16108
-1.05344
-0.95269
-0.858468
-0.770412
-0.688161
-0.611338
-0.539608
-0.472542
-0.409953
-0.351093
-0.296569
-0.243797
-0.197843
-0.145665
-0.117438
-0.0410906
-0.0880313
-10.3896
-10.4081
-10.427
-10.446
-10.4649
-10.4832
-10.501
-10.518
-10.5344
-10.5504
-10.5662
-10.582
-10.5978
-10.6138
-10.6299
-10.6459
-10.6615
-10.6763
-10.6898
-10.7015
-10.7107
-10.717
-10.7197
-10.7181
-10.7118
-10.7003
-10.6831
-10.6597
-10.6299
-10.5932
-10.5493
-10.4981
-10.4393
-10.3725
-10.2978
-10.2147
-10.1233
-10.0233
-9.91463
-9.79711
-9.67068
-9.53526
-9.39079
-9.23726
-9.07471
-8.90319
-8.72284
-8.53382
-8.33637
-8.1308
-7.91747
-7.69683
-7.46939
-7.23573
-6.9965
-6.75244
-6.50431
-6.25296
-5.99927
-5.74413
-5.4885
-5.23331
-4.9795
-4.728
-4.4797
-4.23545
-3.99605
-3.76223
-3.53466
-3.3139
-3.10047
-2.89477
-2.69713
-2.50779
-2.32691
-2.15458
-1.9908
-1.83551
-1.6886
-1.54989
-1.41917
-1.29617
-1.18062
-1.07219
-0.970572
-0.875409
-0.786351
-0.703049
-0.625135
-0.55228
-0.484067
-0.420301
-0.360265
-0.304515
-0.25059
-0.203308
-0.150169
-0.120264
-0.0437063
-0.0877635
-10.3825
-10.4
-10.4177
-10.4355
-10.4531
-10.4704
-10.4871
-10.5032
-10.5188
-10.5339
-10.5488
-10.5634
-10.578
-10.5925
-10.6068
-10.6207
-10.6341
-10.6464
-10.6573
-10.6663
-10.6729
-10.6764
-10.6764
-10.6723
-10.6637
-10.6499
-10.6306
-10.6053
-10.5738
-10.5356
-10.4905
-10.4381
-10.3783
-10.3108
-10.2355
-10.1521
-10.0604
-9.96038
-9.85182
-9.73463
-9.6087
-9.47398
-9.33041
-9.178
-9.01677
-8.84679
-8.6682
-8.48115
-8.28591
-8.08275
-7.87204
-7.65422
-7.42978
-7.19929
-6.96339
-6.72277
-6.47819
-6.23045
-5.98041
-5.72893
-5.47691
-5.22528
-4.97494
-4.72678
-4.48166
-4.24041
-4.00379
-3.77254
-3.54728
-3.32859
-3.11696
-2.9128
-2.71643
-2.52811
-2.34801
-2.17621
-2.01274
-1.85755
-1.71054
-1.57156
-1.44042
-1.31686
-1.20062
-1.0914
-0.988902
-0.892785
-0.802712
-0.718343
-0.639321
-0.565323
-0.495942
-0.430976
-0.369742
-0.312735
-0.257635
-0.208973
-0.154877
-0.123137
-0.046546
-0.0870692
-10.375
-10.3914
-10.4081
-10.4247
-10.4412
-10.4573
-10.473
-10.4882
-10.5028
-10.5171
-10.5309
-10.5444
-10.5577
-10.5707
-10.5832
-10.5952
-10.6064
-10.6164
-10.6248
-10.6313
-10.6352
-10.6362
-10.6337
-10.6272
-10.6162
-10.6002
-10.5789
-10.5518
-10.5186
-10.4789
-10.4325
-10.3791
-10.3183
-10.2501
-10.1742
-10.0904
-9.99852
-9.89845
-9.79004
-9.67318
-9.54778
-9.41377
-9.27113
-9.11984
-8.95994
-8.79151
-8.61468
-8.42962
-8.23657
-8.03582
-7.82773
-7.61272
-7.39127
-7.16393
-6.93133
-6.69413
-6.45306
-6.2089
-5.96246
-5.7146
-5.46618
-5.21807
-4.97115
-4.72629
-4.48432
-4.24603
-4.01218
-3.78345
-3.56049
-3.34384
-3.134
-2.93136
-2.73627
-2.54896
-2.36962
-2.19834
-2.03517
-1.88008
-1.73297
-1.59372
-1.46214
-1.33801
-1.22107
-1.11106
-1.00767
-0.910585
-0.819483
-0.734032
-0.653886
-0.578726
-0.508157
-0.441971
-0.379515
-0.321224
-0.264927
-0.214836
-0.159779
-0.126062
-0.0495801
-0.0859944
-10.3669
-10.3824
-10.398
-10.4136
-10.429
-10.4441
-10.4588
-10.473
-10.4867
-10.4999
-10.5127
-10.5251
-10.537
-10.5484
-10.5593
-10.5694
-10.5785
-10.5863
-10.5924
-10.5964
-10.5979
-10.5964
-10.5915
-10.5827
-10.5694
-10.5514
-10.5281
-10.4993
-10.4645
-10.4233
-10.3757
-10.3211
-10.2595
-10.1906
-10.1141
-10.0299
-9.93784
-9.83776
-9.72951
-9.613
-9.48814
-9.35487
-9.21316
-9.06301
-8.90445
-8.73759
-8.56252
-8.37945
-8.1886
-7.99025
-7.78476
-7.57254
-7.35406
-7.12985
-6.90051
-6.66669
-6.4291
-6.18847
-5.94561
-5.70131
-5.45643
-5.2118
-4.96826
-4.72666
-4.48778
-4.25242
-4.02129
-3.79506
-3.57436
-3.35973
-3.15165
-2.95052
-2.75666
-2.57035
-2.39176
-2.22099
-2.05811
-1.9031
-1.75589
-1.61635
-1.48433
-1.35961
-1.24198
-1.13115
-1.02686
-0.928796
-0.83665
-0.750102
-0.668815
-0.592475
-0.520701
-0.453273
-0.389574
-0.329974
-0.272455
-0.220891
-0.164865
-0.129043
-0.0527761
-0.0845897
-10.3584
-10.373
-10.3877
-10.4022
-10.4166
-10.4307
-10.4444
-10.4576
-10.4703
-10.4825
-10.4942
-10.5054
-10.516
-10.5259
-10.5352
-10.5434
-10.5505