/*--------------------------------*- C++ -*----------------------------------*\
| =========                 |                                                 |
| \\      /  F ield         | OpenFOAM: The Open Source CFD Toolbox           |
|  \\    /   O peration     | Version:  4.1                                   |
|   \\  /    A nd           | Web:      www.OpenFOAM.org                      |
|    \\/     M anipulation  |                                                 |
\*---------------------------------------------------------------------------*/
FoamFile
{
    version     2.0;
    format      ascii;
    class       surfaceScalarField;
    location    "700";
    object      phi;
}
// * * * * * * * * * * * * * * * * * * * * * * * * * * * * * * * * * * * * * //

dimensions      [0 3 -1 0 0 0 0];

internalField   nonuniform List<scalar> 
13452
(
6.28704e-05
-2.60189e-06
6.37403e-05
-8.69977e-07
6.46286e-05
-8.88281e-07
6.4105e-05
5.23571e-07
6.28898e-05
1.21529e-06
6.15445e-05
1.34523e-06
6.02725e-05
1.27202e-06
5.91139e-05
1.1586e-06
5.80686e-05
1.04528e-06
5.71283e-05
9.4033e-07
5.62815e-05
8.46822e-07
5.55161e-05
7.65381e-07
5.48213e-05
6.94783e-07
5.41881e-05
6.33238e-07
5.36089e-05
5.79199e-07
5.30774e-05
5.31467e-07
5.25883e-05
4.89081e-07
5.21371e-05
4.51252e-07
5.17198e-05
4.17333e-07
5.1333e-05
3.86802e-07
5.09737e-05
3.59234e-07
5.06394e-05
3.34277e-07
5.03278e-05
3.11646e-07
5.00367e-05
2.9111e-07
4.97642e-05
2.72495e-07
4.95085e-05
2.5568e-07
4.92679e-05
2.40621e-07
4.90406e-05
2.27341e-07
4.88244e-05
2.16121e-07
4.86175e-05
2.06883e-07
4.84163e-05
2.01209e-07
4.82251e-05
1.91205e-07
1.80329e-07
4.80448e-05
6.30682e-05
-3.67971e-06
6.27994e-05
-6.01193e-07
6.21233e-05
-2.12202e-07
6.23359e-05
3.10961e-07
6.27935e-05
7.57661e-07
6.31929e-05
9.45857e-07
6.34611e-05
1.00381e-06
6.36058e-05
1.01394e-06
6.36526e-05
9.98472e-07
6.36273e-05
9.65588e-07
6.35508e-05
9.23362e-07
6.34383e-05
8.77885e-07
6.33008e-05
8.32229e-07
6.31464e-05
7.87685e-07
6.29807e-05
7.44901e-07
6.28079e-05
7.04249e-07
6.26311e-05
6.65884e-07
6.24525e-05
6.29812e-07
6.22739e-05
5.95968e-07
6.20964e-05
5.6426e-07
6.19211e-05
5.34581e-07
6.17485e-05
5.06822e-07
6.15793e-05
4.80883e-07
6.14137e-05
4.56677e-07
6.12521e-05
4.34141e-07
6.10945e-05
4.13236e-07
6.09412e-05
3.93988e-07
6.07921e-05
3.76418e-07
6.06474e-05
3.60825e-07
6.05075e-05
3.46785e-07
6.03726e-05
3.36137e-07
6.02409e-05
3.22874e-07
3.33973e-07
6.00872e-05
6.23306e-05
-2.24887e-06
6.26619e-05
-9.32548e-07
6.281e-05
-3.60282e-07
6.30954e-05
2.55573e-08
6.34245e-05
4.28519e-07
6.37126e-05
6.57851e-07
6.39516e-05
7.64752e-07
6.41451e-05
8.20456e-07
6.42963e-05
8.47223e-07
6.44106e-05
8.51338e-07
6.44939e-05
8.40019e-07
6.45519e-05
8.19875e-07
6.45893e-05
7.94866e-07
6.46099e-05
7.67107e-07
6.46168e-05
7.3796e-07
6.46127e-05
7.0839e-07
6.45995e-05
6.79033e-07
6.45791e-05
6.50283e-07
6.45527e-05
6.22379e-07
6.45214e-05
5.95477e-07
6.44864e-05
5.69667e-07
6.44482e-05
5.45004e-07
6.44075e-05
5.2152e-07
6.4365e-05
4.99239e-07
6.43209e-05
4.78191e-07
6.42757e-05
4.58418e-07
6.42297e-05
4.40007e-07
6.41831e-05
4.23045e-07
6.41361e-05
4.0782e-07
6.40887e-05
3.94218e-07
6.40412e-05
3.83622e-07
6.39898e-05
3.74266e-07
3.79143e-07
6.39446e-05
6.47767e-05
-1.44247e-06
6.47349e-05
-8.90748e-07
6.47849e-05
-4.10326e-07
6.48931e-05
-8.26333e-08
6.50569e-05
2.64675e-07
6.52214e-05
4.93367e-07
6.53726e-05
6.13568e-07
6.55094e-05
6.83638e-07
6.56306e-05
7.26033e-07
6.57357e-05
7.46218e-07
6.58256e-05
7.50128e-07
6.59018e-05
7.43741e-07
6.59658e-05
7.30882e-07
6.60191e-05
7.13737e-07
6.60633e-05
6.93795e-07
6.60995e-05
6.72174e-07
6.61289e-05
6.49664e-07
6.61524e-05
6.26803e-07
6.61708e-05
6.03964e-07
6.61848e-05
5.81415e-07
6.61952e-05
5.59347e-07
6.62023e-05
5.37899e-07
6.62066e-05
5.1718e-07
6.62086e-05
4.97275e-07
6.62085e-05
4.78271e-07
6.62066e-05
4.60257e-07
6.62033e-05
4.43352e-07
6.61987e-05
4.27684e-07
6.6193e-05
4.1351e-07
6.61863e-05
4.00931e-07
6.6179e-05
3.90897e-07
6.617e-05
3.83199e-07
3.83418e-07
6.61658e-05
6.70079e-05
-9.93571e-07
6.68589e-05
-7.41778e-07
6.68314e-05
-3.82858e-07
6.68578e-05
-1.08996e-07
6.69422e-05
1.80308e-07
6.70457e-05
3.89826e-07
6.71479e-05
5.11347e-07
6.7245e-05
5.8655e-07
6.73357e-05
6.35335e-07
6.74189e-05
6.63092e-07
6.7494e-05
6.74981e-07
6.75615e-05
6.7628e-07
6.76218e-05
6.70529e-07
6.76757e-05
6.59856e-07
6.77237e-05
6.45754e-07
6.77666e-05
6.29358e-07
6.78047e-05
6.11498e-07
6.78388e-05
5.92762e-07
6.78691e-05
5.73577e-07
6.78963e-05
5.5426e-07
6.79206e-05
5.3505e-07
6.79424e-05
5.16128e-07
6.79619e-05
4.97638e-07
6.79795e-05
4.79702e-07
6.79953e-05
4.6243e-07
6.80096e-05
4.45935e-07
6.80227e-05
4.30345e-07
6.80345e-05
4.15797e-07
6.80455e-05
4.02505e-07
6.80558e-05
3.90638e-07
6.8066e-05
3.80784e-07
6.80761e-05
3.73046e-07
3.69428e-07
6.80901e-05
6.90833e-05
-6.92868e-07
6.89333e-05
-5.91797e-07
6.88863e-05
-3.35799e-07
6.88865e-05
-1.09221e-07
6.8934e-05
1.32803e-07
6.90039e-05
3.19985e-07
6.90771e-05
4.38107e-07
6.91489e-05
5.14794e-07
6.9218e-05
5.66206e-07
6.92833e-05
5.97742e-07
6.93442e-05
6.14103e-07
6.94005e-05
6.19947e-07
6.94525e-05
6.18528e-07
6.95005e-05
6.11909e-07
6.95447e-05
6.01559e-07
6.95854e-05
5.886e-07
6.96231e-05
5.73863e-07
6.96579e-05
5.57952e-07
6.96902e-05
5.41316e-07
6.97201e-05
5.24294e-07
6.9748e-05
5.07145e-07
6.97741e-05
4.90071e-07
6.97985e-05
4.73235e-07
6.98214e-05
4.56771e-07
6.9843e-05
4.40802e-07
6.98635e-05
4.25443e-07
6.98831e-05
4.10816e-07
6.99018e-05
3.97044e-07
6.992e-05
3.8429e-07
6.9938e-05
3.72692e-07
6.99562e-05
3.62551e-07
6.99754e-05
3.53875e-07
3.47098e-07
6.99977e-05
7.11508e-05
-4.77348e-07
7.10202e-05
-4.6119e-07
7.09675e-05
-2.83098e-07
7.09558e-05
-9.75269e-08
7.09831e-05
1.05545e-07
7.10322e-05
2.70854e-07
7.10875e-05
3.82844e-07
7.11435e-05
4.58764e-07
7.11988e-05
5.10892e-07
7.12522e-05
5.44331e-07
7.13029e-05
5.63383e-07
7.13507e-05
5.72144e-07
7.13957e-05
5.73588e-07
7.14379e-05
5.69701e-07
7.14775e-05
5.61922e-07
7.15148e-05
5.51349e-07
7.15498e-05
5.38804e-07
7.15829e-05
5.24896e-07
7.16141e-05
5.10083e-07
7.16437e-05
4.94715e-07
7.16718e-05
4.79061e-07
7.16985e-05
4.63334e-07
7.17241e-05
4.47704e-07
7.17485e-05
4.32311e-07
7.1772e-05
4.17278e-07
7.17948e-05
4.02714e-07
7.18169e-05
3.88725e-07
7.18385e-05
3.75409e-07
7.18599e-05
3.62872e-07
7.18814e-05
3.51186e-07
7.19035e-05
3.40447e-07
7.19269e-05
3.30527e-07
3.21248e-07
7.19527e-05
7.32508e-05
-3.22847e-07
7.31391e-05
-3.49553e-07
7.30844e-05
-2.28374e-07
7.30656e-05
-7.8712e-08
7.30803e-05
9.08835e-08
7.31156e-05
2.35479e-07
7.31589e-05
3.39599e-07
7.32046e-05
4.13072e-07
7.32508e-05
4.64676e-07
7.32962e-05
4.989e-07
7.334e-05
5.19591e-07
7.33818e-05
5.30322e-07
7.34216e-05
5.33786e-07
7.34595e-05
5.31872e-07
7.34954e-05
5.25977e-07
7.35296e-05
5.17169e-07
7.35621e-05
5.06256e-07
7.35932e-05
4.93846e-07
7.36229e-05
4.804e-07
7.36513e-05
4.66273e-07
7.36786e-05
4.51741e-07
7.37049e-05
4.37021e-07
7.37304e-05
4.22285e-07
7.3755e-05
4.07675e-07
7.3779e-05
3.93306e-07
7.38024e-05
3.7928e-07
7.38254e-05
3.65682e-07
7.38483e-05
3.5258e-07
7.38711e-05
3.40028e-07
7.38943e-05
3.28036e-07
7.39181e-05
3.16567e-07
7.39433e-05
3.05414e-07
2.94207e-07
7.39703e-05
7.5393e-05
-2.13408e-07
7.5299e-05
-2.55559e-07
7.5245e-05
-1.74383e-07
7.52219e-05
-5.55694e-08
7.5228e-05
8.48278e-08
7.52534e-05
2.10029e-07
7.52878e-05
3.05178e-07
7.5326e-05
3.74888e-07
7.53657e-05
4.24994e-07
7.54054e-05
4.59173e-07
7.54443e-05
4.80742e-07
7.54818e-05
4.9278e-07
7.55179e-05
4.97696e-07
7.55525e-05
4.97258e-07
7.55857e-05
4.92803e-07
7.56175e-05
4.85361e-07
7.5648e-05
4.75721e-07
7.56774e-05
4.64484e-07
7.57057e-05
4.52109e-07
7.5733e-05
4.38954e-07
7.57594e-05
4.25297e-07
7.57851e-05
4.11355e-07
7.58101e-05
3.97301e-07
7.58345e-05
3.83273e-07
7.58584e-05
3.69381e-07
7.5882e-05
3.55712e-07
7.59053e-05
3.42333e-07
7.59286e-05
3.29287e-07
7.59521e-05
3.16583e-07
7.59759e-05
3.04186e-07
7.60005e-05
2.9199e-07
7.60262e-05
2.79761e-07
2.6711e-07
7.60533e-05
7.75831e-05
-1.36889e-07
7.75059e-05
-1.78399e-07
7.74552e-05
-1.23672e-07
7.74299e-05
-3.02553e-08
7.74298e-05
8.48969e-08
7.74477e-05
1.92151e-07
7.74752e-05
2.77712e-07
7.75074e-05
3.42644e-07
7.7542e-05
3.90431e-07
7.75773e-05
4.2386e-07
7.76123e-05
4.45678e-07
7.76466e-05
4.58486e-07
7.76799e-05
4.64407e-07
7.77121e-05
4.65066e-07
7.77432e-05
4.61723e-07
7.77732e-05
4.55359e-07
7.78022e-05
4.46737e-07
7.78302e-05
4.36445e-07
7.78574e-05
4.24936e-07
7.78838e-05
4.12567e-07
7.79095e-05
3.99613e-07
7.79345e-05
3.86291e-07
7.79591e-05
3.72772e-07
7.79831e-05
3.59187e-07
7.80069e-05
3.45642e-07
7.80304e-05
3.3221e-07
7.80538e-05
3.18942e-07
7.80772e-05
3.05858e-07
7.81008e-05
2.92942e-07
7.81249e-05
2.80129e-07
7.81496e-05
2.67289e-07
7.81752e-05
2.54195e-07
2.40506e-07
7.82018e-05
7.98256e-05
-8.41705e-08
7.9764e-05
-1.16848e-07
7.97186e-05
-7.82251e-08
7.9693e-05
-4.68443e-09
7.96888e-05
8.91473e-08
7.97008e-05
1.80109e-07
7.97226e-05
2.55899e-07
7.97499e-05
3.15342e-07
7.97802e-05
3.60131e-07
7.98119e-05
3.92197e-07
7.98439e-05
4.1371e-07
7.98755e-05
4.2682e-07
7.99066e-05
4.33358e-07
7.99369e-05
4.34793e-07
7.99663e-05
4.32288e-07
7.99949e-05
4.2677e-07
8.00227e-05
4.18965e-07
8.00497e-05
4.09442e-07
8.00759e-05
3.98644e-07
8.01016e-05
3.8692e-07
8.01267e-05
3.74543e-07
8.01512e-05
3.61726e-07
8.01754e-05
3.48636e-07
8.01992e-05
3.354e-07
8.02227e-05
3.22113e-07
8.02461e-05
3.08841e-07
8.02694e-05
2.95622e-07
8.02928e-05
2.8246e-07
8.03164e-05
2.69325e-07
8.03404e-05
2.5614e-07
8.03649e-05
2.42776e-07
8.039e-05
2.29037e-07
2.14643e-07
8.04159e-05
8.21247e-05
-4.84427e-08
8.2077e-05
-6.91386e-08
8.20381e-05
-3.9282e-08
8.20139e-05
1.94724e-08
8.20072e-05
9.58536e-08
8.20149e-05
1.72411e-07
8.20321e-05
2.38664e-07
8.20553e-05
2.92215e-07
8.20819e-05
3.3349e-07
8.21104e-05
3.63678e-07
8.21397e-05
3.84403e-07
8.21692e-05
3.97393e-07
8.21983e-05
4.04199e-07
8.2227e-05
4.06119e-07
8.22551e-05
4.04212e-07
8.22825e-05
3.99336e-07
8.23093e-05
3.92175e-07
8.23355e-05
3.83272e-07
8.2361e-05
3.73057e-07
8.23861e-05
3.61867e-07
8.24107e-05
3.49968e-07
8.24348e-05
3.37569e-07
8.24586e-05
3.2483e-07
8.24822e-05
3.11873e-07
8.25055e-05
2.98788e-07
8.25287e-05
2.85631e-07
8.25519e-05
2.72432e-07
8.25752e-05
2.59187e-07
8.25986e-05
2.45861e-07
8.26224e-05
2.3238e-07
8.26465e-05
2.18626e-07
8.26711e-05
2.04443e-07
1.89614e-07
8.26962e-05
8.4484e-05
-2.46453e-08
8.4448e-05
-3.31995e-08
8.44161e-05
-7.33011e-09
8.43946e-05
4.09241e-08
8.4387e-05
1.0349e-07
8.43917e-05
1.67693e-07
8.44054e-05
2.25008e-07
8.4425e-05
2.72571e-07
8.44485e-05
3.10005e-07
8.44743e-05
3.3791e-07
8.45012e-05
3.57439e-07
8.45287e-05
3.69939e-07
8.45562e-05
3.76697e-07
8.45835e-05
3.78837e-07
8.46104e-05
3.77305e-07
8.46368e-05
3.72884e-07
8.46628e-05
3.66212e-07
8.46883e-05
3.578e-07
8.47133e-05
3.48056e-07
8.47378e-05
3.37305e-07
8.4762e-05
3.25803e-07
8.47858e-05
3.13752e-07
8.48093e-05
3.01305e-07
8.48326e-05
2.8858e-07
8.48558e-05
2.7566e-07
8.48788e-05
2.62596e-07
8.49018e-05
2.49412e-07
8.49249e-05
2.36104e-07
8.49481e-05
2.22637e-07
8.49716e-05
2.08946e-07
8.49952e-05
1.94936e-07
8.50192e-05
1.80486e-07
1.65437e-07
8.50434e-05
8.69066e-05
-9.08311e-09
8.68803e-05
-6.90759e-09
8.68552e-05
1.77788e-08
8.68373e-05
5.88528e-08
8.683e-05
1.10806e-07
8.68329e-05
1.64727e-07
8.6844e-05
2.13976e-07
8.68608e-05
2.5573e-07
8.68816e-05
2.89189e-07
8.6905e-05
3.14539e-07
8.69299e-05
3.32551e-07
8.69556e-05
3.44249e-07
8.69816e-05
3.50679e-07
8.70076e-05
3.52797e-07
8.70335e-05
3.51437e-07
8.70591e-05
3.47301e-07
8.70843e-05
3.40975e-07
8.71092e-05
3.32933e-07
8.71337e-05
3.23561e-07
8.71578e-05
3.13166e-07
8.71816e-05
3.01992e-07
8.72051e-05
2.90232e-07
8.72284e-05
2.78033e-07
8.72515e-05
2.65507e-07
8.72744e-05
2.5273e-07
8.72973e-05
2.39754e-07
8.73201e-05
2.26598e-07
8.73429e-05
2.1326e-07
8.73658e-05
1.99712e-07
8.73889e-05
1.85902e-07
8.74121e-05
1.71758e-07
8.74354e-05
1.57192e-07
1.42093e-07
8.74587e-05
8.93956e-05
8.83609e-10
8.93769e-05
1.17316e-08
8.93581e-05
3.66432e-08
8.9344e-05
7.29128e-08
8.93379e-05
1.16892e-07
8.93402e-05
1.62476e-07
8.93495e-05
2.04685e-07
8.93642e-05
2.41027e-07
8.93828e-05
2.70556e-07
8.94041e-05
2.93211e-07
8.94272e-05
3.09481e-07
8.94513e-05
3.20131e-07
8.9476e-05
3.25996e-07
8.95009e-05
3.27882e-07
8.95258e-05
3.26508e-07
8.95506e-05
3.22502e-07
8.95752e-05
3.16391e-07
8.95996e-05
3.08611e-07
8.96236e-05
2.99519e-07
8.96474e-05
2.89406e-07
8.96708e-05
2.78501e-07
8.96941e-05
2.66985e-07
8.97171e-05
2.55e-07
8.974e-05
2.4265e-07
8.97627e-05
2.30009e-07
8.97853e-05
2.17125e-07
8.98079e-05
2.04021e-07
8.98305e-05
1.90696e-07
8.98531e-05
1.77131e-07
8.98757e-05
1.63289e-07
8.98983e-05
1.49121e-07
8.99209e-05
1.34566e-07
1.19551e-07
8.99435e-05
9.19536e-05
7.10092e-09
9.19409e-05
2.44732e-08
9.19274e-05
5.01168e-08
9.19172e-05
8.31546e-08
9.19129e-05
1.21202e-07
9.19152e-05
1.60147e-07
9.19235e-05
1.96372e-07
9.19367e-05
2.27833e-07
9.19536e-05
2.53624e-07
9.19733e-05
2.73567e-07
9.19948e-05
2.87967e-07
9.20175e-05
2.9739e-07
9.2041e-05
3.02505e-07
9.20649e-05
3.0398e-07
9.2089e-05
3.02435e-07
9.21131e-05
2.98419e-07
9.21371e-05
2.92404e-07
9.21609e-05
2.84787e-07
9.21845e-05
2.75896e-07
9.22079e-05
2.65999e-07
9.22311e-05
2.55311e-07
9.22541e-05
2.44002e-07
9.22769e-05
2.32204e-07
9.22995e-05
2.20017e-07
9.2322e-05
2.07512e-07
9.23444e-05
1.94736e-07
9.23667e-05
1.81712e-07
9.2389e-05
1.68446e-07
9.24112e-05
1.54929e-07
9.24333e-05
1.41137e-07
9.24554e-05
1.2704e-07
9.24774e-05
1.12601e-07
9.77746e-08
9.24992e-05
9.45834e-05
1.08369e-08
9.45751e-05
3.27875e-08
9.45661e-05
5.9148e-08
9.45593e-05
8.99124e-08
9.4557e-05
1.23517e-07
9.45599e-05
1.57216e-07
9.45679e-05
1.8844e-07
9.45801e-05
2.15607e-07
9.45958e-05
2.37947e-07
9.46141e-05
2.55261e-07
9.46343e-05
2.67747e-07
9.46559e-05
2.75835e-07
9.46783e-05
2.80063e-07
9.47013e-05
2.80987e-07
9.47246e-05
2.79137e-07
9.4748e-05
2.74991e-07
9.47714e-05
2.6897e-07
9.47948e-05
2.61429e-07
9.4818e-05
2.52668e-07
9.48411e-05
2.4293e-07
9.4864e-05
2.32415e-07
9.48867e-05
2.21282e-07
9.49093e-05
2.09653e-07
9.49317e-05
1.97624e-07
9.49539e-05
1.85261e-07
9.4976e-05
1.72611e-07
9.49981e-05
1.59701e-07
9.502e-05
1.46543e-07
9.50417e-05
1.33134e-07
9.50634e-05
1.19466e-07
9.50849e-05
1.05523e-07
9.51063e-05
9.1287e-08
7.67323e-08
9.51273e-05
9.72874e-05
1.29507e-08
9.72823e-05
3.78613e-08
9.72768e-05
6.46682e-08
9.7273e-05
9.36913e-08
9.72727e-05
1.23885e-07
9.72765e-05
1.53413e-07
9.72844e-05
1.80484e-07
9.72961e-05
2.03927e-07
9.73109e-05
2.23146e-07
9.73282e-05
2.37978e-07
9.73474e-05
2.48574e-07
9.73679e-05
2.55277e-07
9.73895e-05
2.5853e-07
9.74116e-05
2.58798e-07
9.74342e-05
2.56538e-07
9.74571e-05
2.52165e-07
9.748e-05
2.46051e-07
9.75029e-05
2.38512e-07
9.75258e-05
2.29817e-07
9.75485e-05
2.20191e-07
9.75711e-05
2.09813e-07
9.75935e-05
1.98832e-07
9.76158e-05
1.87361e-07
9.7638e-05
1.75488e-07
9.766e-05
1.63279e-07
9.76818e-05
1.50779e-07
9.77035e-05
1.38019e-07
9.7725e-05
1.25014e-07
9.77464e-05
1.11772e-07
9.77675e-05
9.82933e-08
9.77885e-05
8.45748e-08
9.78092e-05
7.06125e-08
5.63958e-08
9.78295e-05
0.000100068
1.40191e-08
0.000100065
4.06285e-08
0.000100062
6.75284e-08
0.000100061
9.5074e-08
0.000100062
1.22541e-07
0.000100067
1.48688e-07
0.000100075
1.7229e-07
0.000100087
1.92513e-07
0.000100101
2.08938e-07
0.000100117
2.21466e-07
0.000100136
2.30239e-07
0.000100155
2.35551e-07
0.000100176
2.37778e-07
0.000100198
2.3732e-07
0.00010022
2.34571e-07
0.000100242
2.29893e-07
0.000100264
2.23614e-07
0.000100287
2.16015e-07
0.000100309
2.07337e-07
0.000100332
1.97781e-07
0.000100354
1.87513e-07
0.000100376
1.76665e-07
0.000100398
1.65344e-07
0.00010042
1.53633e-07
0.000100442
1.41592e-07
0.000100463
1.29268e-07
0.000100485
1.16692e-07
0.000100506
1.03885e-07
0.000100527
9.08621e-08
0.000100547
7.76302e-08
0.000100568
6.41969e-08
0.000100588
5.05672e-08
3.67418e-08
0.000100607
0.000102928
1.44294e-08
0.000102926
4.18132e-08
0.000102926
6.84735e-08
0.000102926
9.46578e-08
0.000102929
1.19837e-07
0.000102934
1.43165e-07
0.000102943
1.63817e-07
0.000102954
1.81235e-07
0.000102968
1.95155e-07
0.000102984
2.05554e-07
0.000103001
2.12589e-07
0.00010302
2.1653e-07
0.00010304
2.1771e-07
0.000103061
2.16479e-07
0.000103083
2.13183e-07
0.000103104
2.0814e-07
0.000103126
2.01639e-07
0.000103148
1.93929e-07
0.000103171
1.85225e-07
0.000103193
1.75708e-07
0.000103215
1.65525e-07
0.000103236
1.54799e-07
0.000103258
1.43625e-07
0.00010328
1.32081e-07
0.000103301
1.20226e-07
0.000103322
1.08102e-07
0.000103343
9.57452e-08
0.000103364
8.31784e-08
0.000103384
7.04204e-08
0.000103404
5.7486e-08
0.000103424
4.43886e-08
0.000103444
3.11405e-08
1.77493e-08
0.000103463
0.000105869
1.44447e-08
0.000105869
4.19775e-08
0.000105869
6.81435e-08
0.000105871
9.302e-08
0.000105874
1.16194e-07
0.00010588
1.3709e-07
0.000105889
1.55171e-07
0.0001059
1.70097e-07
0.000105913
1.81746e-07
0.000105929
1.90168e-07
0.000105946
1.95546e-07
0.000105964
1.98144e-07
0.000105984
1.98268e-07
0.000106004
1.96233e-07
0.000106025
1.92346e-07
0.000106046
1.8689e-07
0.000106068
1.8012e-07
0.000106089
1.72257e-07
0.000106111
1.63492e-07
0.000106133
1.53985e-07
0.000106154
1.43869e-07
0.000106176
1.33254e-07
0.000106197
1.22227e-07
0.000106218
1.10859e-07
0.00010624
9.92044e-08
0.00010626
8.73069e-08
0.000106281
7.51995e-08
0.000106301
6.29094e-08
0.000106321
5.04577e-08
0.000106341
3.78642e-08
0.00010636
2.51458e-08
0.000106379
1.232e-08
-6.02379e-10
0.000106397
0.000108894
1.42504e-08
0.000108894
4.15666e-08
0.000108895
6.70917e-08
0.000108897
9.07082e-08
0.000108901
1.12072e-07
0.000108908
1.30798e-07
0.000108916
1.46571e-07
0.000108927
1.59231e-07
0.00010894
1.68776e-07
0.000108955
1.75333e-07
0.000108971
1.79114e-07
0.000108989
1.80389e-07
0.000109008
1.79448e-07
0.000109028
1.7658e-07
0.000109048
1.72064e-07
0.000109069
1.66152e-07
0.00010909
1.59071e-07
0.000109111
1.51016e-07
0.000109132
1.42157e-07
0.000109154
1.32635e-07
0.000109175
1.22569e-07
0.000109196
1.12055e-07
0.000109217
1.01174e-07
0.000109238
8.99884e-08
0.000109259
7.85498e-08
0.000109279
6.68989e-08
0.000109299
5.50691e-08
0.000109319
4.30874e-08
0.000109339
3.09778e-08
0.000109358
1.87612e-08
0.000109376
6.45815e-09
0.000109395
-5.91258e-09
-1.83374e-08
0.000109412
0.000112005
1.39861e-08
0.000112005
4.09517e-08
0.000112007
6.5815e-08
0.000112009
8.8251e-08
0.000112013
1.07957e-07
0.000112019
1.24696e-07
0.000112028
1.38336e-07
0.000112038
1.48873e-07
0.00011205
1.56419e-07
0.000112064
1.61172e-07
0.00011208
1.63385e-07
0.000112097
1.63335e-07
0.000112115
1.61305e-07
0.000112134
1.57569e-07
0.000112154
1.5238e-07
0.000112174
1.45965e-07
0.000112195
1.38527e-07
0.000112216
1.3024e-07
0.000112236
1.21251e-07
0.000112257
1.11686e-07
0.000112278
1.01649e-07
0.000112299
9.12257e-08
0.00011232
8.04858e-08
0.00011234
6.94866e-08
0.000112361
5.82745e-08
0.000112381
4.68875e-08
0.0001124
3.53572e-08
0.00011242
2.37106e-08
0.000112439
1.19716e-08
0.000112457
1.62299e-10
0.000112475
-1.16963e-08
0.000112493
-2.35847e-08
-3.54887e-08
0.00011251
0.000115205
1.377e-08
0.000115205
4.04718e-08
0.000115206
6.47925e-08
0.000115208
8.61855e-08
0.000115212
1.04376e-07
0.000115217
1.19262e-07
0.000115225
1.30875e-07
0.000115234
1.39361e-07
0.000115246
1.44948e-07
0.000115259
1.47908e-07
0.000115274
1.48535e-07
0.00011529
1.47124e-07
0.000115307
1.43956e-07
0.000115326
1.39294e-07
0.000115345
1.3337e-07
0.000115364
1.26394e-07
0.000115384
1.18543e-07
0.000115404
1.09972e-07
0.000115425
1.00811e-07
0.000115445
9.11682e-08
0.000115466
8.11335e-08
0.000115486
7.07814e-08
0.000115507
6.01728e-08
0.000115527
4.93576e-08
0.000115547
3.83767e-08
0.000115566
2.72645e-08
0.000115586
1.60499e-08
0.000115605
4.75841e-09
0.000115623
-6.58727e-09
0.000115641
-1.79655e-08
0.000115659
-2.93562e-08
0.000115676
-4.07403e-08
-5.21048e-08
0.000115693
0.000118496
1.37191e-08
0.000118496
4.04773e-08
0.000118496
6.45362e-08
0.000118497
8.51021e-08
0.0001185
1.0193e-07
0.000118504
1.15061e-07
0.00011851
1.24696e-07
0.000118518
1.31139e-07
0.000118529
1.34738e-07
0.000118541
1.35851e-07
0.000118554
1.3482e-07
0.000118569
1.31964e-07
0.000118586
1.27569e-07
0.000118603
1.21888e-07
0.000118621
1.15142e-07
0.00011864
1.07519e-07
0.00011866
9.91797e-08
0.000118679
9.02581e-08
0.000118699
8.08664e-08
0.000118719
7.10972e-08
0.00011874
6.10271e-08
0.00011876
5.07183e-08
0.00011878
4.02222e-08
0.000118799
2.95805e-08
0.000118819
1.88285e-08
0.000118838
7.99505e-09
0.000118857
-2.89402e-09
0.000118876
-1.38169e-08
0.000118894
-2.47523e-08
0.000118912
-3.56815e-08
0.000118929
-4.65855e-08
0.000118945
-5.74478e-08
-6.82565e-08
0.000118962
0.000121881
1.39711e-08
0.00012188
4.1385e-08
0.000121879
6.56594e-08
0.000121878
8.57115e-08
0.000121879
1.01351e-07
0.000121881
1.12793e-07
0.000121886
1.20434e-07
0.000121892
1.24761e-07
0.0001219
1.26263e-07
0.000121911
1.25396e-07
0.000121923
1.22563e-07
0.000121937
1.18113e-07
0.000121952
1.12343e-07
0.000121969
1.05505e-07
0.000121986
9.78052e-08
0.000122004
8.94174e-08
0.000122023
8.04832e-08
0.000122042
7.11186e-08
0.000122061
6.14178e-08
0.000122081
5.14575e-08
0.000122101
4.12995e-08
0.00012212
3.09939e-08
0.00012214
2.05809e-08
0.000122159
1.0094e-08
0.000122179
-4.39744e-10
0.000122198
-1.09968e-08
0.000122216
-2.15572e-08
0.000122235
-3.21026e-08
0.000122253
-4.26163e-08
0.00012227
-5.30818e-08
0.000122287
-6.34842e-08
0.000122303
-7.38089e-08
-8.40474e-08
0.000122319
0.000125363
1.47134e-08
0.00012536
4.37566e-08
0.000125357
6.89757e-08
0.000125354
8.89423e-08
0.000125352
1.03581e-07
0.000125351
1.13347e-07
0.000125353
1.18889e-07
0.000125356
1.20919e-07
0.000125363
1.20102e-07
0.000125371
1.17013e-07
0.000125381
1.12132e-07
0.000125394
1.05849e-07
0.000125408
9.84809e-08
0.000125423
9.02777e-08
0.000125439
8.14388e-08
0.000125456
7.21214e-08
0.000125474
6.24492e-08
0.000125493
5.25187e-08
0.000125512
4.24059e-08
0.000125531
3.21696e-08
0.000125551
2.18559e-08
0.00012557
1.15006e-08
0.00012559
1.13213e-09
0.000125609
-9.22713e-09
0.000125628
-1.95588e-08
0.000125647
-2.98473e-08
0.000125666
-4.00792e-08
0.000125684
-5.02421e-08
0.000125701
-6.0324e-08
0.000125719
-7.03134e-08
0.000125735
-8.01991e-08
0.000125751
-8.99708e-08
-9.96232e-08
0.000125767
0.000128944
1.62328e-08
0.000128939
4.84249e-08
0.000128932
7.56526e-08
0.000128925
9.60863e-08
0.000128919
1.09894e-07
0.000128914
1.17889e-07
0.000128912
1.2107e-07
0.000128913
1.20449e-07
0.000128916
1.16918e-07
0.000128922
1.11206e-07
0.00012893
1.03889e-07
0.00012894
9.54139e-08
0.000128953
8.61196e-08
0.000128967
7.62614e-08
0.000128982
6.60294e-08
0.000128999
5.5564e-08
0.000129016
4.49684e-08
0.000129034
3.43174e-08
0.000129053
2.36652e-08
0.000129072
1.30502e-08
0.000129091
2.50006e-09
0.000129111
-7.96639e-09
0.00012913
-1.83353e-08
0.00012915
-2.85974e-08
0.000129169
-3.87453e-08
0.000129188
-4.87736e-08
0.000129206
-5.86769e-08
0.000129225
-6.84504e-08
0.000129242
-7.80887e-08
0.00012926
-8.75863e-08
0.000129276
-9.69373e-08
0.000129293
-1.06136e-07
-1.15182e-07
0.000129308
0.000132626
1.90071e-08
0.000132618
5.67138e-08
0.000132606
8.74581e-08
0.000132593
1.09013e-07
0.000132581
1.22053e-07
0.000132571
1.27956e-07
0.000132564
1.2823e-07
0.00013256
1.24316e-07
0.00013256
1.17409e-07
0.000132562
1.08438e-07
0.000132568
9.81006e-08
0.000132577
8.69116e-08
0.000132587
7.5238e-08
0.0001326
6.33369e-08
0.000132615
5.13845e-08
0.000132631
3.9499e-08
0.000132648
2.77564e-08
0.000132666
1.62041e-08
0.000132685
4.8683e-09
0.000132705
-6.23728e-09
0.000132724
-1.71092e-08
0.000132744
-2.77483e-08
0.000132764
-3.81602e-08
0.000132783
-4.83508e-08
0.000132803
-5.83276e-08
0.000132822
-6.80965e-08
0.000132841
-7.76635e-08
0.00013286
-8.70327e-08
0.000132878
-9.62075e-08
0.000132896
-1.05189e-07
0.000132913
-1.13979e-07
0.000132929
-1.22576e-07
-1.30986e-07
0.000132945
0.000136413
2.38913e-08
0.000136399
7.08356e-08
0.00013638
1.0716e-07
0.000136358
1.30478e-07
0.000136338
1.42497e-07
0.00013632
1.45516e-07
0.000136307
1.41833e-07
0.000136297
1.33511e-07
0.000136293
1.22162e-07
0.000136292
1.08967e-07
0.000136295
9.477e-08
0.000136302
8.01554e-08
0.000136312
6.55108e-08
0.000136324
5.10825e-08
0.000136338
3.7019e-08
0.000136355
2.34017e-08
0.000136372
1.02676e-08
0.000136391
-2.37544e-09
0.00013641
-1.45372e-08
0.00013643
-2.62382e-08
0.00013645
-3.75042e-08
0.000136471
-4.83633e-08
0.000136492
-5.88435e-08
0.000136512
-6.89714e-08
0.000136533
-7.8771e-08
0.000136553
-8.82643e-08
0.000136573
-9.74695e-08
0.000136592
-1.06403e-07
0.000136611
-1.15077e-07
0.000136629
-1.23502e-07
0.000136647
-1.31688e-07
0.000136664
-1.3964e-07
-1.4737e-07
0.00013668
0.000140307
3.25043e-08
0.000140283
9.46252e-08
0.000140251
1.39164e-07
0.000140217
1.64526e-07
0.000140185
1.74504e-07
0.000140158
1.72931e-07
0.000140136
1.63363e-07
0.000140121
1.48791e-07
0.000140112
1.31371e-07
0.000140108
1.12573e-07
0.00014011
9.33863e-08
0.000140115
7.44429e-08
0.000140125
5.61182e-08
0.000140137
3.86136e-08
0.000140152
2.20202e-08
0.000140169
6.35693e-09
0.000140188
-8.39914e-09
0.000140208
-2.22968e-08
0.000140229
-3.53957e-08
0.00014025
-4.77614e-08
0.000140272
-5.9458e-08
0.000140294
-7.05473e-08
0.000140317
-8.10854e-08
0.000140339
-9.11241e-08
0.000140361
-1.00708e-07
0.000140382
-1.09877e-07
0.000140404
-1.18666e-07
0.000140424
-1.27103e-07
0.000140444
-1.35212e-07
0.000140464
-1.43016e-07
0.000140483
-1.50531e-07
0.000140501
-1.57772e-07
-1.64755e-07
0.000140518
0.000144309
4.8096e-08
0.000144269
1.34891e-07
0.000144217
1.90469e-07
0.000144165
2.16925e-07
0.000144117
2.22171e-07
0.000144078
2.12611e-07
0.000144047
1.93838e-07
0.000144026
1.7016e-07
0.000144013
1.44352e-07
0.000144007
1.18136e-07
0.000144008
9.25774e-08
0.000144014
6.82773e-08
0.000144025
4.55213e-08
0.000144039
2.44027e-08
0.000144056
4.90293e-09
0.000144076
-1.30592e-08
0.000144097
-2.95982e-08
0.000144119
-4.48407e-08
0.000144143
-5.89152e-08
0.000144167
-7.19436e-08
0.000144192
-8.40395e-08
0.000144216
-9.53048e-08
0.000144241
-1.05831e-07
0.000144266
-1.15698e-07
0.00014429
-1.24976e-07
0.000144314
-1.33724e-07
0.000144337
-1.41996e-07
0.00014436
-1.49835e-07
0.000144382
-1.57279e-07
0.000144403
-1.64359e-07
0.000144424
-1.71104e-07
0.000144444
-1.77535e-07
-1.83676e-07
0.000144463
0.000148418
7.76026e-08
0.000148349
2.03843e-07
0.000148268
2.71872e-07
0.00014819
2.95302e-07
0.000148122
2.89842e-07
0.000148069
2.66092e-07
0.00014803
2.32828e-07
0.000148004
1.96007e-07
0.000147989
1.58854e-07
0.000147984
1.23105e-07
0.000147987
8.97039e-08
0.000147996
5.90545e-08
0.000148011
3.12186e-08
0.000148029
6.08134e-09
0.00014805
-1.6555e-08
0.000148074
-3.69233e-08
0.0001481
-5.52641e-08
0.000148127
-7.18092e-08
0.000148155
-8.67729e-08
0.000148183
-1.00348e-07
0.000148212
-1.12706e-07
0.000148241
-1.23998e-07
0.000148269
-1.34353e-07
0.000148297
-1.43885e-07
0.000148325
-1.52691e-07
0.000148352
-1.60855e-07
0.000148379
-1.68447e-07
0.000148404
-1.75528e-07
0.000148429
-1.82149e-07
0.000148453
-1.88355e-07
0.000148476
-1.94182e-07
0.000148498
-1.99662e-07
-2.04827e-07
0.000148519
0.000152631
1.36099e-07
0.000152511
3.23603e-07
0.000152383
3.99258e-07
0.00015227
4.08288e-07
0.00015218
3.80318e-07
0.000152114
3.32113e-07
0.00015207
2.76861e-07
0.000152044
2.21932e-07
0.000152033
1.70216e-07
0.000152033
1.22881e-07
0.000152042
8.0392e-08
0.000152059
4.26894e-08
0.00015208
9.42543e-09
0.000152106
-1.98462e-08
0.000152135
-4.55814e-08
0.000152167
-6.82171e-08
0.0001522
-8.81559e-08
0.000152233
-1.05759e-07
0.000152268
-1.21342e-07
0.000152303
-1.35181e-07
0.000152338
-1.47513e-07
0.000152372
-1.58542e-07
0.000152406
-1.68441e-07
0.00015244
-1.7736e-07
0.000152473
-1.85423e-07
0.000152504
-1.92738e-07
0.000152535
-1.99397e-07
0.000152565
-2.05477e-07
0.000152594
-2.11042e-07
0.000152622
-2.1615e-07
0.000152649
-2.20846e-07
0.000152674
-2.25172e-07
-2.29165e-07
0.000152698
0.000156933
2.54133e-07
0.000156722
5.3491e-07
0.000156526
5.95148e-07
0.000156371
5.63223e-07
0.00015626
4.9138e-07
0.000156189
4.03424e-07
0.000156149
3.17065e-07
0.000156132
2.39083e-07
0.000156132
1.70105e-07
0.000156145
1.09779e-07
0.000156168
5.76179e-08
0.000156197
1.27788e-08
0.000156233
-2.57092e-08
0.000156272
-5.87444e-08
0.000156313
-8.71108e-08
0.000156356
-1.11491e-07
0.000156401
-1.32479e-07
0.000156445
-1.50583e-07
0.00015649
-1.66235e-07
0.000156535
-1.79799e-07
0.000156579
-1.91583e-07
0.000156622
-2.01846e-07
0.000156665
-2.10808e-07
0.000156706
-2.18652e-07
0.000156746
-2.25535e-07
0.000156785
-2.31586e-07
0.000156822
-2.36917e-07
0.000156859
-2.41621e-07
0.000156893
-2.45777e-07
0.000156927
-2.49451e-07
0.000156959
-2.52702e-07
0.000156989
-2.55576e-07
-2.58123e-07
0.000157018
0.00016129
5.02255e-07
0.000160918
9.06972e-07
0.00016063
8.83621e-07
0.000160432
7.60805e-07
0.000160312
6.11127e-07
0.000160253
4.62984e-07
0.000160234
3.36372e-07
0.000160241
2.31809e-07
0.000160267
1.44183e-07
0.000160306
7.05694e-08
0.000160354
9.16419e-09
0.000160409
-4.1968e-08
0.000160468
-8.46318e-08
0.00016053
-1.20287e-07
0.000160593
-1.50097e-07
0.000160656
-1.7503e-07
0.00016072
-1.95896e-07
0.000160782
-2.13368e-07
0.000160844
-2.28001e-07
0.000160905
-2.40256e-07
0.000160964
-2.50512e-07
0.000161021
-2.59087e-07
0.000161076
-2.66242e-07
0.00016113
-2.72197e-07
0.000161181
-2.77133e-07
0.000161231
-2.81203e-07
0.000161279
-2.84532e-07
0.000161324
-2.87226e-07
0.000161368
-2.89375e-07
0.000161409
-2.91052e-07
0.000161449
-2.92319e-07
0.000161487
-2.93224e-07
-2.93819e-07
0.000161522
0.000165509
1.14675e-06
0.000164895
1.52075e-06
0.000164546
1.23314e-06
0.000164348
9.58446e-07
0.000164265
6.94173e-07
0.000164259
4.69504e-07
0.000164294
3.00632e-07
0.000164355
1.71002e-07
0.000164433
6.6389e-08
0.000164522
-1.8636e-08
0.000164618
-8.7163e-08
0.000164719
-1.4232e-07
0.000164821
-1.86816e-07
0.000164923
-2.22697e-07
0.000165025
-2.51542e-07
0.000165124
-2.74642e-07
0.000165222
-2.93063e-07
0.000165316
-3.07669e-07
0.000165407
-3.19156e-07
0.000165495
-3.28087e-07
0.000165579
-3.3492e-07
0.00016566
-3.40028e-07
0.000165738
-3.43716e-07
0.000165812
-3.46231e-07
0.000165882
-3.47777e-07
0.00016595
-3.48522e-07
0.000166014