/*--------------------------------*- C++ -*----------------------------------*\
| =========                 |                                                 |
| \\      /  F ield         | OpenFOAM: The Open Source CFD Toolbox           |
|  \\    /   O peration     | Version:  4.1                                   |
|   \\  /    A nd           | Web:      www.OpenFOAM.org                      |
|    \\/     M anipulation  |                                                 |
\*---------------------------------------------------------------------------*/
FoamFile
{
    version     2.0;
    format      ascii;
    class       volVectorField;
    location    "700";
    object      U;
}
// * * * * * * * * * * * * * * * * * * * * * * * * * * * * * * * * * * * * * //

dimensions      [0 1 -1 0 0 0 0];

internalField   nonuniform List<vector> 
6820
(
(7.12051 -2.89958 0)
(7.72183 -2.2784 0)
(7.93531 -1.28315 0)
(7.87961 -0.658565 0)
(7.73232 -0.320701 0)
(7.56973 -0.148361 0)
(7.41011 -0.061684 0)
(7.26102 -0.0176568 0)
(7.12627 0.0048136 0)
(7.00567 0.0160264 0)
(6.89736 0.0212391 0)
(6.79957 0.0232366 0)
(6.71095 0.0235136 0)
(6.63035 0.022881 0)
(6.55676 0.0217883 0)
(6.48933 0.0204895 0)
(6.42736 0.0191277 0)
(6.37025 0.0177822 0)
(6.31749 0.0164952 0)
(6.26864 0.0152876 0)
(6.22331 0.0141681 0)
(6.18117 0.0131383 0)
(6.14192 0.0121967 0)
(6.10528 0.0113398 0)
(6.07102 0.0105645 0)
(6.03891 0.00986883 0)
(6.00872 0.00925417 0)
(5.98024 0.00872402 0)
(5.95326 0.00830377 0)
(5.92735 0.00798421 0)
(5.90259 0.00793473 0)
(5.87647 0.00802938 0)
(5.85618 0.00700532 0)
(7.59884 0.654127 0)
(7.43304 0.77761 0)
(7.36112 0.527756 0)
(7.34933 0.342769 0)
(7.39535 0.234375 0)
(7.45299 0.166654 0)
(7.49513 0.123346 0)
(7.51885 0.0959959 0)
(7.52909 0.0783847 0)
(7.52978 0.0664995 0)
(7.52338 0.0581226 0)
(7.51187 0.0520221 0)
(7.49681 0.047435 0)
(7.47935 0.0438626 0)
(7.46029 0.040984 0)
(7.44017 0.0385946 0)
(7.41941 0.0365606 0)
(7.39833 0.0347913 0)
(7.37716 0.0332247 0)
(7.35606 0.0318178 0)
(7.33516 0.0305406 0)
(7.31456 0.0293719 0)
(7.29432 0.0282969 0)
(7.2745 0.0273057 0)
(7.25512 0.0263931 0)
(7.23622 0.025558 0)
(7.2178 0.0248056 0)
(7.19986 0.0241468 0)
(7.18245 0.0236177 0)
(7.16543 0.0232309 0)
(7.14921 0.0232323 0)
(7.13281 0.0232632 0)
(7.12001 0.0260326 0)
(7.25567 -0.0497306 0)
(7.16457 -0.0746216 0)
(7.20132 -0.0871775 0)
(7.24037 -0.0571868 0)
(7.27477 -0.021643 0)
(7.31088 0.00195974 0)
(7.34256 0.0166248 0)
(7.36741 0.0264414 0)
(7.38683 0.0329445 0)
(7.40193 0.0369144 0)
(7.41321 0.0391185 0)
(7.42121 0.0401879 0)
(7.42656 0.0405296 0)
(7.4298 0.0403912 0)
(7.4313 0.0399373 0)
(7.4314 0.0392834 0)
(7.43036 0.0385079 0)
(7.42838 0.0376625 0)
(7.42565 0.0367822 0)
(7.4223 0.0358907 0)
(7.41846 0.0350048 0)
(7.41423 0.0341359 0)
(7.40967 0.033293 0)
(7.40487 0.0324831 0)
(7.39987 0.0317135 0)
(7.39471 0.0309925 0)
(7.38944 0.0303329 0)
(7.38408 0.0297495 0)
(7.37867 0.0292818 0)
(7.37318 0.0289448 0)
(7.36777 0.0289232 0)
(7.3622 0.0290631 0)
(7.35755 0.0305125 0)
(7.29108 -0.0915081 0)
(7.22275 -0.0639329 0)
(7.23474 -0.0294729 0)
(7.25082 -0.00392895 0)
(7.2644 0.0156014 0)
(7.28272 0.0269929 0)
(7.30139 0.0329072 0)
(7.31764 0.036362 0)
(7.33189 0.0384838 0)
(7.34452 0.0396058 0)
(7.35544 0.0400335 0)
(7.36469 0.040043 0)
(7.37247 0.0397982 0)
(7.37899 0.0393839 0)
(7.38442 0.0388549 0)
(7.38888 0.0382523 0)
(7.39252 0.0376049 0)
(7.39545 0.0369317 0)
(7.39777 0.036246 0)
(7.39956 0.0355576 0)
(7.40091 0.0348743 0)
(7.40187 0.0342021 0)
(7.40249 0.0335468 0)
(7.40283 0.032914 0)
(7.40292 0.0323106 0)
(7.40279 0.0317455 0)
(7.40249 0.0312319 0)
(7.40202 0.0307866 0)
(7.40143 0.0304436 0)
(7.40073 0.0302281 0)
(7.40002 0.0302542 0)
(7.39928 0.0304622 0)
(7.39896 0.0313383 0)
(7.31214 -0.0522565 0)
(7.26645 -0.0334735 0)
(7.26326 -0.0148421 0)
(7.26622 -0.00264943 0)
(7.27139 0.0101303 0)
(7.28196 0.0195668 0)
(7.29393 0.0252597 0)
(7.3049 0.0290476 0)
(7.31503 0.0317854 0)
(7.32448 0.0336494 0)
(7.33312 0.0348212 0)
(7.34087 0.0355142 0)
(7.34779 0.0358742 0)
(7.35399 0.0359869 0)
(7.35951 0.0359135 0)
(7.36443 0.0357031 0)
(7.36882 0.0353929 0)
(7.37273 0.0350099 0)
(7.37622 0.0345747 0)
(7.37934 0.0341033 0)
(7.38212 0.0336083 0)
(7.38461 0.0331004 0)
(7.38685 0.0325887 0)
(7.38886 0.0320821 0)
(7.39066 0.0315899 0)
(7.39229 0.0311227 0)
(7.39377 0.0306943 0)
(7.39511 0.0303216 0)
(7.39636 0.0300317 0)
(7.39753 0.0298482 0)
(7.39871 0.0298335 0)
(7.39994 0.0299671 0)
(7.40146 0.0304235 0)
(7.32016 -0.0320514 0)
(7.28758 -0.0252462 0)
(7.28068 -0.0140965 0)
(7.27975 -0.00455711 0)
(7.28192 0.00650168 0)
(7.28854 0.0153382 0)
(7.29664 0.0211174 0)
(7.30441 0.0251347 0)
(7.31183 0.0281 0)
(7.31895 0.0301953 0)
(7.32565 0.0315983 0)
(7.33185 0.0325096 0)
(7.33756 0.0330708 0)
(7.34284 0.033369 0)
(7.3477 0.0334673 0)
(7.35218 0.0334153 0)
(7.35631 0.0332507 0)
(7.36013 0.0330015 0)
(7.36367 0.0326889 0)
(7.36695 0.0323295 0)
(7.37 0.0319369 0)
(7.37284 0.0315222 0)
(7.3755 0.0310952 0)
(7.378 0.030665 0)
(7.38035 0.030241 0)
(7.38257 0.0298335 0)
(7.38468 0.0294548 0)
(7.3867 0.0291193 0)
(7.38866 0.0288463 0)
(7.3906 0.0286527 0)
(7.39257 0.0285685 0)
(7.39463 0.0285806 0)
(7.39692 0.0287347 0)
(7.32441 -0.0221713 0)
(7.30054 -0.0208447 0)
(7.2931 -0.0128344 0)
(7.29071 -0.0045347 0)
(7.29137 0.00495643 0)
(7.29565 0.0128539 0)
(7.3014 0.0183649 0)
(7.30722 0.0223264 0)
(7.31294 0.025286 0)
(7.31854 0.0274284 0)
(7.32392 0.0289212 0)
(7.32898 0.0299397 0)
(7.33374 0.0306115 0)
(7.33822 0.0310196 0)
(7.34242 0.0312247 0)
(7.34636 0.0312741 0)
(7.35007 0.0312044 0)
(7.35357 0.031043 0)
(7.35686 0.0308109 0)
(7.35998 0.030525 0)
(7.36294 0.0301988 0)
(7.36575 0.0298435 0)
(7.36843 0.0294691 0)
(7.371 0.0290846 0)
(7.37346 0.0286989 0)
(7.37583 0.0283213 0)
(7.37813 0.027962 0)
(7.38038 0.0276318 0)
(7.38261 0.027343 0)
(7.38484 0.0271049 0)
(7.38712 0.026927 0)
(7.38951 0.0267931 0)
(7.39209 0.0266943 0)
(7.32735 -0.0153979 0)
(7.30976 -0.0162703 0)
(7.30244 -0.0106189 0)
(7.29932 -0.00378605 0)
(7.29908 0.00416022 0)
(7.30187 0.0110831 0)
(7.30609 0.0162181 0)
(7.31062 0.0200405 0)
(7.31523 0.0229412 0)
(7.31983 0.025087 0)
(7.32431 0.0266272 0)
(7.32859 0.0277119 0)
(7.33267 0.0284549 0)
(7.33654 0.0289345 0)
(7.34022 0.029209 0)
(7.34372 0.0293241 0)
(7.34705 0.0293152 0)
(7.35022 0.0292094 0)
(7.35325 0.0290275 0)
(7.35615 0.0287864 0)
(7.35894 0.0284997 0)
(7.36161 0.0281784 0)
(7.36419 0.0278325 0)
(7.36669 0.0274704 0)
(7.36911 0.0271003 0)
(7.37148 0.0267301 0)
(7.3738 0.0263676 0)
(7.3761 0.02602 0)
(7.37839 0.0256939 0)
(7.38071 0.0253915 0)
(7.38309 0.0251103 0)
(7.38557 0.0248305 0)
(7.38821 0.0245235 0)
(7.32939 -0.0103228 0)
(7.31652 -0.0120773 0)
(7.30969 -0.00829703 0)
(7.30624 -0.00285104 0)
(7.30542 0.00374896 0)
(7.30719 0.00977407 0)
(7.31032 0.0144944 0)
(7.31393 0.0181303 0)
(7.31774 0.0209384 0)
(7.32163 0.0230561 0)
(7.32546 0.0246115 0)
(7.32918 0.0257323 0)
(7.33276 0.0265188 0)
(7.33619 0.0270443 0)
(7.33948 0.0273643 0)
(7.34263 0.0275228 0)
(7.34566 0.0275538 0)
(7.34856 0.0274839 0)
(7.35136 0.0273338 0)
(7.35406 0.02712 0)
(7.35667 0.0268561 0)
(7.35919 0.0265531 0)
(7.36165 0.0262202 0)
(7.36405 0.0258655 0)
(7.36639 0.0254962 0)
(7.3687 0.0251186 0)
(7.37098 0.0247382 0)
(7.37325 0.0243592 0)
(7.37553 0.0239834 0)
(7.37784 0.0236082 0)
(7.38022 0.0232245 0)
(7.38268 0.0228109 0)
(7.38526 0.0223344 0)
(7.33074 -0.00670189 0)
(7.32148 -0.00859941 0)
(7.31542 -0.00610242 0)
(7.31195 -0.00180838 0)
(7.31077 0.00363756 0)
(7.31179 0.00883639 0)
(7.31411 0.0131143 0)
(7.31701 0.0165198 0)
(7.3202 0.0192009 0)
(7.32353 0.0212602 0)
(7.32687 0.0228028 0)
(7.33016 0.023935 0)
(7.33335 0.0247441 0)
(7.33644 0.0252971 0)
(7.33943 0.0256462 0)
(7.34231 0.0258329 0)
(7.3451 0.02589 0)
(7.34779 0.0258432 0)
(7.35039 0.0257129 0)
(7.35292 0.0255152 0)
(7.35537 0.0252633 0)
(7.35777 0.0249679 0)
(7.36011 0.0246379 0)
(7.3624 0.0242807 0)
(7.36466 0.0239023 0)
(7.36689 0.0235076 0)
(7.36911 0.0231003 0)
(7.37132 0.0226819 0)
(7.37356 0.022251 0)
(7.37582 0.0218018 0)
(7.37814 0.0213225 0)
(7.38053 0.0207921 0)
(7.383 0.0201795 0)
(7.33161 -0.00420192 0)
(7.32508 -0.00581 0)
(7.31996 -0.00409996 0)
(7.31671 -0.000715581 0)
(7.31534 0.00374835 0)
(7.31583 0.00819174 0)
(7.31752 0.0120147 0)
(7.31985 0.0151558 0)
(7.32254 0.0176796 0)
(7.32541 0.0196535 0)
(7.32835 0.0211586 0)
(7.33128 0.0222808 0)
(7.33416 0.0230947 0)
(7.33698 0.0236602 0)
(7.33972 0.0240252 0)
(7.34239 0.0242286 0)
(7.34497 0.0243015 0)
(7.34749 0.0242684 0)
(7.34993 0.0241491 0)
(7.35231 0.0239593 0)
(7.35464 0.0237118 0)
(7.35692 0.0234168 0)
(7.35915 0.0230827 0)
(7.36135 0.022716 0)
(7.36352 0.022322 0)
(7.36568 0.0219043 0)
(7.36782 0.0214649 0)
(7.36997 0.0210035 0)
(7.37214 0.0205167 0)
(7.37433 0.0199972 0)
(7.37657 0.0194324 0)
(7.37886 0.0188032 0)
(7.38121 0.0180829 0)
(7.33217 -0.0025002 0)
(7.32765 -0.00362224 0)
(7.32352 -0.00234596 0)
(7.32064 0.000351998 0)
(7.31925 0.00400201 0)
(7.31938 0.0077705 0)
(7.3206 0.0111441 0)
(7.32246 0.0139999 0)
(7.32473 0.0163427 0)
(7.32722 0.0182078 0)
(7.32982 0.0196533 0)
(7.33245 0.0207465 0)
(7.33507 0.0215491 0)
(7.33765 0.0221134 0)
(7.34019 0.0224828 0)
(7.34266 0.0226929 0)
(7.34508 0.0227727 0)
(7.34745 0.0227456 0)
(7.34976 0.0226305 0)
(7.35201 0.0224423 0)
(7.35423 0.0221933 0)
(7.3564 0.0218933 0)
(7.35854 0.0215499 0)
(7.36066 0.0211691 0)
(7.36275 0.0207554 0)
(7.36483 0.0203112 0)
(7.3669 0.0198374 0)
(7.36898 0.0193324 0)
(7.37107 0.0187919 0)
(7.37318 0.0182082 0)
(7.37533 0.0175692 0)
(7.37751 0.0168584 0)
(7.37974 0.016054 0)
(7.33251 -0.00135793 0)
(7.32945 -0.0019522 0)
(7.32626 -0.000877379 0)
(7.32385 0.00132816 0)
(7.32255 0.00432665 0)
(7.32248 0.00750983 0)
(7.32335 0.010457 0)
(7.32485 0.0130201 0)
(7.32676 0.0151655 0)
(7.32892 0.016903 0)
(7.33123 0.01827 0)
(7.3336 0.0193168 0)
(7.33599 0.0200933 0)
(7.33837 0.0206439 0)
(7.34073 0.0210069 0)
(7.34304 0.0212146 0)
(7.34532 0.0212936 0)
(7.34755 0.0212657 0)
(7.34974 0.0211486 0)
(7.35189 0.0209568 0)
(7.354 0.0207016 0)
(7.35608 0.0203923 0)
(7.35814 0.020036 0)
(7.36017 0.019638 0)
(7.36219 0.0192019 0)
(7.36419 0.0187295 0)
(7.36619 0.0182209 0)
(7.3682 0.0176739 0)
(7.37021 0.0170837 0)
(7.37224 0.0164429 0)
(7.37429 0.015741 0)
(7.37637 0.0149642 0)
(7.37846 0.0140951 0)
(7.33272 -0.000604509 0)
(7.33069 -0.000714312 0)
(7.32832 0.000299071 0)
(7.3264 0.0021672 0)
(7.3253 0.00466114 0)
(7.32514 0.00735204 0)
(7.32578 0.00990937 0)
(7.327 0.0121852 0)
(7.32862 0.0141256 0)
(7.33051 0.015722 0)
(7.33256 0.0169951 0)
(7.33471 0.0179807 0)
(7.3369 0.0187176 0)
(7.3391 0.0192428 0)
(7.34129 0.0195895 0)
(7.34346 0.0197863 0)
(7.34561 0.0198572 0)
(7.34772 0.0198223 0)
(7.3498 0.0196981 0)
(7.35185 0.019498 0)
(7.35388 0.0192327 0)
(7.35587 0.0189107 0)
(7.35785 0.0185387 0)
(7.3598 0.0181212 0)
(7.36174 0.0176614 0)
(7.36368 0.0171605 0)
(7.36561 0.016618 0)
(7.36754 0.0160316 0)
(7.36947 0.0153967 0)
(7.37141 0.0147066 0)
(7.37337 0.0139523 0)
(7.37534 0.0131228 0)
(7.37731 0.0122049 0)
(7.33284 -0.000117328 0)
(7.33153 0.000175677 0)
(7.32984 0.00120087 0)
(7.3284 0.00284499 0)
(7.32753 0.00495823 0)
(7.32738 0.00724638 0)
(7.32788 0.00945927 0)
(7.3289 0.0114641 0)
(7.33029 0.0132001 0)
(7.33195 0.014648 0)
(7.33379 0.015816 0)
(7.33574 0.0167282 0)
(7.33774 0.0174141 0)
(7.33978 0.0179036 0)
(7.34183 0.0182249 0)
(7.34387 0.0184029 0)
(7.3459 0.018459 0)
(7.34791 0.0184114 0)
(7.34989 0.0182751 0)
(7.35185 0.0180626 0)
(7.35379 0.0177838 0)
(7.35571 0.0174465 0)
(7.35761 0.0170567 0)
(7.35949 0.0166184 0)
(7.36136 0.0161344 0)
(7.36322 0.0156055 0)
(7.36508 0.015031 0)
(7.36693 0.0144087 0)
(7.36879 0.0137343 0)
(7.37065 0.0130023 0)
(7.37251 0.0122052 0)
(7.37437 0.0113347 0)
(7.37622 0.0103805 0)
(7.33292 0.000190419 0)
(7.33209 0.000794356 0)
(7.33093 0.0018601 0)
(7.32991 0.0033564 0)
(7.32929 0.00518647 0)
(7.32921 0.0071519 0)
(7.32965 0.00906888 0)
(7.33053 0.0108264 0)
(7.33175 0.012366 0)
(7.33323 0.0136638 0)
(7.33489 0.0147201 0)
(7.33666 0.01555 0)
(7.33851 0.0161755 0)
(7.34041 0.0166205 0)
(7.34232 0.0169083 0)
(7.34425 0.0170604 0)
(7.34616 0.0170955 0)
(7.34807 0.01703 0)
(7.34996 0.0168774 0)
(7.35184 0.0166489 0)
(7.3537 0.0163537 0)
(7.35554 0.0159988 0)
(7.35737 0.0155896 0)
(7.35918 0.0151299 0)
(7.36098 0.0146218 0)
(7.36277 0.0140661 0)
(7.36456 0.0134621 0)
(7.36634 0.0128076 0)
(7.36811 0.0120992 0)
(7.36988 0.0113323 0)
(7.37165 0.010501 0)
(7.37341 0.00959908 0)
(7.37516 0.00861901 0)
(7.33296 0.000378837 0)
(7.33245 0.00120713 0)
(7.33171 0.00231553 0)
(7.33104 0.00371087 0)
(7.33065 0.00532986 0)
(7.33067 0.00703938 0)
(7.3311 0.00870707 0)
(7.33189 0.0102446 0)
(7.33299 0.011601 0)
(7.33432 0.0127522 0)
(7.33583 0.0136942 0)
(7.33746 0.0144363 0)
(7.33917 0.0149945 0)
(7.34094 0.0153878 0)
(7.34273 0.0156353 0)
(7.34455 0.0157553 0)
(7.34637 0.0157641 0)
(7.34818 0.015676 0)
(7.34999 0.0155032 0)
(7.35179 0.0152556 0)
(7.35357 0.0149415 0)
(7.35534 0.0145674 0)
(7.35709 0.0141379 0)
(7.35884 0.0136565 0)
(7.36057 0.013125 0)
(7.36229 0.0125442 0)
(7.36401 0.0119133 0)
(7.36571 0.0112307 0)
(7.36741 0.0104935 0)
(7.3691 0.0096981 0)
(7.37077 0.00884022 0)
(7.37244 0.00791508 0)
(7.37408 0.00691741 0)
(7.33298 0.000488833 0)
(7.33269 0.00146752 0)
(7.33224 0.00260698 0)
(7.33185 0.00392733 0)
(7.33167 0.00538554 0)
(7.33179 0.00689154 0)
(7.33223 0.00835104 0)
(7.33298 0.00969625 0)
(7.33399 0.0108853 0)
(7.33521 0.0118969 0)
(7.3366 0.0127257 0)
(7.3381 0.0133773 0)
(7.33969 0.0138638 0)
(7.34135 0.0142 0)
(7.34304 0.0144019 0)
(7.34475 0.0144847 0)
(7.34648 0.0144626 0)
(7.34821 0.0143479 0)
(7.34994 0.0141514 0)
(7.35166 0.0138821 0)
(7.35337 0.0135472 0)
(7.35507 0.0131525 0)
(7.35675 0.0127022 0)
(7.35843 0.0121993 0)
(7.36009 0.0116455 0)
(7.36175 0.0110414 0)
(7.36339 0.0103867 0)
(7.36502 0.00967989 0)
(7.36664 0.00891889 0)
(7.36824 0.00810097 0)
(7.36983 0.00722302 0)
(7.37141 0.00628166 0)
(7.37295 0.00527321 0)
(7.33299 0.000547934 0)
(7.33284 0.00161801 0)
(7.33261 0.00277181 0)
(7.33242 0.00402966 0)
(7.3324 0.00536045 0)
(7.33261 0.00670189 0)
(7.33309 0.00798696 0)
(7.33381 0.00916485 0)
(7.33476 0.0102029 0)
(7.33589 0.0110839 0)
(7.33717 0.011803 0)
(7.33858 0.012364 0)
(7.34006 0.0127762 0)
(7.34162 0.0130519 0)
(7.34321 0.013204 0)
(7.34484 0.0132456 0)
(7.34648 0.0131888 0)
(7.34812 0.0130443 0)
(7.34977 0.0128215 0)
(7.35142 0.0125282 0)
(7.35306 0.012171 0)
(7.35469 0.0117548 0)
(7.35631 0.0112835 0)
(7.35792 0.0107597 0)
(7.35952 0.0101849 0)
(7.3611 0.00955987 0)
(7.36267 0.00888426 0)
(7.36423 0.00815713 0)
(7.36577 0.00737696 0)
(7.3673 0.00654182 0)
(7.36881 0.00564954 0)
(7.37029 0.00469787 0)
(7.37175 0.00368431 0)
(7.333 0.000574582 0)
(7.33294 0.00169166 0)
(7.33284 0.00284314 0)
(7.3328 0.00404337 0)
(7.3329 0.00526801 0)
(7.33318 0.00647263 0)
(7.33368 0.00760941 0)
(7.33439 0.00864103 0)
(7.33528 0.00954317 0)
(7.33635 0.010303 0)
(7.33755 0.010917 0)
(7.33886 0.0113887 0)
(7.34026 0.0117259 0)
(7.34172 0.0119388 0)
(7.34323 0.0120384 0)
(7.34477 0.0120358 0)
(7.34633 0.0119413 0)
(7.3479 0.0117644 0)
(7.34948 0.011513 0)
(7.35105 0.0111942 0)
(7.35262 0.0108135 0)
(7.35419 0.0103753 0)
(7.35574 0.00988316 0)
(7.35729 0.00933925 0)
(7.35882 0.00874507 0)
(7.36033 0.00810126 0)
(7.36183 0.00740777 0)
(7.36332 0.006664 0)
(7.36479 0.00586895 0)
(7.36624 0.00502134 0)
(7.36766 0.00411979 0)
(7.36906 0.00316285 0)
(7.37043 0.00214893 0)
(7.333 0.000581201 0)
(7.33299 0.00171405 0)
(7.33299 0.00284953 0)
(7.33304 0.00399357 0)
(7.33321 0.00512544 0)
(7.33354 0.0062124 0)
(7.33405 0.0072202 0)
(7.33473 0.00812209 0)
(7.33559 0.00890085 0)
(7.33659 0.00954793 0)
(7.33772 0.0100619 0)
(7.33895 0.0104464 0)
(7.34026 0.0107087 0)
(7.34164 0.0108576 0)
(7.34307 0.0109028 0)
(7.34453 0.0108537 0)
(7.34601 0.0107194 0)
(7.34751 0.0105079 0)
(7.34902 0.0102263 0)
(7.35052 0.00988059 0)
(7.35203 0.00947563 0)
(7.35353 0.00901534 0)
(7.35501 0.00850264 0)
(7.35649 0.00793963 0)
(7.35796 0.00732763 0)
(7.35941 0.00666732 0)
(7.36084 0.00595882 0)
(7.36226 0.00520185 0)
(7.36365 0.00439581 0)
(7.36502 0.00353998 0)
(7.36637 0.00263354 0)
(7.36769 0.00167568 0)
(7.36898 0.000665459 0)
(7.333 0.000576356 0)
(7.33302 0.00170512 0)
(7.33306 0.00281545 0)
(7.33316 0.00390407 0)
(7.33337 0.004952 0)
(7.33372 0.00593442 0)
(7.33422 0.006827 0)
(7.33487 0.00761137 0)
(7.33568 0.00827643 0)
(7.33662 0.00881765 0)
(7.33767 0.00923572 0)
(7.33883 0.00953517 0)
(7.34006 0.00972291 0)
(7.34136 0.00980712 0)
(7.34271 0.00979639 0)
(7.3441 0.00969911 0)
(7.3455 0.00952312 0)
(7.34693 0.00927544 0)
(7.34837 0.00896219 0)
(7.34981 0.00858856 0)
(7.35124 0.00815879 0)
(7.35268 0.00767624 0)
(7.3541 0.0071435 0)
(7.35551 0.00656241 0)
(7.35691 0.00593418 0)
(7.3583 0.00525952 0)
(7.35966 0.00453867 0)
(7.36101 0.00377161 0)
(7.36234 0.00295808 0)
(7.36364 0.00209775 0)
(7.36491 0.00119025 0)
(7.36616 0.000235222 0)
(7.36737 -0.000767841 0)
(7.333 0.000566257 0)
(7.33303 0.001681 0)
(7.33309 0.00276228 0)
(7.3332 0.00379745 0)
(7.33341 0.00476814 0)
(7.33373 0.00565525 0)
(7.3342 0.00644217 0)
(7.33481 0.00711753 0)
(7.33556 0.00767567 0)
(7.33643 0.00811581 0)
(7.33741 0.0084409 0)
(7.33849 0.00865653 0)
(7.33964 0.00876979 0)
(7.34086 0.00878848 0)
(7.34213 0.00872049 0)
(7.34344 0.00857334 0)
(7.34478 0.00835396 0)
(7.34613 0.00806849 0)
(7.3475 0.00772225 0)
(7.34887 0.00731971 0)
(7.35024 0.00686454 0)
(7.35161 0.00635964 0)
(7.35297 0.00580725 0)
(7.35432 0.00520898 0)
(7.35566 0.00456594 0)
(7.35698 0.00387882 0)
(7.35828 0.003148 0)
(7.35956 0.00237359 0)
(7.36082 0.00155561 0)
(7.36205 0.000694014 0)
(7.36326 -0.000211254 0)
(7.36443 -0.00116024 0)
(7.36557 -0.00215316 0)
(7.333 0.000555842 0)
(7.33302 0.0016557 0)
(7.33307 0.00270982 0)
(7.33315 0.00369592 0)
(7.33333 0.00459557 0)
(7.33361 0.00539435 0)
(7.33402 0.00608216 0)
(7.33456 0.00665396 0)
(7.33523 0.0071092 0)
(7.33602 0.00745081 0)
(7.33691 0.00768411 0)
(7.33791 0.00781593 0)
(7.33898 0.00785382 0)
(7.34011 0.0078055 0)
(7.3413 0.00767836 0)
(7.34253 0.00747931 0)
(7.3438 0.00721451 0)
(7.34508 0.00688939 0)
(7.34638 0.00650856 0)
(7.34768 0.00607589 0)
(7.34899 0.00559451 0)
(7.3503 0.0050669 0)
(7.35159 0.00449498 0)
(7.35288 0.00388016 0)
(7.35416 0.00322341 0)
(7.35542 0.0025254 0)
(7.35666 0.00178655 0)
(7.35788 0.0010071 0)
(7.35907 0.000187238 0)
(7.36024 -0.000672902 0)
(7.36138 -0.00157316 0)
(7.36249 -0.00251339 0)
(7.36357 -0.00349361 0)
(7.333 0.000549621 0)
(7.333 0.00164275 0)
(7.333 0.00267805 0)
(7.33304 0.00362281 0)
(7.33314 0.0044583 0)
(7.33334 0.00517451 0)
(7.33365 0.00576755 0)
(7.3341 0.00623861 0)
(7.33467 0.00659236 0)
(7.33536 0.00683556 0)
(7.33616 0.00697611 0)
(7.33706 0.00702234 0)
(7.33804 0.00698249 0)
(7.33909 0.00686438 0)
(7.34019 0.00667517 0)
(7.34134 0.00642125 0)
(7.34253 0.00610824 0)
(7.34374 0.00574091 0)
(7.34497 0.0053233 0)
(7.34621 0.0048587 0)
(7.34746 0.00434978 0)
(7.3487 0.00379863 0)
(7.34994 0.00320684 0)
(7.35117 0.00257561 0)
(7.35239 0.00190579 0)
(7.35359 0.00119797 0)
(7.35478 0.000452562 0)
(7.35594 -0.000330121 0)
(7.35708 -0.00114982 0)
(7.35819 -0.00200629 0)
(7.35927 -0.00289924 0)
(7.36032 -0.00382843 0)
(7.36134 -0.00479378 0)
(7.333 0.000552467 0)
(7.33297 0.00165715 0)
(7.3329 0.00268951 0)
(7.33283 0.00360489 0)
(7.33282 0.00438446 0)
(7.3329 0.00502317 0)
(7.33309 0.00552383 0)
(7.33341 0.00589438 0)
(7.33386 0.00614517 0)
(7.33443 0.00628724 0)
(7.33512 0.00633141 0)
(7.3359 0.00628781 0)
(7.33678 0.00616563 0)
(7.33774 0.00597303 0)
(7.33875 0.00571709 0)
(7.33982 0.00540389 0)
(7.34093 0.00503855 0)
(7.34207 0.00462534 0)
(7.34324 0.00416773 0)
(7.34441 0.00366852 0)
(7.3456 0.00312994 0)
(7.34679 0.00255368 0)
(7.34798 0.00194104 0)
(7.34915 0.00129295 0)
(7.35032 0.0006101 0)
(7.35147 -0.00010702 0)
(7.35261 -0.00085805 0)
(7.35372 -0.0016427 0)
(7.35481 -0.0024607 0)
(7.35587 -0.00331175 0)
(7.35691 -0.00419556 0)
(7.35791 -0.00511182 0)
(7.35887 -0.00606044 0)
(7.333 0.000570563 0)
(7.33291 0.00171788 0)
(7.33273 0.00277262 0)
(7.33252 0.0036757 0)
(7.33235 0.00440926 0)
(7.33226 0.00497471 0)
(7.33228 0.00538296 0)
(7.33244 0.00564989 0)
(7.33273 0.00579255 0)
(7.33316 0.00582697 0)
(7.33371 0.00576745 0)
(7.33438 0.00562636 0)
(7.33515 0.00541417 0)
(7.336 0.00513961 0)
(7.33693 0.00480987 0)
(7.33792 0.00443082 0)
(7.33895 0.00400722 0)
(7.34003 0.00354284 0)
(7.34113 0.00304067 0)
(7.34225 0.00250301 0)
(7.34339 0.00193163 0)
(7.34453 0.00132782 0)
(7.34567 0.000692523 0)
(7.3468 2.64205e-05 0)
(7.34793 -0.000670032 0)
(7.34904 -0.00139651 0)
(7.35014 -0.00215277 0)
(7.35121 -0.00293861 0)
(7.35226 -0.00375381 0)
(7.35328 -0.00459813 0)
(7.35428 -0.0054713 0)
(7.35524 -0.00637305 0)
(7.35617 -0.00730332 0)
(7.33299 0.000612858 0)
(7.33282 0.00185182 0)
(7.33248 0.00296663 0)
(7.33207 0.00388054 0)
(7.33167 0.00457926 0)
(7.33135 0.00507369 0)
(7.33115 0.00538538 0)
(7.3311 0.00554041 0)
(7.3312 0.00556417 0)
(7.33146 0.00547885 0)
(7.33186 0.00530305 0)
(7.33239 0.00505198 0)
(7.33304 0.00473778 0)
(7.3338 0.00437002 0)
(7.33464 0.00395617 0)
(7.33555 0.00350198 0)
(7.33652 0.00301187 0)
(7.33754 0.00248913 0)
(7.33859 0.00193622 0)
(7.33967 0.00135493 0)
(7.34077 0.00074649 0)
(7.34187 0.000111756 0)
(7.34298 -0.000548734 0)
(7.34409 -0.00123466 0)
(7.34519 -0.00194585 0)
(7.34627 -0.00268223 0)
(7.34734 -0.00344375 0)
(7.34839 -0.00423036 0)
(7.34941 -0.00504198 0)
(7.35041 -0.0058785 0)
(7.35138 -0.00673974 0)
(7.35232 -0.00762554 0)
(7.35322 -0.00853592 0)
(7.33298 0.000693638 0)
(7.33269 0.00210022 0)
(7.33211 0.00332943 0)
(7.33139 0.00428379 0)
(7.33067 0.00495839 0)
(7.33004 0.00537891 0)
(7.32955 0.00558212 0)
(7.32924 0.00560809 0)
(7.32912 0.00549318 0)
(7.32919 0.0052675 0)
(7.32943 0.00495514 0)
(7.32983 0.00457486 0)
(7.33037 0.00414091 0)
(7.33103 0.00366393 0)
(7.3318 0.00315172 0)
(7.33265 0.0026099 0)
(7.33357 0.00204246 0)
(7.33455 0.00145213 0)
(7.33558 0.000840733 0)
(7.33663 0.000209379 0)
(7.33771 -0.000441306 0)
(7.3388 -0.00111105 0)
(7.3399 -0.00179985 0)
(7.34099 -0.00250782 0)
(7.34208 -0.0032352 0)
(7.34316 -0.00398223 0)
(7.34422 -0.00474918 0)
(7.34526 -0.00553625 0)
(7.34628 -0.00634357 0)
(7.34727 -0.00717122 0)
(7.34822 -0.00801921 0)
(7.34915 -0.00888754 0)
(7.35004 -0.00977635 0)
(7.33297 0.000837458 0)
(7.33247 0.00253011 0)
(7.33152 0.00395026 0)
(7.33036 0.00497989 0)
(7.3292 0.00563568 0)
(7.32815 0.00596757 0)
(7.3273 0.00603551 0)
(7.32669 0.00589991 0)
(7.32631 0.00561217 0)
(7.32617 0.00521276 0)
(7.32625 0.00473272 0)
(7.32653 0.00419514 0)
(7.32698 0.00361664 0)
(7.32758 0.00300888 0)
(7.3283 0.00237982 0)
(7.32912 0.00173471 0)
(7.33003 0.00107681 0)
(7.331 0.000408021 0)
(7.33202 -0.000270773 0)
(7.33309 -0.000959339 0)
(7.33418 -0.0016579 0)
(7.33528 -0.00236697 0)
(7.33639 -0.00308721 0)
(7.3375 -0.00381936 0)
(7.33861 -0.0045642 0)
(7.3397 -0.00532244 0)
(7.34078 -0.00609472 0)
(7.34183 -0.00688162 0)
(7.34286 -0.00768359 0)
(7.34386 -0.00850096 0)
(7.34483 -0.00933401 0)
(7.34577 -0.010183 0)
(7.34667 -0.0110481 0)
(7.33294 0.0010893 0)
(7.33211 0.00325482 0)
(7.33057 0.00496958 0)
(7.32876 0.0061083 0)
(7.32698 0.00673393 0)
(7.3254 0.00693726 0)
(7.32411 0.0068157 0)
(7.32315 0.00646047 0)
(7.32251 0.00594381 0)
(7.32218 0.00531945 0)
(7.32213 0.00462671 0)
(7.32233 0.00389328 0)
(7.32273 0.00313784 0)
(7.32331 0.00237243 0)
(7.32403 0.00160448 0)
(7.32487 0.000838142 0)
(7.32581 7.53821e-05 0)
(7.32682 -0.000683337 0)
(7.32789 -0.00143849 0)
(7.32901 -0.00219115 0)
(7.33014 -0.00294271 0)
(7.3313 -0.00369473 0)
(7.33246 -0.00444879 0)
(7.33363 -0.00520646 0)
(7.33478 -0.00596919 0)
(7.33592 -0.00673831 0)
(7.33704 -0.007515 0)
(7.33814 -0.00830029 0)
(7.3392 -0.00909503 0)
(7.34024 -0.00989993 0)
(7.34125 -0.0107156 0)
(7.34221 -0.0115424 0)
(7.34314 -0.0123811 0)
(7.33289 0.00153857 0)
(7.33145 0.00447352 0)
(7.32898 0.00660996 0)
(7.32621 0.00787046 0)
(7.32361 0.0084134 0)
(7.32136 0.00839901 0)
(7.31957 0.00798687 0)
(7.31826 0.00731508 0)
(7.31739 0.00648346 0)
(7.31693 0.00556102 0)
(7.31683 0.00459534 0)
(7.31701 0.00361755 0)
(7.31745 0.00264665 0)
(7.31809 0.00169337 0)
(7.31889 0.00076304 0)
(7.31983 -0.000142544 0)
(7.32087 -0.00102383 0)
(7.32198 -0.00188262 0)
(7.32316 -0.00272145 0)
(7.32437 -0.00354324 0)
(7.32562 -0.00435099 0)
(7.32687 -0.00514764 0)
(7.32813 -0.00593601 0)
(7.32939 -0.00671866 0)
(7.33063 -0.00749795 0)
(7.33186 -0.00827598 0)
(7.33306 -0.00905457 0)
(7.33423 -0.00983531 0)
(7.33537 -0.0106196 0)
(7.33647 -0.0114085 0)
(7.33754 -0.012203 0)
(7.33856 -0.013004 0)
(7.33954 -0.0138122 0)
(7.33277 0.00237472 0)
(7.33022 0.00655467 0)
(7.32624 0.00923282 0)
(7.3221 0.0105498 0)
(7.31843 0.010861 0)
(7.31541 0.0104471 0)
(7.31313 0.00956958 0)
(7.31155 0.00843264 0)
(7.31057 0.00716639 0)
(7.31011 0.00585237 0)
(7.31008 0.00454246 0)
(7.31039 0.00326691 0)
(7.31099 0.00204099 0)
(7.31181 0.000870817 0)
(7.3128 -0.00024289 0)
(7.31393 -0.00130263 0)
(7.31516 -0.00231269 0)
(7.31646 -0.00327823 0)
(7.31782 -0.00420467 0)
(7.31921 -0.00509736 0)
(7.32063 -0.00596137 0)
(7.32205 -0.00680139 0)
(7.32346 -0.00762171 0)
(7.32487 -0.00842615 0)
(7.32625 -0.00921811 0)
(7.3276 -0.0100006 0)
(7.32893 -0.0107762 0)
(7.33022 -0.0115471 0)
(7.33147 -0.0123154 0)
(7.33268 -0.0130825 0)
(7.33384 -0.01385 0)
(7.33496 -0.0146191 0)
(7.33603 -0.0153908 0)
(7.33248 0.00396243 0)
(7.32783 0.0101563 0)
(7.32139 0.0134334 0)
(7.31537 0.0145626 0)
(7.31044 0.0142932 0)
(7.3067 0.0131298 0)
(7.30409 0.011501 0)
(7.30245 0.00968788 0)
(7.30159 0.0078362 0)
(7.30136 0.00602522 0)
(7.30161 0.00429982 0)
(7.30225 0.00267983 0)
(7.30318 0.00116933 0)
(7.30434 -0.000235498 0)
(7.30567 -0.0015422 0)
(7.30713 -0.0027601 0)
(7.30868 -0.00389909 0)
(7.31029 -0.00496894 0)
(7.31194 -0.0059788 0)
(7.31361 -0.00693706 0)
(7.31529 -0.00785128 0)
(7.31695 -0.00872821 0)
(7.3186 -0.00957378 0)
(7.32023 -0.0103932 0)
(7.32182 -0.0111911 0)
(7.32337 -0.0119713 0)
(7.32488 -0.0127373 0)
(7.32635 -0.0134921 0)
(7.32776 -0.014238 0)
(7.32912 -0.0149774 0)
(7.33043 -0.0157119 0)
(7.33169 -0.0164431 0)
(7.33288 -0.0171725 0)
(7.33192 0.00692349 0)
(7.32311 0.0161363 0)
(7.31274 0.019809 0)
(7.30432 0.0202558 0)
(7.29817 0.018818 0)
(7.29399 0.0163596 0)
(7.29148 0.013575 0)
(7.29022 0.0108106 0)
(7.28988 0.00818367 0)
(7.29023 0.00574314 0)
(7.2911 0.00351178 0)
(7.29235 0.00148781 0)
(7.29389 -0.000344443 0)
(7.29563 -0.00200475 0)
(7.29752 -0.00351307 0)
(7.29951 -0.00488852 0)
(7.30156 -0.00614892 0)
(7.30365 -0.00731033 0)
(7.30575 -0.00838698 0)
(7.30784 -0.00939131 0)
(7.30992 -0.0103342 0)
(7.31196 -0.011225 0)
(7.31396 -0.0120719 0)
(7.31592 -0.0128818 0)
(7.31782 -0.0136608 0)
(7.31967 -0.014414 0)
(7.32145 -0.0151459 0)
(7.32317 -0.0158601 0)
(7.32483 -0.0165601 0)
(7.32642 -0.0172485 0)
(7.32794 -0.0179278 0)
(7.32939 -0.0186001 0)
(7.33078 -0.0192677 0)
(7.33066 0.013816 0)
(7.31338 0.0263449 0)
(7.29717 0.0284469 0)
(7.28626 0.0270602 0)
(7.27934 0.0238829 0)
(7.27544 0.0198567 0)
(7.27381 0.0158623 0)
(7.27367 0.0122014 0)
(7.2745 0.00887512 0)
(7.27603 0.00586635 0)
(7.27805 0.00316543 0)
(7.28043 0.000746887 0)
(7.28303 -0.00142171 0)
(7.28578 -0.00337065 0)
(7.28862 -0.00512669 0)
(7.2915 -0.00671416 0)
(7.29439 -0.00815524 0)
(7.29726 -0.0094696 0)
(7.30009 -0.0106745 0)
(7.30287 -0.0117851 0)
(7.30558 -0.0128143 0)
(7.30822 -0.0137738 0)
(7.31078 -0.0146732 0)
(7.31325 -0.0155212 0)
(7.31564 -0.0163251 0)
(7.31794 -0.0170913 0)
(7.32015 -0.0178254 0)
(7.32226 -0.0185318 0)
(7.32429 -0.0192148 0)
(7.32622 -0.0198777 0)
(7.32807 -0.0205233 0)
(7.32982 -0.0211538 0)
(7.33149 -0.0217708 0)
(7.32447 0.0352529 0)
(7.28905 0.0484151 0)
(7.26649 0.0395875 0)
(7.25598 0.0291989 0)
(7.2507 0.0198778 0)
(7.2489 0.0120333 0)
(7.24973 0.00591216 0)
(7.25205 0.00117495 0)
(7.25519 -0.00258364 0)
(7.25891 -0.0055997 0)
(7.26304 -0.00802666 0)
(7.26741 -0.0100035 0)
(7.27191 -0.0116428 0)
(7.27644 -0.0130254 0)
(7.28095 -0.014209 0)
(7.28539 -0.0152374 0)
(7.28974 -0.0161443 0)
(7.29397 -0.0169553 0)
(7.29807 -0.0176904 0)
(7.30202 -0.018365 0)
(7.30582 -0.0189911 0)
(7.30947 -0.0195783 0)
(7.31297 -0.0201343 0)
(7.31631 -0.020665 0)
(7.31951 -0.0211753 0)
(7.32255 -0.0216692 0)
(7.32545 -0.02215 0)
(7.32821 -0.0226203 0)
(7.33083 -0.0230824 0)
(7.33332 -0.0235384 0)
(7.33568 -0.0239904 0)
(7.33791 -0.0244406 0)
(7.34003 -0.0248918 0)
(7.29541 0.0831414 0)
(7.21833 0.128044 0)
(7.18707 0.129005 0)
(7.18632 0.113963 0)
(7.19295 0.0941336 0)
(7.20193 0.0760901 0)
(7.21231 0.0610609 0)
(7.22297 0.0481506 0)
(7.2335 0.0368367 0)
(7.24384 0.0270213 0)
(7.2539 0.0186073 0)
(7.26354 0.011437 0)
(7.27271 0.00534159 0)
(7.2814 0.000169923 0)
(7.2896 -0.00421275 0)
(7.29733 -0.007928 0)
(7.3046 -0.0110826 0)
(7.31143 -0.0137678 0)
(7.31785 -0.0160603 0)
(7.32388 -0.0180245 0)
(7.32954 -0.0197144 0)
(7.33485 -0.0211751 0)
(7.33983 -0.0224439 0)
(7.34451 -0.0235523 0)
(7.34889 -0.0245262 0)
(7.35301 -0.0253873 0)
(7.35686 -0.0261537 0)
(7.36047 -0.0268404 0)
(7.36386 -0.0274599 0)
(7.36702 -0.0280225 0)
(7.36997 -0.0285366 0)
(7.37273 -0.029008 0)
(7.37529 -0.0294443 0)
(7.32717 -0.156814 0)
(7.19692 -0.284093 0)
(7.13361 -0.280647 0)
(7.11315 -0.247166 0)
(7.11508 -0.214556 0)
(7.13554 -0.184255 0)
(7.16564 -0.15703 0)
(7.19803 -0.134036 0)
(7.22997 -0.115223 0)
(7.26033 -0.099898 0)
(7.28836 -0.0873952 0)
(7.31375 -0.0772161 0)
(7.33648 -0.068952 0)
(7.35673 -0.0622452 0)
(7.37473 -0.0567941 0)
(7.39067 -0.052356 0)
(7.40478 -0.0487368 0)
(7.41726 -0.045781 0)
(7.4283 -0.043363 0)
(7.43805 -0.041382 0)
(7.44666 -0.0397572 0)
(7.45427 -0.0384235 0)
(7.46098 -0.0373286 0)
(7.46689 -0.0364302 0)
(7.47208 -0.035694 0)
(7.47664 -0.0350924 0)
(7.48063 -0.0346028 0)
(7.4841 -0.0342066 0)
(7.48712 -0.0338888 0)
(7.48972 -0.0336368 0)
(7.49195 -0.0334397 0)
(7.49385 -0.0332888 0)
(7.49548 -0.0331726 0)
(7.33086 1.21499 0)
(7.63822 1.23053 0)
(7.81865 0.920168 0)
(7.8759 0.647915 0)
(7.88919 0.449902 0)
(7.88325 0.310866 0)
(7.8619 0.213001 0)
(7.83006 0.143228 0)
(7.79309 0.0928989 0)