/*--------------------------------*- C++ -*----------------------------------*\
| =========                 |                                                 |
| \\      /  F ield         | OpenFOAM: The Open Source CFD Toolbox           |
|  \\    /   O peration     | Version:  4.1                                   |
|   \\  /    A nd           | Web:      www.OpenFOAM.org                      |
|    \\/     M anipulation  |                                                 |
\*---------------------------------------------------------------------------*/
FoamFile
{
    version     2.0;
    format      ascii;
    class       volScalarField;
    location    "1300";
    object      k;
}
// * * * * * * * * * * * * * * * * * * * * * * * * * * * * * * * * * * * * * //

dimensions      [0 2 -2 0 0 0 0];

internalField   nonuniform List<scalar> 
6820
(
0.257082
0.434211
0.59852
0.709382
0.778145
0.818049
0.838547
0.845896
0.844371
0.836963
0.825767
0.812247
0.797426
0.782015
0.766498
0.751201
0.736336
0.722036
0.708378
0.6954
0.683115
0.671515
0.660583
0.650294
0.640616
0.631518
0.622964
0.614924
0.607339
0.600295
0.593189
0.588696
0.574468
0.811277
1.44613
1.51874
1.38792
1.22323
1.07762
0.95922
0.864569
0.788642
0.727157
0.676842
0.635256
0.600578
0.571431
0.546763
0.525758
0.507776
0.49231
0.478954
0.467377
0.45731
0.448532
0.440859
0.434138
0.428241
0.423059
0.418502
0.414494
0.410968
0.407891
0.405164
0.402958
0.400711
0.368869
0.66416
0.797428
0.829397
0.816589
0.786286
0.750411
0.713991
0.679045
0.646311
0.616001
0.588103
0.562514
0.539088
0.517663
0.498078
0.480173
0.4638
0.44882
0.435107
0.422543
0.411025
0.400456
0.390751
0.381831
0.373626
0.366073
0.359115
0.352701
0.346788
0.341329
0.336304
0.331654
0.240027
0.336287
0.412169
0.460222
0.487105
0.500012
0.504037
0.502509
0.497533
0.490424
0.482012
0.472847
0.463295
0.453611
0.443967
0.434484
0.425242
0.416295
0.407676
0.399404
0.39149
0.383933
0.376731
0.369875
0.363356
0.357161
0.351278
0.345693
0.340393
0.335363
0.330591
0.326066
0.321766
0.214145
0.250649
0.284542
0.31208
0.332947
0.348027
0.358469
0.365345
0.369529
0.371681
0.372296
0.371745
0.370308
0.368203
0.365595
0.362617
0.359369
0.355934
0.352375
0.348743
0.345078
0.341412
0.33777
0.334171
0.330629
0.327158
0.323765
0.320456
0.317237
0.31411
0.311077
0.30814
0.305299
0.20564
0.221937
0.238617
0.25366
0.26644
0.276904
0.285273
0.29185
0.296935
0.300784
0.303614
0.305602
0.306896
0.307616
0.307861
0.307715
0.307247
0.306514
0.305564
0.304439
0.303172
0.301793
0.300325
0.29879
0.297204
0.295583
0.293939
0.292283
0.290623
0.288967
0.287321
0.285691
0.284083
0.202357
0.210378
0.219404
0.228106
0.235957
0.242783
0.248605
0.253515
0.257621
0.261027
0.263824
0.266097
0.267914
0.269339
0.270426
0.271218
0.271758
0.272079
0.272212
0.272183
0.272013
0.271725
0.271333
0.270855
0.270303
0.26969
0.269024
0.268315
0.267572
0.2668
0.266007
0.265198
0.264378
0.201008
0.2051
0.210232
0.215526
0.22054
0.225078
0.229098
0.232622
0.235689
0.238346
0.240635
0.242597
0.244268
0.245681
0.246866
0.247847
0.248648
0.249289
0.249788
0.250162
0.250425
0.25059
0.250668
0.250669
0.250602
0.250476
0.250298
0.250075
0.249811
0.249514
0.249188
0.248837
0.248465
0.200424
0.202508
0.205459
0.208754
0.21204
0.21513
0.217953
0.220495
0.222768
0.224789
0.22658
0.228159
0.229548
0.230765
0.231826
0.232746
0.23354
0.23422
0.234797
0.235281
0.235681
0.236006
0.236263
0.236459
0.2366
0.236691
0.236739
0.236747
0.236719
0.236661
0.236574
0.236463
0.236332
0.200163
0.201193
0.202864
0.204904
0.207067
0.20919
0.211193
0.213044
0.214736
0.216272
0.217659
0.218908
0.220029
0.221031
0.221926
0.222722
0.223428
0.224051
0.224599
0.225079
0.225496
0.225856
0.226165
0.226425
0.226643
0.226822
0.226965
0.227076
0.227158
0.227213
0.227245
0.227255
0.227247
0.200044
0.20052
0.201431
0.202661
0.20406
0.205505
0.206921
0.208268
0.209528
0.210694
0.211766
0.212747
0.213641
0.214454
0.215192
0.215859
0.21646
0.217002
0.217488
0.217924
0.218312
0.218657
0.218963
0.219232
0.219467
0.219672
0.219848
0.219999
0.220126
0.220232
0.220318
0.220387
0.22044
0.199989
0.200177
0.20064
0.201347
0.20222
0.203178
0.204159
0.205125
0.206054
0.206932
0.207754
0.208519
0.209227
0.209879
0.210478
0.211028
0.21153
0.211989
0.212406
0.212786
0.21313
0.213441
0.213722
0.213975
0.214201
0.214404
0.214584
0.214744
0.214885
0.215009
0.215117
0.21521
0.215291
0.199965
0.200004
0.200209
0.200585
0.201099
0.201706
0.202361
0.203034
0.203702
0.204351
0.204971
0.205559
0.206111
0.206627
0.207107
0.207553
0.207966
0.208347
0.208698
0.209021
0.209317
0.209589
0.209837
0.210063
0.21027
0.210457
0.210627
0.210781
0.21092
0.211046
0.211158
0.211259
0.211349
0.199954
0.199918
0.199979
0.20015
0.200426
0.200784
0.201198
0.201645
0.202107
0.20257
0.203025
0.203465
0.203886
0.204286
0.204664
0.205019
0.205352
0.205662
0.205951
0.20622
0.206469
0.2067
0.206913
0.20711
0.207291
0.207458
0.207611
0.207752
0.207881
0.207999
0.208108
0.208206
0.208296
0.199949
0.199877
0.199858
0.199908
0.20003
0.200217
0.200456
0.200733
0.201034
0.201348
0.201667
0.201984
0.202294
0.202594
0.202883
0.203158
0.203419
0.203665
0.203898
0.204116
0.204321
0.204512
0.20469
0.204857
0.205011
0.205155
0.205289
0.205413
0.205528
0.205634
0.205733
0.205824
0.205909
0.199947
0.199857
0.199796
0.199776
0.199803
0.199877
0.199994
0.200145
0.200323
0.20052
0.200729
0.200944
0.20116
0.201375
0.201586
0.201791
0.201988
0.202178
0.202358
0.20253
0.202693
0.202846
0.202991
0.203127
0.203256
0.203376
0.203488
0.203594
0.203693
0.203785
0.203872
0.203953
0.204029
0.199947
0.199847
0.199764
0.199706
0.199676
0.199679
0.199713
0.199776
0.199863
0.19997
0.200092
0.200224
0.200363
0.200506
0.200651
0.200794
0.200936
0.201074
0.201208
0.201337
0.201461
0.201579
0.201692
0.2018
0.201902
0.201999
0.202091
0.202177
0.202259
0.202337
0.20241
0.202479
0.202545
0.199946
0.199843
0.199749
0.199669
0.199608
0.199567
0.199548
0.19955
0.199573
0.199614
0.199669
0.199737
0.199814
0.199898
0.199986
0.200078
0.20017
0.200264
0.200356
0.200447
0.200536
0.200622
0.200705
0.200786
0.200864
0.200938
0.201009
0.201077
0.201142
0.201205
0.201264
0.201321
0.201375
0.199946
0.199841
0.199742
0.199651
0.199571
0.199505
0.199453
0.199417
0.199396
0.199389
0.199396
0.199415
0.199444
0.19948
0.199523
0.199572
0.199624
0.199678
0.199735
0.199792
0.199849
0.199907
0.199964
0.20002
0.200074
0.200128
0.20018
0.20023
0.200279
0.200326
0.200372
0.200417
0.200459
0.199946
0.19984
0.199739
0.199642
0.199553
0.199471
0.1994
0.19934
0.19929
0.199252
0.199225
0.199209
0.199201
0.199202
0.199209
0.199223
0.199242
0.199265
0.199291
0.19932
0.199351
0.199383
0.199416
0.19945
0.199485
0.199519
0.199554
0.199588
0.199622
0.199655
0.199688
0.199721
0.199753
0.199946
0.19984
0.199737
0.199638
0.199543
0.199454
0.199372
0.199297
0.19923
0.199172
0.199122
0.199081
0.199048
0.199022
0.199003
0.198991
0.198984
0.198982
0.198984
0.198989
0.198998
0.19901
0.199023
0.199039
0.199056
0.199074
0.199093
0.199113
0.199134
0.199156
0.199177
0.199199
0.199221
0.199946
0.19984
0.199736
0.199635
0.199538
0.199445
0.199356
0.199273
0.199196
0.199125
0.199061
0.199004
0.198954
0.198911
0.198873
0.198842
0.198817
0.198796
0.19878
0.198768
0.19876
0.198755
0.198753
0.198754
0.198757
0.198763
0.19877
0.198778
0.198788
0.198799
0.198812
0.198825
0.198839
0.199946
0.19984
0.199736
0.199634
0.199536
0.19944
0.199349
0.199261
0.199178
0.1991
0.199028
0.198962
0.198901
0.198846
0.198798
0.198754
0.198716
0.198683
0.198655
0.198631
0.198611
0.198595
0.198583
0.198573
0.198567
0.198562
0.198561
0.198561
0.198563
0.198567
0.198572
0.198578
0.198586
0.199946
0.19984
0.199735
0.199634
0.199534
0.199438
0.199345
0.199255
0.19917
0.199089
0.199013
0.198942
0.198876
0.198816
0.198761
0.198711
0.198667
0.198628
0.198593
0.198563
0.198537
0.198514
0.198496
0.198481
0.198468
0.198459
0.198452
0.198447
0.198445
0.198444
0.198446
0.198448
0.198453
0.199946
0.19984
0.199735
0.199633
0.199534
0.199437
0.199344
0.199254
0.199168
0.199087
0.19901
0.198939
0.198873
0.198812
0.198756
0.198706
0.198661
0.198621
0.198586
0.198554
0.198528
0.198505
0.198485
0.198469
0.198456
0.198446
0.198438
0.198433
0.198429
0.198428
0.198428
0.19843
0.198433
0.199946
0.19984
0.199735
0.199634
0.199534
0.199438
0.199346
0.199257
0.199174
0.199095
0.199022
0.198954
0.198892
0.198836
0.198785
0.19874
0.1987
0.198665
0.198635
0.198609
0.198587
0.198569
0.198554
0.198542
0.198533
0.198527
0.198523
0.198521
0.19852
0.198522
0.198524
0.198529
0.198534
0.199946
0.19984
0.199736
0.199635
0.199537
0.199442
0.199353
0.199269
0.19919
0.199118
0.199053
0.198995
0.198943
0.198898
0.198858
0.198825
0.198797
0.198774
0.198756
0.198741
0.19873
0.198723
0.198718
0.198716
0.198716
0.198718
0.198722
0.198728
0.198734
0.198742
0.19875
0.19876
0.19877
0.199946
0.19984
0.199737
0.199637
0.199542
0.199453
0.19937
0.199295
0.199228
0.19917
0.199121
0.199079
0.199046
0.19902
0.199001
0.198988
0.19898
0.198977
0.198978
0.198982
0.198989
0.198998
0.19901
0.199023
0.199037
0.199052
0.199068
0.199085
0.199102
0.199119
0.199136
0.199153
0.199171
0.199946
0.199841
0.19974
0.199645
0.199557
0.199478
0.19941
0.199354
0.199309
0.199277
0.199255
0.199244
0.199241
0.199247
0.199259
0.199277
0.199299
0.199325
0.199353
0.199384
0.199416
0.199448
0.199481
0.199514
0.199547
0.199579
0.199611
0.199642
0.199672
0.199701
0.199729
0.199756
0.199782
0.199947
0.199844
0.199749
0.199664
0.199592
0.199537
0.199499
0.19948
0.199477
0.199489
0.199515
0.199553
0.199599
0.199652
0.19971
0.199772
0.199836
0.199901
0.199965
0.20003
0.200092
0.200154
0.200213
0.20027
0.200324
0.200376
0.200426
0.200473
0.200518
0.20056
0.200599
0.200637
0.200672
0.199948
0.199852
0.19977
0.199711
0.199677
0.199673
0.199697
0.199746
0.199818
0.199907
0.20001
0.200122
0.200239
0.20036
0.20048
0.2006
0.200717
0.20083
0.200939
0.201043
0.201141
0.201234
0.201322
0.201405
0.201482
0.201554
0.201622
0.201685
0.201743
0.201797
0.201848
0.201894
0.201937
0.199951
0.199872
0.199828
0.199831
0.199884
0.199985
0.200128
0.200302
0.200499
0.20071
0.200928
0.201146
0.201361
0.201569
0.201768
0.201958
0.202136
0.202304
0.20246
0.202605
0.20274
0.202865
0.20298
0.203087
0.203184
0.203274
0.203356
0.203431
0.2035
0.203563
0.203619
0.203671
0.203718
0.19996
0.199932
0.199988
0.200141
0.200383
0.200695
0.201055
0.20144
0.201833
0.202222
0.202597
0.202954
0.203288
0.203598
0.203885
0.204149
0.20439
0.204611
0.204811
0.204994
0.205159
0.205309
0.205445
0.205567
0.205677
0.205777
0.205866
0.205946
0.206017
0.20608
0.206137
0.206186
0.20623
0.19999
0.200113
0.200438
0.200945
0.201582
0.202288
0.203012
0.20372
0.20439
0.205011
0.205578
0.206091
0.206552
0.206965
0.207333
0.207661
0.207953
0.208212
0.208442
0.208646
0.208826
0.208985
0.209126
0.209249
0.209357
0.209451
0.209533
0.209603
0.209664
0.209715
0.209757
0.209792
0.20982
0.200097
0.200698
0.201729
0.20303
0.20443
0.205804
0.207078
0.208222
0.209229
0.210107
0.210866
0.211521
0.212084
0.212568
0.212984
0.213341
0.213647
0.21391
0.214135
0.214327
0.21449
0.214628
0.214743
0.214839
0.214917
0.214979
0.215028
0.215064
0.215089
0.215104
0.215111
0.215109
0.2151
0.200521
0.202675
0.205525
0.20847
0.211189
0.21355
0.215527
0.217152
0.218476
0.219552
0.220424
0.221131
0.221704
0.222168
0.222543
0.222845
0.223086
0.223277
0.223425
0.223537
0.223617
0.223671
0.223702
0.223713
0.223707
0.223684
0.223649
0.223601
0.223542
0.223475
0.223398
0.223315
0.223225
0.202177
0.209422
0.217079
0.223316
0.228003
0.231437
0.233925
0.235719
0.23701
0.237936
0.238593
0.239054
0.239367
0.239569
0.239685
0.239733
0.239727
0.239676
0.239588
0.239469
0.239324
0.239157
0.238971
0.238768
0.23855
0.23832
0.23808
0.23783
0.237573
0.237308
0.237039
0.236764
0.236486
0.208503
0.227596
0.245316
0.25869
0.267554
0.272837
0.275658
0.27695
0.277338
0.277195
0.276744
0.276116
0.275385
0.274596
0.273774
0.272932
0.27208
0.271221
0.270359
0.269495
0.268631
0.267768
0.266908
0.266051
0.265198
0.264351
0.263511
0.262678
0.261853
0.261037
0.260232
0.259437
0.258653
0.248308
0.315061
0.34816
0.362157
0.367118
0.367958
0.366701
0.364185
0.360865
0.357053
0.352965
0.348753
0.344525
0.340356
0.336297
0.332383
0.328633
0.32506
0.321669
0.318461
0.315432
0.312577
0.309891
0.307366
0.304994
0.302768
0.30068
0.298722
0.296886
0.295167
0.293555
0.292046
0.290632
0.205354
0.221127
0.238043
0.254121
0.268995
0.282971
0.296258
0.308938
0.321054
0.332632
0.343696
0.354264
0.36435
0.373971
0.38314
0.391874
0.400187
0.408094
0.415611
0.422753
0.429535
0.435971
0.442078
0.447869
0.453358
0.45856
0.463488
0.468156
0.472575
0.476758
0.480716
0.484461
0.488009
0.618299
0.69443
0.816662
0.96613
1.1313
1.29982
1.46295
1.61359
1.74591
1.85587
1.94197
2.00524
2.04868
2.07631
2.09225
2.10005
2.10242
2.10118
2.09745
2.09187
2.0848
2.07648
2.06712
2.05688
2.04594
2.03438
2.02226
2.00956
1.99622
1.98215
1.96719
1.95122
1.93406
1.91555
1.89553
1.87387
1.85043
1.8251
1.7978
1.76848
1.73711
1.70371
1.66834
1.63107
1.59204
1.55142
1.50941
1.46626
1.42224
1.37767
1.33287
1.28819
1.24398
1.2006
1.1584
1.11769
1.0788
1.04199
1.0075
0.975521
0.946208
0.919669
0.895969
0.875136
0.857157
0.841991
0.829565
0.819785
0.812534
0.807681
0.805081
0.804577
0.806007
0.809201
0.813984
0.820179
0.827607
0.836086
0.845434
0.855471
0.866017
0.876894
0.887932
0.898961
0.909823
0.920368
0.930456
0.939962
0.948772
0.956788
0.963923
0.970104
0.975276
0.979384
0.982412
0.984292
0.985127
0.984662
0.983709
0.980455
0.399207
0.404198
0.417506
0.441622
0.477222
0.524783
0.5842
0.654777
0.735204
0.823619
0.917638
1.01443
1.11089
1.20388
1.29056
1.36867
1.43671
1.49407
1.54089
1.57792
1.60627
1.62718
1.64185
1.65133
1.6565
1.65802
1.65644
1.65214
1.64543
1.63653
1.6256
1.61275
1.59804
1.58153
1.56322
1.54313
1.52127
1.49764
1.47226
1.44517
1.41642
1.38609
1.35428
1.32113
1.28678
1.25143
1.21528
1.17857
1.14155
1.10449
1.06767
1.03139
0.995911
0.961522
0.928479
0.897022
0.867363
0.839687
0.814144
0.790852
0.769894
0.75132
0.735151
0.72138
0.709974
0.700882
0.694033
0.689343
0.686717
0.686048
0.687224
0.690127
0.694632
0.700611
0.707932
0.716458
0.726051
0.736568
0.747861
0.759783
0.772182
0.784905
0.7978
0.810714
0.823501
0.836018
0.84813
0.859712
0.870649
0.880837
0.890186
0.898615
0.90606
0.912458
0.917781
0.92196
0.925078
0.926903
0.928068
0.927862
0.326708
0.321613
0.317088
0.313616
0.31192
0.312761
0.316667
0.324284
0.336493
0.354172
0.378147
0.409096
0.447424
0.493122
0.545662
0.603946
0.666348
0.730852
0.795278
0.857521
0.915779
0.968701
1.01545
1.05566
1.08937
1.11688
1.13867
1.15525
1.16716
1.17488
1.17884
1.17941
1.17689
1.17155
1.16362
1.15328
1.1407
1.12604
1.10946
1.09108
1.07106
1.04955
1.0267
1.0027
0.977726
0.951976
0.925659
0.898994
0.87221
0.845535
0.819202
0.793436
0.768456
0.744466
0.721655
0.700192
0.68022
0.661861
0.645211
0.63034
0.617293
0.606095
0.59675
0.589244
0.583549
0.579625
0.577421
0.576879
0.577934
0.580515
0.584549
0.589956
0.596655
0.60456
0.61358
0.623621
0.634582
0.64636
0.658842
0.671913
0.68545
0.699325
0.713408
0.727565
0.741662
0.755565
0.769146
0.782282
0.794857
0.806765
0.817908
0.8282
0.837566
0.845936
0.853271
0.859494
0.864667
0.868584
0.871697
0.874334
0.317034
0.311838
0.306763
0.301844
0.297174
0.292876
0.289096
0.285976
0.283653
0.282369
0.282429
0.284203
0.288113
0.294624
0.304206
0.317292
0.334217
0.355152
0.380047
0.40859
0.440204
0.474079
0.50924
0.544644
0.579275
0.612231
0.642779
0.670384
0.69471
0.715587
0.732986
0.746976
0.757691
0.765306
0.770013
0.772012
0.771503
0.768683
0.763743
0.756872
0.748257
0.738084
0.72654
0.713814
0.700098
0.685584
0.67047
0.65495
0.639221
0.623475
0.607896
0.592664
0.577945
0.563893
0.550647
0.538328
0.527041
0.516871
0.507888
0.50014
0.493665
0.488481
0.484598
0.482012
0.480714
0.480684
0.481899
0.48433
0.487945
0.492708
0.498581
0.505523
0.513489
0.52243
0.532294
0.543022
0.554553
0.566814
0.579727
0.593208
0.607162
0.621487
0.636075
0.650811
0.665575
0.680247
0.694706
0.708832
0.722512
0.735636
0.748103
0.759819
0.770702
0.780672
0.789679
0.797638
0.80459
0.81035
0.815196
0.820407
0.302101
0.298521
0.294967
0.291428
0.287905
0.284416
0.280994
0.277677
0.274506
0.271525
0.268797
0.2664
0.26443
0.263008
0.262279
0.262414
0.263601
0.266042
0.269938
0.275466
0.282762
0.291898
0.302857
0.315529
0.329702
0.345075
0.361277
0.377893
0.394496
0.410674
0.426058
0.440335
0.453257
0.464647
0.474388
0.482424
0.488744
0.493376
0.496382
0.497844
0.497865
0.496562
0.494061
0.490499
0.486017
0.480761
0.47488
0.468521
0.461833
0.45496
0.44804
0.441207
0.434584
0.428284
0.422413
0.41706
0.412307
0.40822
0.404856
0.40226
0.400466
0.399502
0.399385
0.400128
0.401737
0.404214
0.407558
0.411765
0.416829
0.42274
0.429489
0.437062
0.445443
0.454613
0.464551
0.475227
0.486607
0.498652
0.511311
0.524527
0.538233
0.552352
0.566798
0.581476
0.596285
0.611116
0.62586
0.640403
0.654636
0.66845
0.681741
0.694409
0.706365
0.717523
0.727818
0.737161
0.745569
0.752878
0.759201
0.766661
0.282232
0.280116
0.277974
0.275797
0.273576
0.271314
0.269021
0.26671
0.264397
0.262099
0.259835
0.257625
0.255493
0.253469
0.251589
0.249897
0.248444
0.247292
0.246513
0.246184
0.246387
0.247202
0.248705
0.250954
0.25399
0.257823
0.262432
0.267761
0.273719
0.280186
0.287017
0.294052
0.301123
0.308069
0.314736
0.32099
0.326719
0.331834
0.336275
0.340003
0.343004
0.345287
0.346876
0.347815
0.348157
0.347969
0.347325
0.346306
0.344996
0.343479
0.341843
0.340171
0.338544
0.337038
0.335725
0.334669
0.333931
0.333561
0.333605
0.334103
0.335087
0.336587
0.338624
0.34122
0.344391
0.348149
0.352508
0.357476
0.363064
0.369278
0.376125
0.38361
0.391736
0.400505
0.409914
0.419958
0.430626
0.441899
0.453754
0.466157
0.479065
0.492424
0.506171
0.520232
0.534524
0.548956
0.563431
0.577846
0.592097
0.60608
0.61969
0.632828
0.645397
0.657305
0.668479
0.678823
0.68833
0.696858
0.704368
0.713699
0.26341
0.262273
0.261093
0.259864
0.258581
0.257242
0.255849
0.254408
0.252928
0.251417
0.249884
0.248337
0.246785
0.245239
0.243708
0.242205
0.240745
0.239346
0.238031
0.236823
0.235754
0.234856
0.234164
0.233714
0.233541
0.233676
0.234146
0.234967
0.236145
0.237676
0.23954
0.241708
0.244137
0.246774
0.249563
0.25244
0.255342
0.258209
0.260985
0.263623
0.266084
0.268339
0.270369
0.272166
0.273734
0.275083
0.276234
0.277213
0.278055
0.278795
0.279476
0.280139
0.280827
0.281585
0.282454
0.283474
0.284683
0.286116
0.287805
0.28978
0.292066
0.294687
0.297665
0.301018
0.304764
0.30892
0.3135
0.31852
0.323994
0.329937
0.336363
0.343286
0.350721
0.358679
0.367172
0.376209
0.385794
0.395928
0.406605
0.417811
0.429524
0.441713
0.454335
0.467339
0.480659
0.494225
0.507954
0.521759
0.535545
0.549214
0.562669
0.575809
0.588538
0.600759
0.612393
0.623339
0.633571
0.642962
0.651344
0.662129
0.248007
0.247449
0.246849
0.246204
0.245509
0.244761
0.243961
0.243112
0.242218
0.241282
0.240312
0.23931
0.238283
0.237235
0.23617
0.235093
0.234008
0.232923
0.231844
0.230779
0.22974
0.228739
0.22779
0.226908
0.226113
0.225421
0.22485
0.224419
0.224141
0.22403
0.224094
0.224336
0.224756
0.225348
0.2261
0.226999
0.228026
0.229159
0.230376
0.231656
0.232977
0.234319
0.235668
0.23701
0.238338
0.239649
0.240942
0.242224
0.243504
0.244795
0.246111
0.247472
0.248897
0.250408
0.252026
0.253772
0.255667
0.257733
0.259988
0.26245
0.265138
0.268066
0.27125
0.274705
0.278443
0.282478
0.286825
0.291496
0.296507
0.301872
0.307608
0.313732
0.320262
0.327215
0.334611
0.342464
0.350792
0.359605
0.368911
0.378713
0.389006
0.399776
0.411001
0.422648
0.434675
0.447028
0.459644
0.472451
0.485369
0.498313
0.511192
0.523912
0.53638
0.5485
0.560189
0.571343
0.581923
0.591815
0.600744
0.612541
0.236153
0.235917
0.235646
0.235338
0.234989
0.234597
0.234161
0.233682
0.233162
0.232604
0.232011
0.231386
0.230732
0.230053
0.22935
0.228627
0.227884
0.227126
0.226354
0.225573
0.224785
0.223996
0.223212
0.22244
0.221688
0.220964
0.22028
0.219645
0.21907
0.218566
0.218142
0.217807
0.217569
0.217433
0.217404
0.217481
0.217666
0.217955
0.218345
0.218831
0.219407
0.220067
0.220805
0.221617
0.222498
0.223447
0.224462
0.225545
0.226698
0.227927
0.229237
0.230636
0.232134
0.233739
0.235462
0.237315
0.239307
0.241449
0.243752
0.246225
0.248878
0.251719
0.254758
0.258003
0.261462
0.265144
0.26906
0.27322
0.277635
0.282318
0.287284
0.29255
0.298134
0.304053
0.31033
0.316983
0.324035
0.331502
0.339403
0.34775
0.35655
0.365806
0.375512
0.385652
0.396202
0.40713
0.418389
0.429927
0.44168
0.453578
0.465542
0.47749
0.489334
0.500985
0.512358
0.523355
0.533922
0.543962
0.553116
0.565478
0.227215
0.227153
0.227063
0.226944
0.226793
0.226608
0.226388
0.226134
0.225845
0.225525
0.225174
0.224794
0.224389
0.223961
0.22351
0.223039
0.222549
0.222042
0.221519
0.220981
0.220431
0.21987
0.219301
0.218727
0.218152
0.217582
0.21702
0.216473
0.215947
0.21545
0.214989
0.21457
0.214202
0.21389
0.213643
0.213464
0.213359
0.213332
0.213387
0.213526
0.21375
0.214061
0.214461
0.214949
0.215528
0.216197
0.216959
0.217815
0.218769
0.219823
0.220981
0.222248
0.223627
0.225125
0.226745
0.228494
0.230376
0.232395
0.234557
0.236866
0.239325
0.241938
0.24471
0.247643
0.250741
0.254011
0.257456
0.261084
0.264902
0.268921
0.273153
0.27761
0.28231
0.287269
0.292508
0.298047
0.303909
0.310115
0.316687
0.323644
0.331002
0.338773
0.346964
0.355575
0.364596
0.374013
0.383797
0.393914
0.404318
0.414955
0.425763
0.436672
0.447606
0.458485
0.469229
0.479747
0.489978
0.499839
0.508915
0.521409
0.220482
0.220511
0.220518
0.220503
0.220463
0.220398
0.220305
0.220184
0.220037
0.219863
0.219665
0.219444
0.219201
0.218938
0.218656
0.218358
0.218044
0.217715
0.217372
0.217017
0.21665
0.216272
0.215885
0.21549
0.21509
0.214687
0.214284
0.213883
0.213491
0.213109
0.212744
0.212401
0.212086
0.211803
0.21156
0.211361
0.211213
0.211121
0.21109
0.211126
0.211233
0.211415
0.211677
0.212023
0.212455
0.212979
0.213596
0.214311
0.215127
0.216047
0.217074
0.218213
0.219465
0.220834
0.222323
0.223933
0.225667
0.227526
0.229512
0.231624
0.233864
0.236231
0.238726
0.241348
0.244099
0.246978
0.249989
0.253135
0.256419
0.259849
0.263434
0.267183
0.271111
0.275232
0.279564
0.284126
0.288941
0.294029
0.299413
0.305116
0.311159
0.317559
0.324332
0.331489
0.339031
0.346958
0.355258
0.363912
0.372891
0.382159
0.391669
0.401367
0.411193
0.421077
0.430949
0.440727
0.45035
0.45975
0.46848
0.480711
0.215369
0.215443
0.2155
0.215541
0.215562
0.215564
0.215545
0.215504
0.215442
0.21536
0.215257
0.215136
0.214998
0.214845
0.214676
0.214495
0.214301
0.214096
0.21388
0.213655
0.213422
0.21318
0.212932
0.212678
0.212419
0.212157
0.211894
0.211632
0.211373
0.211121
0.210878
0.210649
0.210438
0.210249
0.210086
0.209956
0.209862
0.209811
0.209808
0.209857
0.209965
0.210137
0.210378
0.210692
0.211085
0.211561
0.212124
0.212779
0.21353
0.21438
0.215332
0.216389
0.217554
0.218829
0.220214
0.221711
0.22332
0.225041
0.226871
0.228811
0.230858
0.233009
0.235262
0.237614
0.240064
0.24261
0.24525
0.247986
0.25082
0.253754
0.256795
0.25995
0.26323
0.266647
0.270215
0.273953
0.277878
0.282012
0.286376
0.290994
0.295887
0.301077
0.306583
0.312421
0.318605
0.325141
0.33203
0.339267
0.346837
0.35472
0.362885
0.371294
0.379901
0.38865
0.397485
0.406335
0.415142
0.423854
0.432018
0.443643
0.211442
0.211535
0.211616
0.211684
0.211738
0.211777
0.2118
0.211806
0.211795
0.211769
0.211727
0.21167
0.211601
0.211519
0.211426
0.211323
0.211211
0.211091
0.210964
0.210832
0.210694
0.210551
0.210405
0.210256
0.210105
0.209953
0.209802
0.209654
0.209509
0.209371
0.209241
0.209123
0.209019
0.208934
0.20887
0.208833
0.208826
0.208854
0.208921
0.209034
0.209197
0.209414
0.209692
0.210035
0.210448
0.210936
0.211504
0.212156
0.212895
0.213725
0.21465
0.215672
0.216792
0.218012
0.219332
0.220753
0.222273
0.223891
0.225603
0.227408
0.229301
0.231278
0.233335
0.235468
0.237673
0.239945
0.242283
0.244684
0.247148
0.249677
0.252273
0.254941
0.25769
0.260528
0.263469
0.266526
0.269715
0.273056
0.276567
0.280271
0.28419
0.288344
0.292755
0.297443
0.302425
0.307715
0.313321
0.319249
0.325495
0.332051
0.338901
0.346021
0.353378
0.360934
0.368643
0.37645
0.384303
0.392164
0.399595
0.410342
0.208391
0.20849
0.20858
0.208659
0.208728
0.208786
0.208831
0.208864
0.208884
0.208891
0.208887
0.208872
0.208846
0.208811
0.208769
0.208719
0.208663
0.208602
0.208538
0.20847
0.2084
0.208329
0.208257
0.208185
0.208115
0.208047
0.207983
0.207923
0.20787
0.207825
0.207789
0.207766
0.207758
0.207768
0.207798
0.207853
0.207935
0.20805
0.208201
0.208392
0.208628
0.208914
0.209254
0.209653
0.210117
0.210648
0.211252
0.211933
0.212694
0.213538
0.214469
0.215487
0.216595
0.217793
0.21908
0.220457
0.22192
0.223468
0.225097
0.226802
0.228579
0.230422
0.232327
0.234286
0.236296
0.238351
0.240445
0.242577
0.244744
0.246945
0.249182
0.251457
0.253777
0.256147
0.258578
0.261081
0.26367
0.266362
0.269173
0.272123
0.275232
0.278521
0.28201
0.28572
0.289671
0.293879
0.298358
0.303119
0.308168
0.313506
0.319127
0.325019
0.331164
0.337535
0.344099
0.350816
0.357644
0.364555
0.371146
0.380818
0.205999
0.206095
0.206184
0.206266
0.20634
0.206405
0.206461
0.206508
0.206545
0.206573
0.206592
0.206602
0.206605
0.206601
0.206592
0.206578
0.206561
0.206541
0.20652
0.206498
0.206476
0.206456
0.206438
0.206424
0.206413
0.206408
0.206409
0.206418
0.206435
0.206464
0.206504
0.206559
0.206631
0.206721
0.206833
0.206969
0.207133
0.207329
0.207559
0.207829
0.20814
0.208499
0.208909
0.209374
0.209899
0.210487
0.211142
0.211868
0.212668
0.213545
0.2145
0.215535
0.216651
0.217849
0.219126
0.220481
0.221912
0.223416
0.224987
0.226622
0.228313
0.230056
0.231843
0.233668
0.235524
0.237406
0.239308
0.241225
0.243154
0.245093
0.247041
0.249
0.250974
0.252967
0.254988
0.257045
0.259149
0.261315
0.263558
0.265894
0.26834
0.270917
0.273643
0.276539
0.279623
0.282914
0.286428
0.29018
0.29418
0.298436
0.302949
0.307717
0.312732
0.317979
0.323436
0.329075
0.334865
0.340789
0.346485
0.354965
0.204111
0.204199
0.204283
0.204361
0.204433
0.2045
0.204559
0.204612
0.204657
0.204696
0.204728
0.204755
0.204776
0.204792
0.204805
0.204815
0.204824
0.204832
0.204841
0.204852
0.204865
0.204881
0.204902
0.204929
0.204963
0.205004
0.205055
0.205115
0.205187
0.205273
0.205373
0.20549
0.205625
0.205781
0.205961
0.206166
0.206401
0.206667
0.206968
0.207308
0.207689
0.208117
0.208594
0.209123
0.20971
0.210357
0.211067
0.211843
0.212689
0.213605
0.214594
0.215657
0.216793
0.218002
0.219282
0.220631
0.222046
0.223523
0.225056
0.22664
0.228268
0.229935
0.231631
0.233351
0.235087
0.236832
0.23858
0.240325
0.242063
0.243792
0.245509
0.247214
0.248911
0.250601
0.252292
0.25399
0.255705
0.257448
0.259231
0.26107
0.26298
0.264978
0.267081
0.269308
0.271676
0.274204
0.276909
0.279805
0.282908
0.286227
0.289771
0.293542
0.29754
0.301758
0.306185
0.310803
0.31559
0.320539
0.325338
0.332577
0.202616
0.202694
0.202769
0.20284
0.202907
0.20297
0.203028
0.203082
0.20313
0.203174
0.203214
0.203249
0.203281
0.20331
0.203337
0.203363
0.20339
0.203417
0.203447
0.20348
0.203517
0.20356
0.203609
0.203666
0.203732
0.203807
0.203894
0.203994
0.204107
0.204236
0.204382
0.204547
0.204733
0.204942
0.205176
0.205438
0.20573
0.206055
0.206416
0.206816
0.207258
0.207746
0.208282
0.208871
0.209514
0.210215
0.210978
0.211803
0.212693
0.21365
0.214675
0.215767
0.216927
0.218153
0.219443
0.220793
0.222201
0.223661
0.225168
0.226715
0.228296
0.229903
0.231529
0.233165
0.234805
0.23644
0.238064
0.23967
0.241255
0.242813
0.244343
0.245845
0.247317
0.248764
0.25019
0.251599
0.253001
0.254404
0.255819
0.257259
0.258736
0.260266
0.261865
0.263548
0.265331
0.267233
0.269269
0.271454
0.273804
0.27633
0.279043
0.281951
0.285058
0.288363
0.291862
0.295546
0.299401
0.303426
0.30736
0.313375
0.201435
0.201501
0.201565
0.201627
0.201687
0.201744
0.201798
0.201849
0.201897
0.201942
0.201984
0.202023
0.202061
0.202097
0.202134
0.20217
0.202208
0.202248
0.202292
0.202341
0.202395
0.202456
0.202525
0.202604
0.202692
0.202793
0.202907
0.203035
0.203179
0.203341
0.203521
0.203723
0.203948
0.204197
0.204474
0.20478
0.205118
0.20549
0.205899
0.206349
0.206841
0.207379
0.207966
0.208604
0.209296
0.210045
0.210852
0.211721
0.212651
0.213645
0.214702
0.215822
0.217005
0.218247
0.219547
0.220902
0.222305
0.223754
0.22524
0.226758
0.228301
0.22986
0.231428
0.232995
0.234556
0.2361
0.237622
0.239115
0.240574
0.241994
0.243372
0.244706
0.245998
0.247248
0.248459
0.249637
0.250787
0.251917
0.253036
0.254155
0.255285
0.25644
0.257632
0.258876
0.260187
0.26158
0.263069
0.26467
0.266397
0.268263
0.270279
0.272455
0.274798
0.277312
0.279997
0.282851
0.285865
0.289042
0.292175
0.297027
0.200507
0.200561
0.200614
0.200666
0.200717
0.200767
0.200815
0.200861
0.200906
0.20095
0.200991
0.201032
0.201072
0.201113
0.201154
0.201196
0.201242
0.20129
0.201343
0.201402
0.201468
0.201541
0.201624
0.201717
0.201822
0.20194
0.202073
0.202221
0.202388
0.202573
0.202779
0.203008
0.203261
0.203541
0.20385
0.204189
0.204562
0.204971
0.205418
0.205906
0.206438
0.207015
0.207642
0.20832
0.209051
0.209838
0.210682
0.211585
0.212548
0.213572
0.214655
0.215798
0.216998
0.218254
0.219561
0.220917
0.222316
0.223753
0.225221
0.226713
0.228221
0.229738
0.231255
0.232764
0.234256
0.235724
0.23716
0.238557
0.239911
0.241215
0.242467
0.243665
0.244808
0.245897
0.246935
0.247924
0.248871
0.249781
0.250663
0.251525
0.252377
0.253231
0.254097
0.254989
0.25592
0.256902
0.25795
0.259076
0.260295
0.261618
0.263057
0.264623
0.266323
0.268165
0.270151
0.272284
0.27456
0.276982
0.279393
0.283175
0.199789
0.199831
0.199873
0.199915
0.199957
0.199998
0.20004
0.200081
0.200121
0.200161
0.200201
0.200241
0.200282
0.200324
0.200367
0.200413
0.200462
0.200515
0.200574
0.200639
0.200712
0.200793
0.200885
0.200988
0.201103
0.201233
0.201378
0.20154
0.201721
0.201923
0.202146
0.202394
0.202667
0.202968
0.2033
0.203663
0.204062
0.204497
0.204971
0.205487
0.206048
0.206655
0.207311
0.208018
0.208778
0.209593
0.210464
0.211393
0.212379
0.213423
0.214524
0.215681
0.216893
0.218155
0.219464
0.220817
0.222207
0.223629
0.225077
0.226542
0.228017
0.229493
0.230963
0.232418
0.233848
0.235248
0.236608
0.237922
0.239185
0.240391
0.241537
0.24262
0.24364