/*--------------------------------*- C++ -*----------------------------------*\
| =========                 |                                                 |
| \\      /  F ield         | OpenFOAM: The Open Source CFD Toolbox           |
|  \\    /   O peration     | Version:  4.1                                   |
|   \\  /    A nd           | Web:      www.OpenFOAM.org                      |
|    \\/     M anipulation  |                                                 |
\*---------------------------------------------------------------------------*/
FoamFile
{
    version     2.0;
    format      ascii;
    class       volScalarField;
    location    "1300";
    object      nut;
}
// * * * * * * * * * * * * * * * * * * * * * * * * * * * * * * * * * * * * * //

dimensions      [0 2 -1 0 0 0 0];

internalField   nonuniform List<scalar> 
6820
(
3.5437e-05
5.0672e-05
6.21565e-05
6.89859e-05
7.29393e-05
7.51484e-05
7.62608e-05
7.66561e-05
7.65742e-05
7.61754e-05
7.5569e-05
7.48308e-05
7.40141e-05
7.31561e-05
7.22832e-05
7.14133e-05
7.05589e-05
6.97282e-05
6.89266e-05
6.81574e-05
6.7422e-05
6.67213e-05
6.6055e-05
6.54225e-05
6.48227e-05
6.42545e-05
6.37163e-05
6.32068e-05
6.2723e-05
6.22708e-05
6.18119e-05
6.15226e-05
6.06187e-05
0.00135033
0.000930454
0.000725657
0.000569941
0.000453328
0.000372218
0.000316223
0.000276487
0.000247302
0.000225194
0.000208006
0.000194347
0.000183294
0.000174212
0.000166657
0.000160304
0.000154915
0.000150307
0.000146343
0.000142912
0.000139928
0.000137322
0.000135037
0.000133026
0.000131252
0.000129681
0.000128287
0.000127046
0.000125936
0.000124945
0.000124035
0.000123263
0.000122375
0.0034439
0.00180034
0.00133708
0.00108081
0.000912409
0.000791562
0.000700947
0.00063099
0.000575611
0.000530788
0.000493805
0.000462783
0.000436392
0.000413669
0.000393905
0.000376561
0.000361227
0.000347581
0.000335366
0.000324379
0.000314452
0.000305447
0.000297251
0.000289768
0.000282915
0.000276623
0.000270833
0.000265492
0.000260553
0.000255978
0.000251725
0.000247775
0.000244046
0.00637392
0.00310291
0.00217847
0.00173334
0.00146616
0.00128428
0.00115082
0.00104807
0.000966256
0.000899457
0.000843822
0.000796729
0.000756323
0.000721253
0.000690512
0.000663332
0.000639118
0.000617403
0.000597813
0.000580047
0.000563859
0.000549047
0.000535441
0.000522899
0.000511301
0.000500545
0.000490542
0.000481216
0.0004725
0.000464336
0.000456667
0.000449452
0.000442625
0.00899737
0.00527271
0.00366202
0.00284163
0.00235737
0.00203856
0.00181195
0.00164188
0.00150906
0.00140219
0.00131419
0.00124038
0.00117752
0.0011233
0.00107604
0.00103444
0.000997547
0.000964581
0.000934941
0.000908141
0.000883785
0.00086155
0.000841166
0.000822409
0.000805088
0.000789042
0.000774133
0.000760242
0.000747263
0.000735105
0.000723686
0.000712937
0.000702774
0.0103765
0.00752965
0.00561349
0.00443387
0.0036773
0.00316202
0.00279169
0.00251363
0.00229739
0.00212446
0.001983
0.00186511
0.00176535
0.00167982
0.00160567
0.00154076
0.00148347
0.00143253
0.00138693
0.00134588
0.00130873
0.00127494
0.00124408
0.00121579
0.00118975
0.00116571
0.00114344
0.00112275
0.00110348
0.00108547
0.00106861
0.00105279
0.00103788
0.0109773
0.00922098
0.00752197
0.0062241
0.00528073
0.00458893
0.00406896
0.0036676
0.00335003
0.00309329
0.00288184
0.00270491
0.00255482
0.00242601
0.0023143
0.00221655
0.00213034
0.00205377
0.00198532
0.00192379
0.00186819
0.00181772
0.00177171
0.0017296
0.00169093
0.00165529
0.00162234
0.0015918
0.0015634
0.00153694
0.00151221
0.00148906
0.00146732
0.0112223
0.01026
0.00902119
0.00786209
0.00689742
0.00612295
0.00550365
0.00500431
0.00459663
0.00425931
0.00397662
0.00373691
0.00353146
0.00335369
0.00319854
0.0030621
0.00294126
0.00283359
0.00273709
0.00265017
0.00257151
0.00250001
0.00243477
0.00237503
0.00232013
0.00226953
0.00222276
0.00217941
0.00213912
0.00210159
0.00206655
0.00203377
0.00200304
0.0113196
0.0108286
0.0100355
0.0091472
0.00830321
0.00755759
0.00691829
0.00637539
0.00591434
0.00552102
0.00518335
0.00489139
0.00463719
0.00441434
0.00421771
0.0040432
0.00388744
0.00374772
0.00362179
0.00350779
0.00340418
0.00330966
0.00322313
0.00314367
0.00307047
0.00300286
0.00294025
0.00288212
0.00282803
0.00277759
0.00273046
0.00268635
0.00264498
0.0113579
0.0111187
0.0106546
0.0100468
0.00939296
0.00875749
0.00817148
0.00764509
0.00717794
0.00676519
0.00640062
0.00607795
0.00579147
0.00553616
0.00530774
0.00510254
0.00491748
0.00474995
0.00459774
0.00445899
0.00433208
0.00421566
0.00410856
0.00400976
0.00391838
0.00383367
0.00375497
0.00368169
0.00361333
0.00354943
0.00348961
0.00343351
0.00338082
0.0113728
0.01126
0.0110057
0.0106242
0.0101642
0.00967403
0.00918758
0.0087244
0.00829364
0.0078983
0.00753797
0.00721062
0.00691349
0.00664365
0.00639827
0.0061747
0.00597057
0.00578376
0.00561239
0.00545481
0.00530956
0.0051754
0.00505118
0.00493595
0.00482882
0.00472904
0.00463594
0.00454891
0.00446743
0.00439102
0.00431927
0.0042518
0.00418827
0.0113787
0.0113266
0.011194
0.0109703
0.0106711
0.0103231
0.00995189
0.00957697
0.009211
0.00886139
0.00853191
0.008224
0.0079377
0.00767227
0.0074265
0.00719904
0.00698845
0.00679333
0.00661237
0.00644431
0.00628804
0.00614252
0.00600681
0.00588007
0.00576153
0.0056505
0.00554637
0.00544858
0.00535662
0.00527004
0.00518843
0.00511143
0.0050387
0.0113809
0.0113572
0.0112906
0.0111664
0.010984
0.0107537
0.0104904
0.0102084
0.00991919
0.00963122
0.00935016
0.00907954
0.00882138
0.00857663
0.00834556
0.00812801
0.00792352
0.00773148
0.0075512
0.00738196
0.00722301
0.00707367
0.00693326
0.00680115
0.00667673
0.00655947
0.00644885
0.0063444
0.00624569
0.00615233
0.00606396
0.00598023
0.00590086
0.0113818
0.0113708
0.0113383
0.0112723
0.0111671
0.0110237
0.0108485
0.0106497
0.0104355
0.0102131
0.00998805
0.00976447
0.00954535
0.00933265
0.00912765
0.00893106
0.00874324
0.00856427
0.00839403
0.00823232
0.00807881
0.00793316
0.007795
0.00766392
0.00753955
0.00742152
0.00730945
0.00720301
0.00710186
0.0070057
0.00691423
0.00682718
0.00674431
0.0113822
0.0113768
0.0113611
0.0113273
0.0112692
0.0111846
0.0110744
0.0109422
0.0107927
0.0106307
0.0104607
0.0102863
0.0101104
0.00993551
0.00976318
0.00959469
0.00943091
0.00927239
0.00911948
0.00897237
0.0088311
0.00869564
0.0085659
0.00844172
0.00832293
0.00820933
0.00810072
0.00799688
0.00789762
0.00780271
0.00771195
0.00762516
0.00754214
0.0113823
0.0113794
0.0113717
0.0113547
0.0113238
0.011276
0.0112101
0.0111268
0.0110279
0.0109162
0.0107945
0.0106655
0.0105317
0.0103951
0.0102574
0.01012
0.00998405
0.00985025
0.00971925
0.0095915
0.0094673
0.00934686
0.0092303
0.00911767
0.00900898
0.00890419
0.00880325
0.00870606
0.00861253
0.00852256
0.00843603
0.00835284
0.00827285
0.0113824
0.0113805
0.0113765
0.0113679
0.0113519
0.0113259
0.0112881
0.0112379
0.0111757
0.0111025
0.0110197
0.010929
0.0108321
0.0107305
0.0106258
0.010519
0.0104112
0.0103034
0.0101961
0.01009
0.00998548
0.00988291
0.00978254
0.00968457
0.00958912
0.0094963
0.00940615
0.0093187
0.00923395
0.00915188
0.00907246
0.00899565
0.00892138
0.0113824
0.0113809
0.0113786
0.0113741
0.0113658
0.0113519
0.011331
0.0113021
0.0112646
0.0112187
0.011165
0.0111041
0.0110372
0.0109652
0.0108891
0.0108098
0.0107282
0.010645
0.010561
0.0104765
0.0103922
0.0103084
0.0102255
0.0101436
0.010063
0.00998397
0.0099065
0.00983074
0.00975676
0.00968461
0.00961432
0.0095459
0.00947936
0.0113824
0.0113811
0.0113795
0.0113769
0.0113724
0.0113651
0.0113537
0.0113375
0.0113158
0.0112882
0.0112548
0.0112157
0.0111715
0.0111227
0.0110698
0.0110135
0.0109543
0.0108929
0.0108297
0.0107652
0.0107
0.0106342
0.0105683
0.0105025
0.010437
0.0103722
0.010308
0.0102447
0.0101824
0.0101212
0.0100611
0.0100022
0.00994458
0.0113824
0.0113812
0.0113798
0.0113781
0.0113755
0.0113714
0.0113653
0.0113563
0.011344
0.011328
0.011308
0.0112839
0.0112559
0.0112241
0.0111889
0.0111505
0.0111093
0.0110657
0.0110202
0.0109729
0.0109243
0.0108746
0.0108242
0.0107732
0.0107219
0.0106706
0.0106193
0.0105682
0.0105175
0.0104672
0.0104175
0.0103684
0.01032
0.0113824
0.0113812
0.01138
0.0113786
0.0113768
0.0113744
0.0113709
0.0113659
0.011359
0.0113499
0.0113382
0.0113238
0.0113067
0.0112868
0.0112641
0.011239
0.0112114
0.0111816
0.0111499
0.0111165
0.0110816
0.0110454
0.0110081
0.0109699
0.0109311
0.0108917
0.0108519
0.010812
0.0107719
0.0107318
0.0106918
0.010652
0.0106125
0.0113824
0.0113812
0.01138
0.0113788
0.0113774
0.0113757
0.0113735
0.0113706
0.0113666
0.0113614
0.0113547
0.0113463
0.011336
0.0113238
0.0113097
0.0112937
0.0112758
0.0112561
0.0112347
0.0112117
0.0111873
0.0111616
0.0111348
0.0111069
0.0110782
0.0110487
0.0110186
0.010988
0.010957
0.0109257
0.0108942
0.0108625
0.0108308
0.0113824
0.0113812
0.01138
0.0113789
0.0113776
0.0113763
0.0113747
0.0113728
0.0113703
0.0113672
0.0113632
0.0113582
0.0113521
0.0113447
0.011336
0.0113259
0.0113143
0.0113014
0.0112871
0.0112715
0.0112546
0.0112365
0.0112174
0.0111972
0.0111761
0.0111541
0.0111315
0.0111081
0.0110842
0.0110598
0.011035
0.0110099
0.0109845
0.0113824
0.0113812
0.01138
0.0113789
0.0113777
0.0113765
0.0113752
0.0113737
0.011372
0.0113699
0.0113673
0.0113642
0.0113603
0.0113555
0.0113499
0.0113432
0.0113355
0.0113267
0.0113167
0.0113057
0.0112936
0.0112805
0.0112663
0.0112512
0.0112351
0.0112182
0.0112006
0.0111822
0.0111632
0.0111436
0.0111235
0.0111029
0.011082
0.0113824
0.0113812
0.01138
0.0113789
0.0113777
0.0113766
0.0113753
0.011374
0.0113726
0.0113709
0.0113689
0.0113665
0.0113635
0.0113599
0.0113556
0.0113504
0.0113444
0.0113375
0.0113297
0.0113208
0.011311
0.0113002
0.0112885
0.0112759
0.0112624
0.011248
0.0112329
0.0112171
0.0112006
0.0111835
0.0111658
0.0111476
0.011129
0.0113824
0.0113812
0.01138
0.0113789
0.0113777
0.0113765
0.0113753
0.011374
0.0113725
0.0113707
0.0113686
0.0113661
0.011363
0.0113593
0.0113548
0.0113496
0.0113434
0.0113364
0.0113284
0.0113194
0.0113095
0.0112986
0.0112868
0.0112741
0.0112606
0.0112462
0.0112311
0.0112152
0.0111987
0.0111816
0.011164
0.0111458
0.0111272
0.0113824
0.0113812
0.01138
0.0113789
0.0113777
0.0113764
0.011375
0.0113734
0.0113715
0.0113691
0.0113662
0.0113626
0.0113583
0.011353
0.0113468
0.0113395
0.0113312
0.0113218
0.0113113
0.0112998
0.0112872
0.0112735
0.0112589
0.0112434
0.0112271
0.0112099
0.011192
0.0111734
0.0111542
0.0111344
0.0111142
0.0110935
0.0110725
0.0113824
0.0113812
0.01138
0.0113788
0.0113775
0.011376
0.0113742
0.0113718
0.0113688
0.0113648
0.0113599
0.0113537
0.0113462
0.0113373
0.011327
0.0113153
0.0113021
0.0112875
0.0112715
0.0112543
0.0112359
0.0112164
0.0111959
0.0111744
0.0111521
0.011129
0.0111053
0.011081
0.0110562
0.011031
0.0110054
0.0109796
0.0109535
0.0113824
0.0113812
0.01138
0.0113787
0.011377
0.0113748
0.0113718
0.0113676
0.0113618
0.0113543
0.0113449
0.0113333
0.0113196
0.0113037
0.0112857
0.0112656
0.0112436
0.0112198
0.0111944
0.0111675
0.0111393
0.01111
0.0110797
0.0110486
0.0110167
0.0109843
0.0109514
0.0109182
0.0108847
0.010851
0.0108173
0.0107836
0.0107499
0.0113824
0.0113813
0.0113799
0.0113781
0.0113755
0.0113714
0.0113652
0.0113564
0.0113446
0.0113295
0.0113109
0.0112888
0.0112634
0.0112347
0.0112031
0.0111689
0.0111323
0.0110938
0.0110535
0.0110117
0.0109688
0.010925
0.0108805
0.0108355
0.0107902
0.0107447
0.0106992
0.0106538
0.0106086
0.0105637
0.0105192
0.0104751
0.0104315
0.0113825
0.0113812
0.0113794
0.0113761
0.0113704
0.0113611
0.0113472
0.0113279
0.0113028
0.011272
0.0112356
0.011194
0.0111477
0.0110974
0.0110436
0.0109871
0.0109282
0.0108677
0.0108058
0.0107431
0.0106799
0.0106166
0.0105533
0.0104902
0.0104277
0.0103658
0.0103047
0.0102444
0.0101851
0.0101268
0.0100696
0.0100135
0.00995844
0.0113825
0.0113808
0.011377
0.0113691
0.0113545
0.0113315
0.0112988
0.011256
0.0112036
0.0111424
0.0110735
0.0109982
0.0109178
0.0108335
0.0107465
0.0106576
0.0105676
0.0104773
0.0103873
0.0102978
0.0102094
0.0101224
0.0100368
0.00995292
0.00987086
0.0097907
0.0097125
0.00963628
0.00956207
0.00948985
0.00941962
0.00935135
0.009285
0.0113825
0.0113787
0.0113679
0.0113447
0.0113054
0.011248
0.0111728
0.0110816
0.0109771
0.0108621
0.0107396
0.0106119
0.0104814
0.0103497
0.0102183
0.0100882
0.00996015
0.00983484
0.00971264
0.00959382
0.00947856
0.00936695
0.00925902
0.00915477
0.00905414
0.00895706
0.00886344
0.00877318
0.00868618
0.0086023
0.00852145
0.00844351
0.00836835
0.011382
0.0113691
0.0113325
0.0112633
0.0111587
0.0110222
0.0108601
0.0106799
0.0104883
0.010291
0.0100925
0.00989597
0.00970363
0.00951703
0.00933709
0.00916431
0.0089989
0.00884088
0.00869011
0.0085464
0.00840946
0.008279
0.00815471
0.00803628
0.00792339
0.00781574
0.00771303
0.00761498
0.00752134
0.00743184
0.00734626
0.00726437
0.00718597
0.0113786
0.0113249
0.0111997
0.0110009
0.0107442
0.0104511
0.0101407
0.00982717
0.00952002
0.00922488
0.00894479
0.00868112
0.00843415
0.00820345
0.00798818
0.00778734
0.00759987
0.00742475
0.00726099
0.00710765
0.00696389
0.00682893
0.00670204
0.0065826
0.00647
0.00636371
0.00626326
0.00616821
0.00607815
0.00599273
0.00591162
0.00583452
0.00576115
0.0113536
0.011126
0.0107259
0.0102229
0.00968832
0.00916705
0.00868064
0.00823688
0.00783646
0.00747677
0.00715407
0.00686444
0.00660376
0.00636828
0.00615476
0.00596041
0.00578287
0.00562012
0.00547044
0.00533237
0.00520464
0.00508615
0.00497596
0.00487325
0.0047773
0.00468748
0.00460324
0.00452408
0.00444956
0.00437931
0.00431297
0.00425024
0.00419084
0.0111683
0.0102731
0.00924316
0.00829367
0.00748992
0.00682636
0.00627847
0.00582284
0.00544041
0.00511624
0.00483928
0.00459995
0.00439098
0.00420686
0.00404337
0.00389717
0.00376565
0.00364667
0.00353852
0.00343977
0.00334924
0.00326595
0.00318905
0.00311784
0.00305171
0.00299014
0.00293267
0.0028789
0.0028285
0.00278116
0.0027366
0.0026946
0.00265494
0.00982659
0.0072389
0.00577405
0.00486951
0.00424873
0.00378755
0.00342701
0.00314024
0.00290887
0.00271813
0.00255776
0.00242093
0.0023028
0.00219976
0.00210909
0.00202868
0.00195686
0.0018923
0.00183394
0.00178091
0.0017325
0.00168811
0.00164725
0.0016095
0.00157452
0.001542
0.00151169
0.00148337
0.00145683
0.00143192
0.00140849
0.0013864
0.00136554
0.00414167
0.00254161
0.00204418
0.00174836
0.00154034
0.00137827
0.00124767
0.00114134
0.00105377
0.00098091
0.000919644
0.000867562
0.000822823
0.000784021
0.000750081
0.000720164
0.000693613
0.000669905
0.00064862
0.000629415
0.000612009
0.000596171
0.000581705
0.000568448
0.000556262
0.000545028
0.000534645
0.000525023
0.000516088
0.000507773
0.000500018
0.000492774
0.000485988
0.000119434
0.000124352
0.000129424
0.000134072
0.000138235
0.000142037
0.000145562
0.000148849
0.000151924
0.000154806
0.000157512
0.000160054
0.000162444
0.000164691
0.000166805
0.000168794
0.000170666
0.000172429
0.000174087
0.000175649
0.000177119
0.000178503
0.000179807
0.000181034
0.00018219
0.000183279
0.000184304
0.00018527
0.000186181
0.000187038
0.000187846
0.000188607
0.000189325
6.59677e-05
7.80961e-05
9.79068e-05
0.000124182
0.000156147
0.000192544
0.000232119
0.000273542
0.000315461
0.000356662
0.000396251
0.000433764
0.000469148
0.000502659
0.000534712
0.000565753
0.000596162
0.000626204
0.000656028
0.000685688
0.000715189
0.000744513
0.000773654
0.000802625
0.000831462
0.00086021
0.000888924
0.000917653
0.000946439
0.000975316
0.00100431
0.00103344
0.00106272
0.00109215
0.00112175
0.00115151
0.00118146
0.0012116
0.00124193
0.0012725
0.0013033
0.0013344
0.00136581
0.00139761
0.00142986
0.00146263
0.00149603
0.00153016
0.00156517
0.00160118
0.00163836
0.0016769
0.001717
0.00175886
0.00180272
0.00184881
0.00189738
0.00194866
0.0020029
0.00206032
0.00212112
0.00218547
0.0022535
0.00232531
0.00240093
0.00248036
0.00256352
0.00265028
0.00274046
0.00283384
0.00293013
0.00302901
0.00313013
0.00323314
0.00333764
0.00344323
0.00354953
0.00365612
0.00376262
0.00386865
0.00397383
0.00407778
0.00418017
0.00428065
0.00437891
0.00447465
0.0045676
0.00465753
0.00474422
0.00482749
0.00490719
0.00498319
0.00505542
0.00512376
0.00518824
0.00524871
0.0053055
0.00535814
0.00540626
0.00547044
0.000121855
0.000121643
0.000123435
0.000128366
0.000136195
0.000146955
0.000160747
0.000177675
0.000197787
0.000221067
0.000247407
0.000276579
0.000308223
0.000341866
0.000376947
0.000412874
0.000449079
0.000485079
0.000520517
0.000555178
0.000588986
0.000621969
0.000654223
0.000685871
0.000717041
0.000747845
0.000778377
0.000808716
0.000838926
0.000869063
0.000899179
0.000929319
0.000959523
0.000989829
0.00102027
0.00105088
0.00108168
0.00111271
0.001144
0.00117558
0.00120749
0.00123979
0.00127252
0.00130577
0.00133959
0.0013741
0.00140939
0.00144559
0.00148283
0.00152129
0.00156112
0.00160253
0.00164571
0.0016909
0.00173831
0.00178819
0.00184077
0.00189628
0.00195492
0.0020169
0.00208236
0.00215145
0.00222422
0.00230072
0.00238091
0.00246473
0.00255204
0.00264266
0.00273636
0.00283288
0.0029319
0.00303312
0.00313618
0.00324072
0.0033464
0.00345284
0.0035597
0.00366662
0.00377327
0.00387929
0.00398438
0.00408819
0.00419043
0.00429078
0.00438897
0.0044847
0.00457775
0.00466787
0.00475487
0.00483856
0.0049188
0.00499546
0.00506844
0.00513766
0.0052031
0.00526462
0.00532254
0.00537638
0.00542563
0.00549163
0.000240023
0.000235387
0.000230545
0.000226088
0.000222629
0.000220669
0.000220411
0.000221987
0.000225643
0.000231663
0.000240328
0.000251876
0.000266463
0.000284141
0.000304846
0.000328398
0.000354516
0.000382844
0.000412974
0.000444477
0.000476937
0.000509971
0.000543256
0.000576538
0.000609644
0.000642471
0.000674982
0.000707188
0.00073913
0.000770868
0.000802468
0.000833998
0.000865521
0.000897096
0.000928778
0.00096062
0.000992673
0.00102499
0.00105762
0.00109062
0.00112406
0.001158
0.00119251
0.00122769
0.00126363
0.00130044
0.00133824
0.00137717
0.0014174
0.00145909
0.00150242
0.0015476
0.00159484
0.00164436
0.00169638
0.00175111
0.00180876
0.00186953
0.00193359
0.00200106
0.00207205
0.00214661
0.00222473
0.00230637
0.00239143
0.00247976
0.00257117
0.00266541
0.00276223
0.00286133
0.0029624
0.00306512
0.00316915
0.00327419
0.00337991
0.00348601
0.00359219
0.00369816
0.00380364
0.00390836
0.00401205
0.00411444
0.00421527
0.00431427
0.0044112
0.00450581
0.00459788
0.00468718
0.00477353
0.00485675
0.00493669
0.00501323
0.00508626
0.00515567
0.00522147
0.00528347
0.00534199
0.00539657
0.00544651
0.00551376
0.000435134
0.000426874
0.000418754
0.000410869
0.000403347
0.000396281
0.000389743
0.000383831
0.000378625
0.000374177
0.000370606
0.000368119
0.000367001
0.000367607
0.000370318
0.000375502
0.00038346
0.000394388
0.000408353
0.000425288
0.000445012
0.000467254
0.000491692
0.000517979
0.000545777
0.000574769
0.000604682
0.000635284
0.000666398
0.000697893
0.000729681
0.000761713
0.000793972
0.000826466
0.000859218
0.000892267
0.000925662
0.000959458
0.000993718
0.00102851
0.00106392
0.00110002
0.00113691
0.00117469
0.00121348
0.00125341
0.00129461
0.00133725
0.00138149
0.00142751
0.0014755
0.00152565
0.00157816
0.00163324
0.00169106
0.00175181
0.00181564
0.00188269
0.00195304
0.00202676
0.00210384
0.00218425
0.00226792
0.00235469
0.0024444
0.00253683
0.00263172
0.00272881
0.00282779
0.00292838
0.00303025
0.00313312
0.0032367
0.00334071
0.0034449
0.00354903
0.00365287
0.00375622
0.00385887
0.00396062
0.00406127
0.00416062
0.00425847
0.00435461
0.00444883
0.00454092
0.00463068
0.00471791
0.00480244
0.00488409
0.00496271
0.00503817
0.00511036
0.00517916
0.00524454
0.00530634
0.00536481
0.00541954
0.00546965
0.00553746
0.000691617
0.000679364
0.000667483
0.000656119
0.000645363
0.0006352
0.000625581
0.000616446
0.000607784
0.000599549
0.000591688
0.000584175
0.000577031
0.000570328
0.000564205
0.000558864
0.000554567
0.000551626
0.000550378
0.000551158
0.00055427
0.000559948
0.000568345
0.000579515
0.000593422
0.000609949
0.000628921
0.000650128
0.000673342
0.00069834
0.000724913
0.000752879
0.000782082
0.0008124
0.000843745
0.000876055
0.000909299
0.00094347
0.000978583
0.00101468
0.0010518
0.00109003
0.00112945
0.00117015
0.00121226
0.00125591
0.00130122
0.00134835
0.00139746
0.00144872
0.00150228
0.00155832
0.00161699
0.00167845
0.00174282
0.00181021
0.0018807
0.00195433
0.0020311
0.00211099
0.00219389
0.00227968
0.0023682
0.00245923
0.00255253
0.00264782
0.00274483
0.00284325
0.00294278
0.00304312
0.00314401
0.00324517
0.00334636
0.00344739
0.00354806
0.00364821
0.0037477
0.00384641
0.00394421
0.00404101
0.00413667
0.00423108
0.00432409
0.00441556
0.00450534
0.00459325
0.00467913
0.0047628
0.00484409
0.00492284
0.00499891
0.00507214
0.00514242
0.00520961
0.00527368
0.00533443
0.00539209
0.00544626
0.00549591
0.00556343
0.00102157
0.00100376
0.000986604
0.000970237
0.000954765
0.000940185
0.000926438
0.000913436
0.000901098
0.000889353
0.000878117
0.000867324
0.000856928
0.000846913
0.00083729
0.000828101
0.000819424
0.000811368
0.000804076
0.000797723
0.000792514
0.000788674
0.000786439
0.000786042
0.0007877
0.0007916
0.000797886
0.000806654
0.00081795
0.000831773
0.000848082
0.000866805
0.000887854
0.000911128
0.000936528
0.000963963
0.000993354
0.00102464
0.00105778
0.00109275
0.00112954
0.0011682
0.00120874
0.00125122
0.00129573
0.00134235
0.00139118
0.00144232
0.00149589
0.001552
0.00161076
0.00167228
0.00173664
0.00180392
0.00187416
0.00194739
0.00202359
0.00210271
0.00218466
0.00226931
0.00235649
0.002446
0.00253759
0.00263098
0.0027259
0.00282203
0.00291906
0.00301668
0.00311459
0.00321252
0.00331022
0.00340746
0.00350407
0.0035999
0.00369484
0.0037888
0.00388173
0.0039736
0.00406439
0.00415406
0.00424259
0.00432994
0.00441605
0.00450085
0.00458423
0.00466608
0.00474628
0.00482466
0.00490109
0.00497542
0.00504748
0.00511714
0.00518426
0.00524868
0.00531035
0.00536906
0.00542498
0.00547776
0.00552619
0.00559243
0.0014436
0.00141783
0.00139312
0.00136956
0.00134724
0.00132615
0.00130624
0.00128742
0.00126959
0.00125266
0.00123655
0.00122117
0.00120649
0.00119246
0.00117908
0.00116638
0.00115437
0.00114311
0.00113266
0.0011231
0.00111451
0.00110701
0.00110069
0.00109569
0.00109215
0.00109021
0.00109003
0.00109176
0.00109553
0.00110149
0.00110976
0.00112042
0.00113357
0.00114926
0.00116752
0.00118838
0.00121186
0.00123795
0.00126666
0.00129799
0.00133193
0.00136852
0.00140775
0.00144967
0.0014943
0.00154168
0.00159187
0.0016449
0.00170084
0.00175973
0.00182159
0.00188647
0.00195435
0.00202524
0.00209909
0.00217582
0.00225535
0.00233752
0.00242217
0.00250908
0.00259801
0.00268869
0.00278082
0.00287408
0.00296814
0.00306267
0.00315732
0.0032518
0.0033458
0.00343907
0.00353137
0.00362253
0.00371242
0.00380093
0.00388803
0.0039737
0.00405798
0.00414091
0.00422255
0.00430298
0.00438227
0.00446045
0.00453757
0.00461362
0.00468857
0.00476238
0.00483496
0.00490621
0.00497599
0.00504419
0.00511064
0.0051752
0.00523773
0.00529805
0.00535608
0.0054116
0.00546473
0.00551512
0.00556147
0.00562525
0.00196954
0.00193324
0.00189849
0.00186534
0.00183385
0.00180399
0.0017757
0.00174888
0.00172345
0.00169929
0.00167632
0.00165447
0.00163366
0.00161388
0.00159512
0.0015774
0.00156073
0.00154518
0.00153078
0.00151759
0.00150568
0.00149509
0.0014859
0.00147817
0.00147196
0.00146734
0.0014644
0.00146321
0.00146388
0.0014665
0.00147118
0.00147802
0.00148714
0.00149865
0.00151264
0.00152923
0.00154849
0.00157052
0.00159539
0.00162317
0.00165391
0.00168769
0.00172453
0.00176449
0.00180761
0.00185391
0.00190343
0.00195618
0.00201217
0.00207139
0.00213383
0.00219945
0.00226818
0.00233995
0.00241463
0.00249209
0.00257214
0.00265459
0.00273918
0.00282564
0.00291367
0.00300294
0.0030931
0.0031838
0.00327467
0.00336536
0.0034555
0.00354479
0.00363292
0.00371964
0.00380475
0.00388807
0.00396952
0.00404905
0.00412664
0.00420237
0.00427631
0.0043486
0.00441937
0.0044888
0.00455702
0.0046242
0.00469043
0.00475583
0.00482044
0.00488428
0.00494735
0.00500958
0.00507089
0.00513119
0.00519032
0.00524816
0.00530455
0.00535931
0.00541233
0.00546338
0.00551252
0.00555941
0.0056027
0.00566268
0.00259986
0.00255097
0.00250415
0.00245941
0.00241677
0.00237619
0.00233759
0.00230087
0.00226594
0.00223269
0.00220104
0.00217089
0.0021422
0.00211493
0.00208907
0.00206463
0.00204166
0.00202019
0.00200027
0.00198198
0.00196535
0.00195045
0.00193732
0.00192602
0.00191658
0.00190905
0.00190347
0.00189987
0.00189831
0.00189883
0.00190149
0.00190637
0.00191352
0.00192304
0.001935
0.00194951
0.00196665
0.00198652
0.00200921
0.00203483
0.00206344
0.00209515
0.00213001
0.0021681
0.00220946
0.00225414
0.00230216
0.00235355
0.00240828
0.00246633
0.00252765
0.00259218
0.0026598
0.0027304
0.0028038
0.00287981
0.00295821
0.00303874
0.0031211
0.00320497
0.00329002
0.00337586
0.00346212
0.00354841
0.00363434
0.00371953
0.00380361
0.00388625
0.00396715
0.00404606
0.00412277
0.00419715
0.0042691
0.0043386
0.00440569
0.00447045
0.00453303
0.00459362
0.00465241
0.00470965
0.00476556
0.00482038
0.00487431
0.00492756
0.00498026
0.00503251
0.00508439
0.00513591
0.00518705
0.00523775
0.0052879
0.00533738
0.00538606
0.00543374
0.00548031
0.00552551
0.00556937
0.00561154
0.00565069
0.00570538
0.00332324
0.00326076
0.00320081
0.00314337
0.00308842
0.00303592
0.00298577
0.00293789
0.00289218
0.00284854
0.00280688
0.00276711
0.00272919
0.00269306
0.00265873
0.00262622
0.00259554
0.00256675
0.0025399
0.00251505
0.00249226
0.00247159
0.00245309
0.00243681
0.00242278
0.00241104
0.00240163
0.00239456
0.00238985
0.00238754
0.00238766
0.00239022
0.00239527
0.00240285
0.00241302
0.00242583
0.00244134
0.00245963
0.00248076
0.00250482
0.00253187
0.00256199
0.00259525
0.00263171
0.00267141
0.00271439
0.00276068
0.00281028
0.00286316
0.0029193
0.00297862
0.00304103
0.00310641
0.00317459
0.00324539
0.00331858
0.00339391
0.00347108
0.00354977
0.00362963
0.00371029
0.00379135
0.00387241
0.00395307
0.0040329
0.00411153
0.00418857
0.00426368
0.00433657
0.00440697
0.00447469
0.00453959
0.00460158
0.00466066
0.00471687
0.00477033
0.00482121
0.00486971
0.0049161
0.00496066
0.00500369
0.00504549
0.00508635
0.00512655
0.00516632
0.00520587
0.00524534
0.00528483
0.00532441
0.00536406
0.00540376
0.0054434
0.00548287
0.00552202
0.00556071
0.00559869
0.00563594
0.00567214
0.005706
0.00575382
0.00411868
0.00404293
0.00397004
0.00389995
0.00383265
0.00376806
0.00370612
0.00364674
0.00358983
0.00353531
0.00348307
0.00343306
0.00338522
0.00333952
0.00329594
0.00325451
0.00321526
0.00317822
0.00314345
0.00311102
0.00308099
0.00305342
0.00302836
0.00300586
0.00298598
0.00296874
0.00295417
0.00294231
0.00293315
0.00292673
0.00292306
0.00292214
0.00292399
0.00292864
0.00293611
0.00294642
0.00295961
0.00297571
0.00299477
0.00301683
0.00304193
0.00307013
0.00310146
0.00313596
0.00317366
0.00321458
0.00325871
0.00330605
0.00335656
0.00341017
0.00346681
0.00352636
0.00358868
0.00365359
0.00372087
0.00379029
0.00386157
0.00393439
0.00400841
0.00408327
0.00415858
0.00423394
0.00430892
0.0043831
0.00445609
0.00452747
0.00459687
0.00466396
0.00472842
0.00479
0.00484851
0.00490379
0.00495579
0.00500448
0.00504993
0.00509224
0.00513159
0.00516822
0.0052024
0.00523444
0.00526468
0.00529347
0.00532117
0.0053481
0.0053746
0.00540093
0.00542736
0.00545406
0.00548117
0.00550877
0.0055369
0.00556552
0.00559456
0.00562391
0.00565343
0.00568292
0.00571231
0.0057413
0.00576876
0.00580809
0.00495875
0.00487143
0.00478706
0.00470563
0.00462708
0.00455139
0.00447847
0.00440827
0.00434072
0.00427573
0.00421325
0.00415321
0.00409557
0.00404031
0.00398743
0.00393693
0.00388887
0.00384327
0.0038002
0.00375971
0.00372188
0.00368677
0.00365444
0.00362495
0.00359834
0.00357466
0.00355394
0.00353621
0.00352148
0.00350978
0.00350112
0.00349549
0.00349292
0.00349341
0.00349696
0.00350358
0.00351329
0.00352609
0.00354201
0.00356105
0.00358324
0.00360859
0.00363712
0.00366882
0.0037037
0.00374175
0.00378295
0.00382724
0.00387459
0.00392489
0.00397805
0.00403393
0.00409236
0.00415315
0.00421607
0.00428086
0.00434722
0.00441483
0.00448334
0.00455238
0.00462154
0.00469042
0.0047586
0.00482566
0.0048912
0.00495482
0.00501614
0.00507484
0.00513062
0.00518322
0.00523246
0.0052782
0.00532035
0.00535891
0.00539393
0.00542553
0.00545387
0.00547918
0.00550174
0.00552187
0.00553992
0.00555626
0.00557127
0.00558534
0.00559885
0.00561213
0.00562552
0.00563927
0.00565361
0.0056687
0.00568466
0.00570152
0.00571929
0.00573791
0.00575727
0.00577722
0.00579768
0.00581835
0.0058384
0.00586772
0.00581326
0.00571717
0.00562393
0.00553352
0.00544592
0.0053611
0.00527903
0.00519966
0.00512294
0.00504884
0.0049773
0.00490828
0.00484176
0.00477774
0.00471622
0.00465723
0.0046008
0.00454698
0.00449584
0.00444744
0.00440185
0.00435914
0.00431938
0.00428263
0.00424894
0.00421836
0.00419094
0.0041667
0.00414569
0.0041279
0.00411338
0.00410211
0.00409411
0.00408938
0.00408792
0.00408973
0.00409481
0.00410316
0.00411478
0.00412965
0.00414777
0.00416914
0.00419374
0.00422155
0.00425254
0.00428667
0.00432389
0.00436414
0.00440732
0.00445332
0.00450203
0.00455327
0.00460687
0.0046626
0.00472022
0.00477946
0.00484001
0.00490153
0.00496367
0.00502605
0.00508828
0.00514994
0.00521062
0.00526992
0.00532743
0.00538278
0.0054356
0.00548558
0.00553243
0.00557591
0.00561583
0.00565208
0.00568457
0.00571329
0.00573829
0.00575967
0.00577761
0.0057923
0.00580403
0.00581308
0.00581981
0.0058246
0.00582782
0.00582988
0.00583118
0.00583211
0.00583303
0.00583428
0.00583613
0.00583885
0.0058426
0.00584752
0.00585367
0.00586107
0.00586968
0.00587938
0.00589013
0.00590164
0.00591345
0.00593146
0.00665244
0.00655119
0.00645246
0.00635625
0.00626257
0.00617142
0.00608279
0.00599668
0.00591307
0.00583194
0.00575327
0.00567706
0.0056033
0.005532
0.00546319
0.00539692
0.00533321
0.00527214
0.00521378
0.00515819
0.00510545
0.00505563
0.00500882
0.00496508
0.00492447
0.00488705
0.00485287
0.00482199
0.00479442
0.0047702
0.00474935
0.00473189
0.00471783
0.00470718
0.00469993
0.00469608
0.00469563
0.00469856
0.00470487
0.00471453
0.00472753
0.00474383
0.00476341
0.00478621
0.0048122
0.0048413
0.00487344
0.00490853
0.00494646
0.00498709
0.00503028
0.00507583
0.00512355
0.0051732
0.00522453
0.00527723
0.005331
0.00538551
0.00544038
0.00549524
0.00554969
0.00560335
0.00565581
0.00570667
0.00575555
0.00580208
0.00584594
0.00588681
0.00592443
0.00595859
0.0059891
0.00601586
0.0060388
0.0060579
0.00607322