/*--------------------------------*- C++ -*----------------------------------*\
| =========                 |                                                 |
| \\      /  F ield         | OpenFOAM: The Open Source CFD Toolbox           |
|  \\    /   O peration     | Version:  4.1                                   |
|   \\  /    A nd           | Web:      www.OpenFOAM.org                      |
|    \\/     M anipulation  |                                                 |
\*---------------------------------------------------------------------------*/
FoamFile
{
    version     2.0;
    format      ascii;
    class       volScalarField;
    location    "1300";
    object      omega;
}
// * * * * * * * * * * * * * * * * * * * * * * * * * * * * * * * * * * * * * //

dimensions      [0 0 -1 0 0 0 0];

internalField   nonuniform List<scalar> 
6820
(
7254.63
8569.06
9629.25
10283
10668.4
10885.8
10995.8
11034.9
11026.8
10987.3
10927.3
10854.4
10774
10689.7
10604.1
10519.1
10435.8
10355
10277.3
10202.9
10131.9
10064.5
10000.5
9939.92
9882.59
9828.39
9777.15
9728.76
9682.88
9640.08
9596.68
9568.78
9476.75
600.799
1554.22
2092.91
2435.19
2698.34
2895.12
3033.36
3126.97
3188.98
3229.02
3253.96
3268.67
3276.59
3280.08
3280.77
3279.75
3277.78
3275.36
3272.82
3270.38
3268.18
3266.28
3264.73
3263.55
3262.74
3262.29
3262.23
3262.54
3263.31
3264.57
3266.52
3269.1
3274.44
107.108
368.908
596.394
767.386
894.981
993.334
1070.57
1131.54
1179.69
1217.64
1247.46
1270.8
1289.01
1303.19
1314.18
1322.7
1329.28
1334.37
1338.3
1341.35
1343.75
1345.65
1347.2
1348.5
1349.63
1350.67
1351.66
1352.64
1353.66
1354.76
1355.96
1357.3
1358.99
37.6577
108.378
189.201
265.511
332.231
389.334
437.981
479.462
514.908
545.244
571.226
593.485
612.563
628.92
642.954
655.003
665.358
674.268
681.945
688.572
694.303
699.272
703.59
707.355
710.65
713.545
716.102
718.374
720.407
722.243
723.921
725.474
726.95
23.8008
47.5371
77.7008
109.824
141.237
170.722
197.836
222.517
244.874
265.072
283.289
299.703
314.482
327.786
339.761
350.542
360.253
369.004
376.895
384.019
390.455
396.276
401.549
406.331
410.675
414.627
418.229
421.519
424.532
427.3
429.851
432.212
434.419
19.8177
29.4751
42.5079
57.2096
72.4554
87.572
102.186
116.107
129.248
141.581
153.109
163.852
173.844
183.124
191.734
199.716
207.113
213.967
220.316
226.2
231.654
236.711
241.402
245.758
249.804
253.566
257.067
260.328
263.371
266.213
268.873
271.366
273.714
18.4341
22.8152
29.1685
36.6489
44.6826
52.9063
61.0978
69.1228
76.901
84.3847
91.5472
98.3755
104.866
111.022
116.85
122.361
127.566
132.478
137.113
141.483
145.603
149.486
153.148
156.6
159.855
162.926
165.825
168.561
171.147
173.592
175.906
178.097
180.177
17.9115
19.9902
23.3042
27.4134
31.9742
36.7598
41.6266
46.4842
51.2744
55.9589
60.5126
64.9193
69.1693
73.2571
77.1807
80.9402
84.5377
87.9764
91.2606
94.3949
97.3847
100.236
102.953
105.543
108.012
110.365
112.607
114.744
116.783
118.727
120.582
122.352
124.044
17.7059
18.7013
20.4734
22.8216
25.5371
28.4654
31.5039
34.5854
37.6658
40.7152
43.713
46.645
49.5016
52.2762
54.9648
57.5649
60.0756
62.4967
64.829
67.0737
69.2328
71.3081
73.3022
75.2174
77.0563
78.8218
80.5165
82.1432
83.7047
85.2035
86.6425
88.0241
89.351
17.6233
18.0951
19.0401
20.3949
22.0449
23.887
25.8451
27.8668
29.9162
31.9684
34.006
36.0168
37.9918
39.925
41.8118
43.6493
45.4355
47.1692
48.8499
50.4776
52.0526
53.5755
55.0472
56.4686
57.841
59.1657
60.4439
61.677
62.8666
64.0139
65.1205
66.1876
67.2166
17.5896
17.8082
18.3025
19.0753
20.0762
21.243
22.5218
23.8719
25.2637
26.6759
28.0933
29.5047
30.9021
32.2796
33.6328
34.9585
36.2545
37.5192
38.7515
39.9508
41.1168
42.2494
43.3488
44.4153
45.4494
46.4516
47.4226
48.363
49.2735
50.155
51.0082
51.8338
52.6326
17.5758
17.6732
17.924
18.3539
18.9503
19.682
20.5146
21.4186
22.3704
23.3521
24.3503
25.3549
26.3586
27.3555
28.3415
29.3133
30.2685
31.2054
32.1226
33.0192
33.8945
34.7481
35.5799
36.3898
37.1778
37.9442
38.6891
39.4128
40.1158
40.7983
41.4608
42.1038
42.7275
17.5702
17.6104
17.7324
17.9633
18.3084
18.7568
19.2901
19.889
20.5362
21.2175
21.9217
22.6397
23.3649
24.0919
24.8165
25.5356
26.2467
26.9479
27.6377
28.3151
28.9792
29.6294
30.2652
30.8865
31.4929
32.0845
32.6612
33.2232
33.7705
34.3033
34.8218
35.3262
35.8167
17.5678
17.5817
17.6374
17.7559
17.9479
18.2137
18.5461
18.9344
19.3672
19.8343
20.3268
20.8373
21.3597
21.8894
22.4224
22.9557
23.4869
24.014
24.5354
25.0501
25.5569
26.0552
26.5444
27.024
27.4938
27.9536
28.4031
28.8424
29.2714
29.69
30.0985
30.4967
30.8848
17.5669
17.5687
17.5913
17.6483
17.7501
17.9012
18.1009
18.3448
18.6268
18.9402
19.2785
19.6362
20.0084
20.3909
20.7804
21.174
21.5694
21.9647
22.3585
22.7494
23.1365
23.5189
23.8959
24.2672
24.6321
24.9905
25.342
25.6866
26.024
26.3542
26.6771
26.9928
27.3011
17.5665
17.563
17.5695
17.5941
17.6444
17.7258
17.8405
17.9877
18.1651
18.369
18.5955
18.8405
19.1005
19.3722
19.6527
19.9397
20.2311
20.5251
20.8204
21.1156
21.4098
21.7021
21.9918
22.2784
22.5614
22.8405
23.1152
23.3853
23.6508
23.9113
24.1668
24.4172
24.6625
17.5663
17.5605
17.5594
17.5675
17.5897
17.6303
17.6923
17.7769
17.8837
18.0113
18.1577
18.3205
18.4972
18.6856
18.8834
19.0888
19.2999
19.5153
19.7338
19.9541
20.1754
20.3968
20.6176
20.8373
21.0553
21.2713
21.485
21.6959
21.9039
22.1088
22.3104
22.5086
22.7033
17.5662
17.5595
17.5549
17.5548
17.5621
17.5799
17.6107
17.6561
17.7169
17.7929
17.8836
17.9876
18.1036
18.2302
18.3657
18.5089
18.6583
18.8128
18.9713
19.1329
19.2967
19.4619
19.628
19.7944
19.9605
20.1261
20.2906
20.4539
20.6157
20.7757
20.9338
21.0898
21.2435
17.5662
17.559
17.5529
17.5489
17.5487
17.5542
17.5672
17.5891
17.6211
17.6636
17.7166
17.7799
17.8528
17.9345
18.0241
18.1207
18.2233
18.3311
18.4432
18.559
18.6776
18.7985
18.9211
19.045
19.1696
19.2947
19.4198
19.5447
19.6691
19.7928
19.9155
20.0372
20.1576
17.5662
17.5588
17.552
17.5462
17.5424
17.5415
17.5447
17.5532
17.5679
17.5894
17.6181
17.6542
17.6975
17.7477
17.8043
17.8668
17.9347
18.0074
18.0842
18.1648
18.2484
18.3347
18.4233
18.5136
18.6053
18.698
18.7916
18.8857
18.98
19.0743
19.1685
19.2624
19.3558
17.5662
17.5588
17.5516
17.5451
17.5395
17.5354
17.5335
17.5346
17.5394
17.5483
17.562
17.5807
17.6044
17.6332
17.667
17.7055
17.7484
17.7954
17.8462
17.9004
17.9576
18.0175
18.0798
18.1441
18.2101
18.2776
18.3463
18.416
18.4865
18.5576
18.629
18.7006
18.7724
17.5662
17.5587
17.5515
17.5445
17.5381
17.5325
17.5281
17.5253
17.5246
17.5265
17.5312
17.5392
17.5506
17.5656
17.5843
17.6065
17.6322
17.6612
17.6934
17.7286
17.7666
17.807
17.8498
17.8946
17.9413
17.9896
18.0394
18.0905
18.1426
18.1956
18.2494
18.3038
18.3587
17.5662
17.5587
17.5514
17.5443
17.5376
17.5313
17.5256
17.5209
17.5174
17.5153
17.5151
17.517
17.5211
17.5277
17.5369
17.5487
17.5632
17.5804
17.6002
17.6225
17.6471
17.6741
17.7031
17.7342
17.7671
17.8017
17.8378
17.8753
17.914
17.9539
17.9947
18.0364
18.0788
17.5662
17.5587
17.5514
17.5442
17.5373
17.5307
17.5245
17.5189
17.514
17.5101
17.5074
17.506
17.5063
17.5083
17.5122
17.5181
17.5261
17.5363
17.5486
17.563
17.5795
17.5981
17.6186
17.6409
17.665
17.6907
17.718
17.7467
17.7767
17.8079
17.8402
17.8735
17.9077
17.5662
17.5587
17.5514
17.5442
17.5372
17.5306
17.5242
17.5183
17.513
17.5084
17.5048
17.5022
17.501
17.5012
17.503
17.5065
17.5117
17.5189
17.5279
17.5389
17.5517
17.5664
17.5829
17.6012
17.6212
17.6427
17.6657
17.6902
17.716
17.743
17.7711
17.8002
17.8303
17.5662
17.5587
17.5514
17.5442
17.5373
17.5307
17.5244
17.5187
17.5136
17.5094
17.5062
17.5041
17.5034
17.5042
17.5067
17.5108
17.5168
17.5246
17.5343
17.5459
17.5593
17.5746
17.5917
17.6104
17.6308
17.6528
17.6762
17.701
17.727
17.7543
17.7826
17.8119
17.8422
17.5662
17.5587
17.5514
17.5443
17.5376
17.5312
17.5255
17.5205
17.5166
17.5139
17.5127
17.5131
17.5153
17.5194
17.5256
17.5338
17.5442
17.5568
17.5714
17.5881
17.6068
17.6274
17.6498
17.674
17.6998
17.7271
17.7558
17.7858
17.817
17.8493
17.8826
17.9167
17.9517
17.5662
17.5587
17.5515
17.5446
17.5383
17.5328
17.5283
17.5254
17.5242
17.5251
17.5284
17.5344
17.543
17.5544
17.5687
17.5858
17.6056
17.6281
17.6531
17.6805
17.71
17.7417
17.7753
17.8106
17.8475
17.8859
17.9255
17.9663
18.0082
18.0509
18.0944
18.1386
18.1834
17.5662
17.5588
17.5518
17.5455
17.5403
17.5368
17.5355
17.5371
17.542
17.5507
17.5634
17.5803
17.6014
17.6267
17.656
17.689
17.7256
17.7655
17.8084
17.8539
17.902
17.9521
18.0042
18.0579
18.1131
18.1695
18.227
18.2853
18.3443
18.4039
18.4638
18.5241
18.5847
17.5663
17.5591
17.5527
17.548
17.5458
17.5473
17.5535
17.5653
17.5834
17.6079
17.6392
17.677
17.7211
17.771
17.8263
17.8865
17.9509
18.0192
18.0908
18.1651
18.2419
18.3207
18.401
18.4827
18.5654
18.6488
18.7328
18.817
18.9014
18.9857
19.0699
19.1538
19.2372
17.5663
17.5598
17.5555
17.5552
17.5611
17.5751
17.5988
17.6332
17.6786
17.7349
17.8015
17.8776
17.9624
18.0547
18.1535
18.2578
18.3668
18.4796
18.5954
18.7136
18.8335
18.9548
19.0768
19.1992
19.3218
19.4441
19.566
19.6872
19.8076
19.927
20.0452
20.1622
20.278
17.5666
17.5622
17.5642
17.5767
17.6039
17.6486
17.7124
17.7951
17.896
18.0132
18.145
18.289
18.4433
18.606
18.7753
18.9497
19.1279
19.3087
19.4912
19.6745
19.8581
20.0413
20.2236
20.4047
20.5843
20.7619
20.9376
21.111
21.282
21.4505
21.6165
21.7799
21.9405
17.5674
17.5706
17.5924
17.6417
17.7245
17.8427
17.995
18.1778
18.3868
18.6172
18.8646
19.125
19.3951
19.6719
19.953
20.2365
20.5208
20.8047
21.0871
21.3673
21.6445
21.9184
22.1886
22.4546
22.7164
22.9737
23.2264
23.4744
23.7178
23.9564
24.1903
24.4195
24.644
17.5706
17.6016
17.687
17.8408
18.0649
18.3527
18.6933
19.0751
19.4875
19.9213
20.3693
20.8257
21.286
21.7468
22.2053
22.6598
23.1087
23.5511
23.9861
24.4133
24.8323
25.2428
25.6447
26.038
26.4226
26.7986
27.1661
27.5251
27.8759
28.2184
28.553
28.8796
29.1986
17.5854
17.7219
18.012
18.4558
19.0269
19.692
20.4205
21.1884
21.9778
22.7761
23.5742
24.3656
25.1458
25.912
26.6623
27.3959
28.112
28.8104
29.4912
30.1544
30.8003
31.4292
32.0414
32.6374
33.2174
33.782
34.3316
34.8665
35.3873
35.8942
36.3878
36.8683
37.3363
17.6614
18.2163
19.1615
20.3924
21.7983
23.2954
24.8285
26.3633
27.8794
29.3645
30.811
32.214
33.5724
34.8867
36.1579
37.3876
38.5771
39.7282
40.8422
41.9207
42.965
43.9766
44.9566
45.9063
46.8269
47.7195
48.585
49.4246
50.2392
51.0296
51.7968
52.5417
53.265
18.1027
20.3856
23.4853
26.9261
30.4414
33.9034
37.2583
40.4818
43.5648
46.506
49.3034
51.9687
54.5134
56.9472
59.2786
61.5146
63.6615
65.7245
67.7085
69.6178
71.4563
73.2275
74.9347
76.5811
78.1693
79.7021
81.182
82.6114
83.9924
85.3272
86.6178
87.8661
89.0739
21.2182
31.4407
42.4859
53.1245
62.9728
72.0352
80.4369
88.194
95.3421
101.98
108.198
114.053
119.587
124.83
129.807
134.537
139.039
143.329
147.42
151.324
155.054
158.62
162.033
165.3
168.431
171.434
174.315
177.082
179.741
182.299
184.76
187.13
189.415
59.9537
123.961
170.318
207.141
238.336
266.971
293.908
319.086
342.453
364.002
383.806
401.992
418.711
434.116
448.348
461.537
473.799
485.233
495.929
505.963
515.403
524.308
532.729
540.71
548.292
555.509
562.392
568.969
575.263
581.297
587.089
592.657
598.022
1719.4
1778.23
1839.24
1895.41
1945.93
1992.23
2035.28
2075.52
2113.26
2148.7
2182.04
2213.4
2242.93
2270.74
2296.93
2321.61
2344.85
2366.75
2387.37
2406.81
2425.12
2442.37
2458.63
2473.95
2488.38
2501.98
2514.8
2526.88
2538.26
2548.99
2559.1
2568.63
2577.62
9372.75
8892
8341.22
7779.94
7245.1
6750.75
6302.6
5898.88
5534.45
5203.46
4900.86
4622.88
4366.8
4130.66
3912.86
3711.95
3526.58
3355.42
3197.2
3050.76
2915.03
2789.05
2671.89
2562.7
2460.65
2364.98
2274.95
2189.89
2109.19
2032.31
1958.75
1888.08
1819.92
1753.92
1689.81
1627.31
1566.22
1506.36
1447.58
1389.77
1332.85
1276.77
1221.5
1167.04
1113.43
1060.7
1008.94
958.234
908.685
860.411
813.539
768.196
724.51
682.602
642.583
604.548
568.575
534.722
503.02
473.481
446.09
420.812
397.59
376.352
357.01
339.463
323.604
309.32
296.495
285.013
274.76
265.624
257.499
250.283
243.88
238.2
233.16
228.681
224.693
221.129
217.93
215.042
212.415
210.006
207.774
205.685
203.708
201.816
199.985
198.196
196.431
194.675
192.917
191.146
189.353
187.53
185.68
183.769
181.958
179.228
3276.09
3322.82
3382.41
3440.34
3503.95
3571.03
3634.27
3685.25
3717.15
3725.65
3709.02
3667.79
3604.17
3521.49
3423.72
3314.97
3199.25
3080.06
2960.31
2842.19
2727.18
2616.17
2509.62
2407.64
2310.18
2217.07
2128.06
2042.91
1961.35
1883.09
1807.87
1735.41
1665.46
1597.78
1532.17
1468.42
1406.39
1345.94
1286.94
1229.33
1173.03
1118.01
1064.25
1011.77
960.577
910.728
862.274
815.286
769.841
726.022
683.915
643.6
605.155
568.646
534.126
501.636
471.196
442.808
416.459
392.113
369.721
349.217
330.521
313.546
298.194
284.364
271.952
260.852
250.96
242.174
234.395
227.531
221.49
216.19
211.55
207.498
203.964
200.884
198.2
195.856
193.802
191.993
190.386
188.943
187.63
186.415
185.272
184.177
183.107
182.045
180.976
179.886
178.765
177.602
176.391
175.124
173.804
172.403
171.053
168.959
1361.15
1366.32
1375.38
1387.14
1401.08
1417.33
1436.71
1460.82
1491.27
1528.83
1573.46
1624.2
1679.12
1735.48
1789.96
1839.07
1879.6
1909.01
1925.74
1929.28
1920.13
1899.52
1869.19
1831.03
1786.9
1738.42
1686.96
1633.58
1579.1
1524.1
1469.02
1414.16
1359.75
1305.94
1252.85
1200.55
1149.12
1098.59
1049.01
1000.42
952.847
906.344
860.956
816.737
773.745
732.044
691.7
652.782
615.359
579.496
545.255
512.687
481.838
452.739
425.41
399.857
376.069
354.025
333.686
315.002
297.914
282.35
268.235
255.485
244.017
233.742
224.575
216.431
209.227
202.883
197.323
192.474
188.27
184.644
181.537
178.892
176.656
174.779
173.213
171.917
170.848
169.968
169.244
168.641
168.131
167.687
167.283
166.898
166.514
166.112
165.679
165.203
164.672
164.079
163.416
162.676
161.862
160.951
160.047
158.573
728.59
730.516
732.561
734.647
736.77
739.063
741.761
745.057
749.166
754.64
762.073
772.041
785.047
801.465
821.472
844.981
871.582
900.514
930.683
960.737
989.197
1014.61
1035.69
1051.48
1061.38
1065.18
1063
1055.25
1042.48
1025.35
1004.53
980.653
954.304
925.999
896.179
865.226
833.461
801.164
768.571
735.89
703.304
670.975
639.051
607.663
576.934
546.976
517.891
489.772
462.703
436.756
411.993
388.467
366.214
345.261
325.622
307.298
290.278
274.539
260.049
246.769
234.649
223.637
213.675
204.703
196.659
189.482
183.112
177.488
172.553
168.253
164.535
161.348
158.646
156.383
154.516
153.006
151.813
150.9
150.232
149.777
149.501
149.374
149.367
149.453
149.607
149.804
150.022
150.243
150.447
150.619
150.745
150.813
150.812
150.733
150.572
150.318
149.975
149.524
149.04
148.156
436.804
439.413
441.909
444.168
446.113
447.759
449.172
450.448
451.65
452.883
454.289
456.027
458.259
461.152
464.865
469.548
475.327
482.287
490.459
499.794
510.153
521.294
532.876
544.471
555.595
565.745
574.44
581.26
585.877
588.072
587.736
584.868
579.552
571.943
562.241
550.678
537.495
522.938
507.245
490.644
473.346
455.549
437.437
419.175
400.917
382.8
364.95
347.477
330.479
314.043
298.24
283.13
268.76
255.167
242.373
230.393
219.231
208.88
199.328
190.555
182.537
175.245
168.645
162.705
157.388
152.659
148.482
144.822
141.645
138.917
136.606
134.681
133.112
131.872
130.931
130.263
129.842
129.641
129.636
129.801
130.113
130.547
131.079
131.688
132.351
133.046
133.756
134.46
135.141
135.785
136.378
136.907
137.361
137.731
138.01
138.189
138.271
138.238
138.139
137.804
276.274
279.067
281.748
284.257
286.538
288.575
290.382
291.985
293.416
294.708
295.9
297.034
298.15
299.286
300.481
301.771
303.193
304.784
306.579
308.608
310.892
313.44
316.242
319.263
322.445
325.698
328.909
331.94
334.641
336.854
338.431
339.236
339.158
338.118
336.066
332.99
328.905
323.855
317.907
311.146
303.666
295.573
286.974
277.979
268.695
259.223
249.663
240.104
230.63
221.315
212.225
203.418
194.942
186.837
179.133
171.855
165.019
158.634
152.703
147.227
142.197
137.607
133.443
129.693
126.34
123.368
120.761
118.5
116.569
114.95
113.625
112.579
111.794
111.254
110.942
110.842
110.936
111.209
111.642
112.217
112.918
113.725
114.621
115.585
116.601
117.648
118.71
119.769
120.809
121.815
122.772
123.668
124.492
125.232
125.882
126.432
126.882
127.216
127.46
127.619
182.467
184.982
187.416
189.743
191.935
193.976
195.866
197.611
199.221
200.707
202.082
203.359
204.548
205.658
206.692
207.656
208.551
209.382
210.152
210.866
211.531
212.154
212.743
213.303
213.836
214.34
214.807
215.219
215.553
215.776
215.85
215.729
215.37
214.725
213.755
212.422
210.702
208.577
206.042
203.102
199.773
196.08
192.057
187.744
183.186
178.431
173.528
168.529
163.481
158.431
153.424
148.499
143.693
139.038
134.56
130.283
126.226
122.401
118.821
115.492
112.419
109.602
107.042
104.735
102.678
100.866
99.2929
97.9519
96.836
95.9379
95.2499
94.7641
94.4723
94.3661
94.4366
94.6747
95.0706
95.6139
96.2937
97.098
98.0142
99.0287
100.127
101.295
102.517
103.777
105.059
106.347
107.626
108.881
110.098
111.263
112.365
113.393
114.336
115.186
115.938
116.582
117.117
117.707
125.922
127.997
130.024
131.989
133.877
135.678
137.389
139.01
140.543
141.99
143.356
144.645
145.858
146.996
148.057
149.038
149.935
150.742
151.455
152.07
152.583
152.993
153.301
153.507
153.614
153.626
153.545
153.374
153.114
152.765
152.322
151.781
151.133
150.367
149.474
148.441
147.257
145.913
144.401
142.719
140.864
138.84
136.656
134.322
131.853
129.266
126.583
123.825
121.016
118.179
115.338
112.516
109.734
107.014
104.374
101.831
99.3985
97.0896
94.9145
92.8818
90.998
89.268
87.6953
86.282
85.0292
83.9372
83.0052
82.2323
81.6167
81.1562
80.8486
80.6909
80.6802
80.813
81.0854
81.4932
82.0314
82.6944
83.4759
84.3685
85.364
86.453
87.6253
88.8695
90.1733
91.5237
92.9071
94.3095
95.7167
97.1145
98.4893
99.8277
101.117
102.345
103.502
104.577
105.564
106.453
107.224
108.172
90.8328
92.4813
94.1021
95.6885
97.2325
98.7283
100.172
101.563
102.899
104.181
105.41
106.586
107.708
108.776
109.786
110.735
111.617
112.428
113.162
113.812
114.374
114.844
115.217
115.492
115.668
115.746
115.726
115.611
115.403
115.105
114.721
114.252
113.701
113.068
112.353
111.557
110.679
109.717
108.672
107.543
106.33
105.036
103.664
102.217
100.703
99.1275
97.5005
95.8321
94.1331
92.4155
90.6916
88.9738
87.2747
85.6062
83.9798
82.4064
80.8959
79.4572
78.0983
76.826
75.6464
74.5645
73.5844
72.7093
71.942
71.2844
70.7382
70.3043
69.9834
69.7761
69.6824
69.7022
69.8353
70.081
70.4385
70.9063
71.4829
72.1658
72.952
73.8377
74.8181
75.8875
77.0388
78.2643
79.5547
80.8999
82.2889
83.7099
85.1505
86.5979
88.0391
89.4614
90.8521
92.1989
93.4908
94.7161
95.8677
96.9363
97.8847
99.1131
68.3714
69.6625
70.9391
72.1975
73.4332
74.6424
75.8224
76.9715
78.0882
79.1719
80.222
81.2378
82.2185
83.1621
84.0663
84.9279
85.743
86.5071
87.2156
87.8635
88.4461
88.9588
89.3978
89.7597
90.0422
90.2438
90.3636
90.4021
90.3601
90.2393
90.0418
89.7701
89.427
89.0152
88.5374
87.9963
87.3942
86.7336
86.0168
85.246
84.4238
83.5528
82.6359
81.6768
80.6795
79.6484
78.5889
77.5067
76.4081
75.2999
74.1891
73.083
71.9891
70.9146
69.8669
68.8529
67.8792
66.9519
66.0768
65.2589
64.503
63.8132
63.193
62.6457
62.174
61.7801
61.4663
61.2343
61.0856
61.0217
61.0439
61.1532
61.3506
61.637
62.0131
62.4794
63.0359
63.6825
64.4183
65.242
66.1515
67.1437
68.2147
69.3594
70.5718
71.8444
73.1692
74.5367
75.9367
77.3583
78.7902
80.2204
81.6372
83.0284
84.383
85.6891
86.938
88.1217
89.1893
90.6197
53.5323
54.5423
55.5456
56.5399
57.5225
58.491
59.4434
60.3784
61.2945
62.1908
63.0665
63.9207
64.7522
65.5597
66.3411
67.094
67.8154
68.5023
69.1509
69.7575
70.3182
70.8295
71.2878
71.69
72.0334
72.3159
72.5359
72.6925
72.7853
72.8147
72.7815
72.687
72.5329
72.3213
72.0545
71.7349
71.3652
70.9481
70.4864
69.9828
69.4404
68.862
68.2509
67.6101
66.9433
66.254
65.5461
64.8238
64.0915
63.3536
62.615
61.8804
61.1548
60.4431
59.7502
59.0807
58.4393
57.8302
57.2576
56.7251
56.2365
55.7947
55.4028
55.0633
54.7787
54.5511
54.3824
54.2746
54.2293
54.2483
54.333
54.485
54.7058
54.997
55.36
55.796
56.3062
56.8916
57.5528
58.2901
59.103
59.9907
60.9514
61.9825
63.0804
64.2404
65.4569
66.7231
68.0313
69.3727
70.7379
72.1168
73.4987
74.8726
76.2278
77.5529
78.8385
80.0777
81.2098
82.7658
43.4322
44.2258
45.0172
45.8049
46.5871
47.3623
48.1291
48.8863
49.6329
50.3679
51.0906
51.8001
52.4954
53.1753
53.8383
54.4827
55.1062
55.7067
56.2814
56.8275
57.3424
57.8229
58.2665
58.6705
59.0324
59.3502
59.6222
59.8471
60.0239
60.1521
60.2317
60.2631
60.2469
60.1844
60.0768
59.926
59.7338
59.5024
59.234
58.9312
58.5964
58.2324
57.8419
57.4277
56.9929
56.5405
56.0738
55.5959
55.1103
54.6205
54.1299
53.6422
53.161
52.6897
52.232
51.7913
51.3708
50.9737
50.6032
50.2619
49.9525
49.6776
49.4393
49.2397
49.0808
48.9644
48.8922
48.8658
48.8868
48.9568
49.0773
49.2498
49.4761
49.7576
50.0961
50.4932
50.9506
51.4697
52.0519
52.6984
53.41
54.187
55.0293
55.936
56.9055
57.9353
59.0221
60.1615
61.3479
62.5752
63.8359
65.1219
66.4244
67.7338
69.0405
70.3339
71.6049
72.8478
73.9959
75.6075
36.3724
37
37.6279
38.255
38.8802
39.5025
40.121
40.7346
41.3425
41.9441
42.5385
43.1252
43.7032
44.2717
44.8294
45.3752
45.9074
46.4244
46.9243
47.4051
47.8647
48.301
48.7118
49.095
49.4488
49.7713
50.061
50.3165
50.5367
50.7209
50.8685
50.9794
51.0537
51.0919
51.0946
51.0627
50.9976
50.9007
50.7735
50.6179
50.4359
50.2296
50.0012
49.7531
49.4877
49.2075
48.9152
48.6134
48.3049
47.9923
47.6785
47.3663
47.0584
46.7576
46.4665
46.1879
45.9241
45.6777
45.4508
45.2458
45.0645
44.9089
44.7807
44.6815
44.613
44.5765
44.5733
44.605
44.6727
44.7778
44.9217
45.1058
45.3315
45.6004
45.9142
46.2744
46.6828
47.1411
47.651
48.2139
48.8314
49.5045
50.2341
51.0205
51.8635
52.7622
53.715
54.7195
55.7724
56.8693
58.0052
59.174
60.3687
61.5816
62.8047
64.0288
65.2453
66.45
67.5739
69.1806
31.3256
31.8248
32.3256
32.8274
33.3295
33.8311
34.3315
34.8299
35.3258
35.8185
36.3075
36.7923
37.272
37.7461
38.2137
38.6737
39.1252
39.5669
39.9974
40.4154
40.8192
41.2072
41.578
41.9299
42.2615
42.5711
42.8577
43.1198
43.3567
43.5673
43.7511
43.9077
44.0368
44.1385
44.2131
44.2609
44.2828
44.2795
44.2521
44.202
44.1304
44.039
43.9295
43.8036
43.6634
43.5107
43.3477
43.1765
42.9993
42.8182
42.6356
42.4536
42.2744
42.1002
41.9331
41.7751
41.6282
41.4943
41.3752
41.2724
41.1876
41.1222
41.0775
41.0548
41.0554
41.0802
41.1303
41.2069
41.311
41.4436
41.6059
41.7991
42.0244
42.2831
42.5767
42.9067
43.2747
43.6823
44.1312
44.6232
45.1598
45.7425
46.3726
47.0512
47.779
48.5561
49.3822
50.2564
51.177
52.1415
53.1466
54.1882
55.2613
56.36
57.478
58.6078
59.742
60.8777
61.9468
63.5001
27.6522
28.0508
28.452
28.8551
29.2597
29.6653
30.0714
30.4773
30.8826
31.2869
31.6896
32.0904
32.4887
32.8839
33.2755
33.6626
34.0446
34.4205
34.7893
35.1501
35.5017
35.8429
36.1726
36.4896
36.7927
37.0809
37.353
37.6081
37.8453
38.0638
38.2631
38.4426
38.6021
38.7413
38.8603
38.9593
39.0385
39.0985
39.1399
39.1637
39.1706
39.1619
39.1388
39.1027
39.0549
38.997
38.9307
38.8577
38.7795
38.698
38.615
38.5322
38.4513
38.3741
38.3022
38.2372
38.1807
38.134
38.0987
38.0759
38.0668
38.0726
38.0942
38.1327
38.1888
38.2634
38.3573
38.4713
38.6062
38.7628
38.942
39.1447
39.372
39.6249
39.9046
40.2125
40.5498
40.9181
41.319
41.754
42.2247
42.7328
43.2797
43.8667
44.4952
45.1659
45.8792
46.6353
47.4337
48.2732
49.152
50.0676
51.0168
51.9954
52.9988
54.0212
55.0565
56.1035
57.0968
58.5613
24.9424
25.2613
25.5831
25.9076
26.2343
26.5629
26.8929
27.2241
27.5558
27.888
28.22
28.5517
28.8825
29.2121
29.54
29.8657
30.1885
30.5079
30.8231
31.1334
31.438
31.7361
32.0268
32.3091
32.5823
32.8455
33.0979
33.3387
33.5672
33.7828
33.9848
34.173
34.3469
34.5063
34.6511
34.7813
34.897
34.9986
35.0864
35.1609
35.2229
35.2731
35.3123
35.3416
35.362
35.3748
35.381
35.3821
35.3794
35.3741
35.3678
35.3617
35.3572
35.3558
35.3586
35.3669
35.382
35.4048
35.4366
35.4782
35.5305
35.5943
35.6704
35.7595
35.8621
35.9789
36.1104
36.2572
36.4199
36.5989
36.795
37.0089
37.2414
37.4932
37.7653
38.0589
38.3749
38.7148
39.0798
39.4713
39.8909
40.34
40.8201
41.3327
41.8791
42.4606
43.078
43.732
44.4229
45.1505
45.9141
46.7126
47.5439
48.4055
49.2942
50.2058
51.1358
52.0839
52.9897
54.3427
22.9262
23.1809
23.4389
23.6999
23.9637
24.2298
24.4981
24.7682
25.0399
25.3128
25.5867
25.8613
26.1362
26.4111
26.6858
26.9597
27.2326
27.5038
27.773
28.0395
28.3028
28.5623
28.8173
29.0673
29.3115
29.5494
29.7803
30.0037
30.2189
30.4256
30.6232
30.8113
30.9897
31.1582
31.3165
31.4647
31.6027
31.7308
31.8492
31.9582
32.0583
32.15
32.234
32.3109
32.3815
32.4468
32.5077
32.5651
32.62
32.6736
32.7268
32.7808
32.8365
32.8951
32.9575
33.0247
33.0975
33.1768
33.2635
33.3581
33.4613
33.5737
33.6958
33.828
33.9708
34.1244
34.2894
34.4659
34.6544
34.8553
35.069
35.2959
35.5366
35.7917
36.062
36.3482
36.6513
36.9723
37.3122
37.6724
38.054
38.4584
38.887
39.3412
39.8223
40.3316
40.8703
41.4393
42.0394
42.6711
43.3343
44.0287
44.7534
45.5071
46.2877
47.0926
47.9183
48.7659
49.5801
50.8104
21.4202
21.6229
21.8289
22.0383
22.2506
22.4658
22.6835
22.9036
23.1258
23.3499
23.5757
23.8029
24.0313
24.2608
24.4909
24.7214
24.9521
25.1825
25.4124
25.6413
25.8688
26.0945
26.3179
26.5386
26.7561
26.97
27.1797
27.3849
27.5852
27.7802
27.9694
28.1528
28.3299
28.5006
28.6648
28.8224
28.9734
29.1179
29.2561
29.3882
29.5145
29.6354
29.7514
29.8629
29.9707
30.0753
30.1774
30.2778
30.3772
30.4766
30.5766
30.678
30.7818
30.8886
30.9992
31.1143
31.2345
31.3605
31.4929
31.632
31.7783
31.9322
32.0939
32.2638
32.442
32.6287
32.8241
33.0283
33.2416
33.4641
33.696
33.9377
34.1895
34.4517
34.725
35.0099
35.3071
35.6173
35.9415
36.2806
36.6357
37.0079
37.3984
37.8085
38.2394
38.6924
39.1687
39.6693
40.1953
40.7474
41.3261
41.9317
42.5639
43.2223
43.9058
44.6128
45.341
46.0923
46.8171
47.9231
20.2966
20.4568
20.6205
20.7876
20.9578
21.1311
21.3072
21.4861
21.6675
21.8512
22.0372
22.2252
22.415
22.6064
22.7994
22.9936
23.1888
23.3848
23.5814
23.7783
23.9751
24.1716
24.3675
24.5625
24.7561
24.9481
25.1382
25.3261
25.5114
25.6939
25.8734
26.0495
26.2223
26.3914
26.5569
26.7187
26.8767
27.0311
27.182
27.3295
27.4739
27.6155
27.7546
27.8916
28.027
28.1613
28.295
28.4287
28.5629
28.6983
28.8355
28.9751
29.1176
29.2637
29.4139
29.5687
29.7286
29.8939
30.065
30.2422
30.4258
30.6158
30.8125
31.0159
31.226
31.443
31.6667
31.8972
32.1346
32.3787
32.6298
32.8879
33.1531
33.4258
33.7062
33.9947
34.2918
34.5982
34.9143
35.241
35.5792
35.9298
36.2938
36.6722
37.0662
37.4769
37.9054
38.3529
38.8203
39.3086
39.8185
40.3507
40.9054
41.4827
42.0822
42.7031
43.344
44.0075
44.6492
45.6368
19.4642
19.5899
19.719
19.8514
19.9872
20.1262
20.2682
20.4132
20.561
20.7115
20.8646
21.0201
21.1779
21.338
21.5
21.664
21.8297
21.997
22.1657
22.3357
22.5066
22.6784
22.8508
23.0236
23.1965
23.3694
23.542
23.7142
23.8856
24.0562
24.2258
24.3943
24.5614
24.7273
24.8917
25.0547
25.2163
25.3766
25.5357
25.6938
25.8509
26.0075
26.1637
26.3199
26.4764
26.6336
26.792
26.9519
27.1139
27.2783
27.4457
27.6165
27.7912
27.97
28.1535
28.3418
28.5355
28.7345
28.9393
29.1498
29.3662
29.5884
29.8166
30.0505
30.2901
30.5353
30.7859
31.0419
31.3029
31.569
31.8401
32.1161
32.397
32.6829
32.9739
33.2703
33.5724
33.8805
34.1951
34.5168
34.8462
35.184
35.5312
35.8885
36.2569
36.6374
37.0309
37.4386
37.8615
38.3004
38.7562
39.2298
39.7216
40.2321
40.7614
41.3094
41.8751
42.4617
43.0295
43.9094
18.8562
18.954
19.0552
19.1598
19.2678
19.3789
19.4933
19.6108
19.7312
19.8546
19.9809
20.11
20.2417
20.376
20.5128
20.652
20.7935
20.9373
21.0831
21.2308
21.3804
21.5317
21.6845
21.8388
21.9944
22.1511
22.3089
22.4676
22.627
22.7872
22.9479
23.1091
23.2708
23.433
23.5955
23.7586
23.9221
24.0862
24.2511
24.4168
24.5835
24.7515
24.921
25.0922
25.2655
25.4412
25.6196
25.801
25.9859
26.1745
26.3672
26.5643
26.7662
26.9731
27.1852
27.4028
27.626
27.8549
28.0896
28.33
28.5762
28.8279
29.0851
29.3475
29.6149
29.8871
30.1638
30.4447
30.7296
31.0182
31.3103
31.6057
31.9042
32.2059
32.5107
32.8187
33.1299
33.4446
33.7632
34.086
34.4134
34.7461
35.0846
35.4297
35.7822
36.1428
36.5125
36.8921
37.2826
37.6849
38.0999
38.5283
38.971
39.4285
39.9012
40.3894
40.8927
41.4144
41.9189
42.7051
18.4233
18.4993
18.5786
18.6613
18.7472
18.8365
18.929
19.0247
19.1235
19.2254
19.3305
19.4385
19.5495
19.6633
19.7801
19.8996
20.0219
20.1468
20.2744
20.4045
20.5371
20.672
20.8093
20.9489
21.0906
21.2344
21.3803
21.5282
21.678
21.8297
21.9832
22.1386
22.2959
22.4551
22.6162
22.7793
22.9444
23.1117
23.2813
23.4534
23.6281
23.8057
23.9864
24.1704
24.3579
24.5493
24.7448
24.9448
25.1494
25.359
25.5739
25.7942
26.0201
26.252
26.4898
26.7337
26.9837
27.2399
27.5021
27.7703
28.0442
28.3237
28.6085
28.8982
29.1926
29.4913
29.7938
30.0999
30.4091
30.721
31.0354
31.3518
31.6701
31.99
32.3114
32.6342
32.9585
33.2842
33.6115
33.9407
34.272
34.6059
34.9429
35.2834
35.6281
35.9777
36.333
36.6946
37.0634
37.4403
37.8261
38.2215
38.6275
39.0446
39.4735
39.9146
40.3681
40.8372
41.2895
41.9976
18.1292
18.189
18.252
18.3183
18.3879
18.4607
18.5368
18.6161
18.6987
18.7845
18.8735
18.9657
19.0611
19.1597
19.2613
19.3661
19.4739
19.5848
19.6987
19.8156
19.9355
20.0583
20.1841
20.3127
20.4443
20.5787
20.7159
20.856
20.999
21.1449
21.2936
21.4453
21.6
21.7577
21.9186
22.0827
22.2502
22.4211
22.5958
22.7742
22.9567
23.1434
23.3345
23.5303
23.731
23.9369
24.1482
24.3652
24.588
24.817
25.0523
25.294
25.5424
25.7975
26.0593
26.328
26.6034
26.8854
27.174
27.4688
27.7697
28.0763
28.3882
28.705
29.0264
29.3517
29.6806
30.0126
30.3471
30.6836
31.0218
31.3612
31.7014
32.0421
32.383
32.724
33.0648
33.4054
33.7459
34.0863
34.4267
34.7676
35.1091
35.4517
35.7958
36.142
36.491
36.8433
37.1997
37.5609
37.9277
38.3009
38.6812
39.0694
39.4662
39.8722
40.2876
40.716
41.1273
41.7733
17.9486
17.9976
18.0498
18.1052
18.1637
18.2255
18.2905
18.3589
18.4305
18.5054
18.5837
18.6652
18.7501
18.8383
18.9299
19.0248
19.123
19.2246
19.3295
19.4378
19.5495
19.6645
19.7829
19.9047
20.03
20.1588
20.291
20.4268
20.5662
20.7093
20.8561
21.0067
21.1613
21.3199
21.4826
21.6496
21.8211
21.9971
22.178
22.3638
22.5549
22.7513
22.9534
23.1614
23.3755
23.5959
23.823
24.0568
24.2976
24.5456
24.8009
25.0637
25.3341
25.612
25.8976
26.1907
26.4913
26.7991
27.1139
27.4355
27.7635
28.0975
28.4371
28.7817
29.1308
29.4839
29.8404
30.1997
30.5611
30.9242
31.2884
31.653
32.0177
32.382
32.7455