/*--------------------------------*- C++ -*----------------------------------*\
| =========                 |                                                 |
| \\      /  F ield         | OpenFOAM: The Open Source CFD Toolbox           |
|  \\    /   O peration     | Version:  4.1                                   |
|   \\  /    A nd           | Web:      www.OpenFOAM.org                      |
|    \\/     M anipulation  |                                                 |
\*---------------------------------------------------------------------------*/
FoamFile
{
    version     2.0;
    format      ascii;
    class       volScalarField;
    location    "1300";
    object      p;
}
// * * * * * * * * * * * * * * * * * * * * * * * * * * * * * * * * * * * * * //

dimensions      [0 2 -2 0 0 0 0];

internalField   nonuniform List<scalar> 
6820
(
6.15777
-4.54114
-8.06777
-8.813
-9.2056
-9.53685
-9.72521
-9.81854
-9.88143
-9.93411
-9.97717
-10.0122
-10.0424
-10.0696
-10.0944
-10.1173
-10.1387
-10.1589
-10.178
-10.1964
-10.214
-10.2309
-10.2474
-10.2633
-10.2788
-10.2939
-10.3084
-10.3223
-10.3354
-10.3476
-10.3578
-10.3677
-10.3639
-15.5615
-12.0142
-11.2124
-10.408
-10.0249
-9.94271
-9.92878
-9.92391
-9.93592
-9.961
-9.9891
-10.0161
-10.042
-10.0669
-10.0906
-10.113
-10.1343
-10.1545
-10.1738
-10.1923
-10.2101
-10.2273
-10.244
-10.2602
-10.2759
-10.2912
-10.306
-10.3203
-10.334
-10.3471
-10.3589
-10.3713
-10.3766
-13.371
-9.86306
-9.60097
-9.59072
-9.57804
-9.66857
-9.76176
-9.82399
-9.87462
-9.92178
-9.96325
-9.99869
-10.0299
-10.0581
-10.0839
-10.1076
-10.1297
-10.1505
-10.1702
-10.1889
-10.2069
-10.2243
-10.241
-10.2573
-10.2731
-10.2885
-10.3035
-10.318
-10.3321
-10.3459
-10.3589
-10.3726
-10.3835
-10.9441
-9.47321
-9.62368
-9.734
-9.71411
-9.76322
-9.82734
-9.87093
-9.90714
-9.94319
-9.97686
-10.0071
-10.0346
-10.0603
-10.0843
-10.1069
-10.1282
-10.1484
-10.1677
-10.1862
-10.2041
-10.2213
-10.2381
-10.2544
-10.2703
-10.2858
-10.301
-10.3159
-10.3305
-10.345
-10.3592
-10.3741
-10.3884
-10.4918
-9.77727
-9.81592
-9.82682
-9.77731
-9.79922
-9.8457
-9.88193
-9.9143
-9.94748
-9.97926
-10.0084
-10.0353
-10.0605
-10.0841
-10.1063
-10.1274
-10.1474
-10.1666
-10.185
-10.2027
-10.2199
-10.2366
-10.2529
-10.2688
-10.2844
-10.2998
-10.3149
-10.3299
-10.3448
-10.3599
-10.3757
-10.392
-10.4111
-9.93143
-9.88339
-9.85739
-9.81353
-9.82682
-9.86331
-9.89535
-9.92528
-9.95594
-9.98558
-10.0131
-10.0389
-10.0631
-10.0859
-10.1075
-10.1281
-10.1477
-10.1665
-10.1846
-10.2022
-10.2192
-10.2358
-10.252
-10.2679
-10.2835
-10.2989
-10.3142
-10.3295
-10.3449
-10.3606
-10.377
-10.3946
-10.2882
-9.96179
-9.9075
-9.88204
-9.84882
-9.85683
-9.88467
-9.91194
-9.93869
-9.96635
-9.99352
-10.0192
-10.0436
-10.0667
-10.0886
-10.1095
-10.1295
-10.1486
-10.1671
-10.1849
-10.2022
-10.219
-10.2354
-10.2515
-10.2673
-10.283
-10.2984
-10.3139
-10.3293
-10.345
-10.3611
-10.378
-10.3961
-10.1792
-9.97375
-9.92905
-9.90681
-9.88092
-9.88517
-9.90611
-9.92893
-9.95255
-9.97738
-10.0022
-10.0261
-10.049
-10.071
-10.092
-10.1122
-10.1315
-10.1502
-10.1682
-10.1857
-10.2027
-10.2193
-10.2355
-10.2515
-10.2672
-10.2828
-10.2982
-10.3137
-10.3293
-10.3451
-10.3614
-10.3785
-10.3966
-10.1082
-9.98453
-9.947
-9.92709
-9.90724
-9.90969
-9.92584
-9.94515
-9.96608
-9.98845
-10.0111
-10.0334
-10.0549
-10.0758
-10.0959
-10.1153
-10.134
-10.1522
-10.1698
-10.1869
-10.2035
-10.2199
-10.2359
-10.2517
-10.2673
-10.2827
-10.2982
-10.3136
-10.3292
-10.3451
-10.3614
-10.3784
-10.3963
-10.0639
-9.99115
-9.96
-9.94297
-9.92845
-9.93042
-9.94342
-9.96009
-9.97882
-9.99909
-10.0199
-10.0406
-10.0609
-10.0807
-10.0999
-10.1186
-10.1367
-10.1543
-10.1715
-10.1882
-10.2046
-10.2206
-10.2364
-10.252
-10.2674
-10.2828
-10.2981
-10.3134
-10.329
-10.3448
-10.3609
-10.3777
-10.3952
-10.0361
-9.9945
-9.9698
-9.95594
-9.94578
-9.94786
-9.95882
-9.97351
-9.99046
-10.009
-10.0282
-10.0475
-10.0667
-10.0855
-10.1039
-10.1219
-10.1394
-10.1565
-10.1732
-10.1896
-10.2056
-10.2214
-10.2369
-10.2523
-10.2675
-10.2827
-10.2979
-10.3131
-10.3284
-10.344
-10.36
-10.3764
-10.3934
-10.0196
-9.99658
-9.97787
-9.967
-9.96019
-9.96261
-9.9722
-9.9854
-10.0009
-10.0179
-10.0358
-10.0539
-10.072
-10.09
-10.1076
-10.1249
-10.1419
-10.1585
-10.1748
-10.1907
-10.2065
-10.222
-10.2372
-10.2524
-10.2674
-10.2824
-10.2973
-10.3124
-10.3275
-10.3429
-10.3585
-10.3744
-10.3908
-10.0108
-9.99854
-9.98491
-9.9767
-9.97243
-9.97522
-9.98387
-9.9959
-10.0102
-10.026
-10.0426
-10.0597
-10.0769
-10.094
-10.1109
-10.1276
-10.144
-10.1602
-10.176
-10.1917
-10.2071
-10.2223
-10.2373
-10.2522
-10.267
-10.2817
-10.2964
-10.3112
-10.3261
-10.3411
-10.3563
-10.3717
-10.3874
-10.007
-10.0009
-9.99132
-9.98541
-9.98306
-9.9862
-9.99415
-10.0052
-10.0184
-10.0331
-10.0487
-10.0648
-10.0812
-10.0975
-10.1138
-10.1299
-10.1458
-10.1615
-10.177
-10.1922
-10.2073
-10.2222
-10.2369
-10.2515
-10.2661
-10.2806
-10.295
-10.3095
-10.324
-10.3387
-10.3534
-10.3683
-10.3833
-10.0066
-10.0038
-9.99735
-9.99336
-9.99247
-9.99589
-10.0033
-10.0135
-10.0258
-10.0395
-10.0541
-10.0694
-10.0849
-10.1005
-10.1162
-10.1317
-10.1471
-10.1624
-10.1774
-10.1923
-10.2071
-10.2217
-10.2361
-10.2505
-10.2647
-10.2789
-10.293
-10.3072
-10.3214
-10.3356
-10.3498
-10.3641
-10.3785
-10.0084
-10.0073
-10.0032
-10.0007
-10.0009
-10.0046
-10.0115
-10.021
-10.0324
-10.0452
-10.059
-10.0734
-10.0881
-10.1031
-10.1181
-10.1331
-10.148
-10.1628
-10.1775
-10.192
-10.2064
-10.2207
-10.2348
-10.2489
-10.2628
-10.2767
-10.2905
-10.3043
-10.318
-10.3318
-10.3455
-10.3593
-10.373
-10.0115
-10.0112
-10.0088
-10.0076
-10.0086
-10.0124
-10.019
-10.0278
-10.0384
-10.0504
-10.0633
-10.0769
-10.0909
-10.1052
-10.1196
-10.134
-10.1485
-10.1628
-10.1771
-10.1913
-10.2053
-10.2192
-10.2331
-10.2468
-10.2604
-10.2739
-10.2874
-10.3008
-10.3141
-10.3274
-10.3406
-10.3537
-10.3668
-10.0155
-10.0156
-10.0144
-10.0141
-10.0156
-10.0195
-10.0257
-10.034
-10.0438
-10.055
-10.0671
-10.08
-10.0933
-10.1069
-10.1207
-10.1346
-10.1486
-10.1625
-10.1763
-10.1901
-10.2038
-10.2174
-10.2308
-10.2442
-10.2574
-10.2706
-10.2837
-10.2967
-10.3095
-10.3223
-10.335
-10.3476
-10.36
-10.0201
-10.0203
-10.0198
-10.0202
-10.0221
-10.026
-10.0319
-10.0396
-10.0487
-10.0592
-10.0705
-10.0826
-10.0953
-10.1082
-10.1215
-10.1348
-10.1483
-10.1617
-10.1752
-10.1885
-10.2018
-10.215
-10.2281
-10.2411
-10.254
-10.2668
-10.2795
-10.292
-10.3044
-10.3167
-10.3289
-10.3409
-10.3527
-10.0249
-10.0251
-10.0251
-10.0259
-10.0281
-10.0319
-10.0375
-10.0446
-10.0532
-10.0629
-10.0735
-10.0849
-10.0969
-10.1093
-10.1219
-10.1347
-10.1477
-10.1607
-10.1737
-10.1866
-10.1995
-10.2123
-10.2251
-10.2377
-10.2502
-10.2626
-10.2748
-10.2869
-10.2989
-10.3107
-10.3223
-10.3337
-10.3449
-10.0298
-10.03
-10.0304
-10.0314
-10.0337
-10.0373
-10.0425
-10.0491
-10.0571
-10.0661
-10.0761
-10.0868
-10.0982
-10.1099
-10.122
-10.1343
-10.1468
-10.1593
-10.1718
-10.1844
-10.1969
-10.2093
-10.2216
-10.2338
-10.2459
-10.2579
-10.2697
-10.2814
-10.2928
-10.3041
-10.3152
-10.3261
-10.3368
-10.0348
-10.035
-10.0355
-10.0366
-10.0388
-10.0422
-10.047
-10.0531
-10.0605
-10.0689
-10.0782
-10.0883
-10.099
-10.1102
-10.1217
-10.1335
-10.1455
-10.1576
-10.1697
-10.1818
-10.1939
-10.2059
-10.2179
-10.2297
-10.2414
-10.2529
-10.2643
-10.2755
-10.2865
-10.2973
-10.3078
-10.3182
-10.3283
-10.0398
-10.04
-10.0405
-10.0415
-10.0435
-10.0466
-10.051
-10.0566
-10.0633
-10.0712
-10.0799
-10.0894
-10.0995
-10.1101
-10.1211
-10.1324
-10.1439
-10.1556
-10.1672
-10.179
-10.1906
-10.2023
-10.2138
-10.2252
-10.2365
-10.2476
-10.2585
-10.2692
-10.2798
-10.2901
-10.3002
-10.31
-10.3195
-10.0448
-10.0449
-10.0453
-10.0462
-10.0479
-10.0506
-10.0545
-10.0595
-10.0657
-10.0729
-10.081
-10.0899
-10.0995
-10.1096
-10.1201
-10.131
-10.142
-10.1532
-10.1645
-10.1758
-10.1871
-10.1983
-10.2094
-10.2204
-10.2313
-10.242
-10.2525
-10.2628
-10.2728
-10.2827
-10.2922
-10.3015
-10.3105
-10.0498
-10.0499
-10.0501
-10.0507
-10.0519
-10.0541
-10.0574
-10.0619
-10.0674
-10.0741
-10.0816
-10.09
-10.099
-10.1087
-10.1187
-10.1291
-10.1397
-10.1505
-10.1614
-10.1723
-10.1832
-10.194
-10.2048
-10.2154
-10.2258
-10.2361
-10.2462
-10.256
-10.2657
-10.275
-10.2841
-10.2929
-10.3014
-10.0549
-10.055
-10.0549
-10.0549
-10.0556
-10.0571
-10.0598
-10.0636
-10.0685
-10.0746
-10.0816
-10.0895
-10.098
-10.1072
-10.1168
-10.1268
-10.137
-10.1474
-10.1579
-10.1685
-10.179
-10.1895
-10.1999
-10.2101
-10.2202
-10.23
-10.2397
-10.2491
-10.2583
-10.2672
-10.2758
-10.2842
-10.2922
-10.0601
-10.0602
-10.0596
-10.059
-10.0588
-10.0596
-10.0615
-10.0646
-10.069
-10.0744
-10.0809
-10.0883
-10.0964
-10.1051
-10.1144
-10.124
-10.1339
-10.1439
-10.1541
-10.1643
-10.1745
-10.1846
-10.1947
-10.2045
-10.2142
-10.2237
-10.233
-10.242
-10.2508
-10.2592
-10.2674
-10.2753
-10.2829
-10.0658
-10.0658
-10.0646
-10.0629
-10.0617
-10.0615
-10.0626
-10.0649
-10.0686
-10.0734
-10.0794
-10.0864
-10.0941
-10.1025
-10.1114
-10.1207
-10.1302
-10.14
-10.1499
-10.1598
-10.1697
-10.1795
-10.1892
-10.1987
-10.208
-10.2172
-10.2261
-10.2347
-10.243
-10.2511
-10.2589
-10.2663
-10.2734
-10.072
-10.072
-10.0698
-10.0667
-10.0642
-10.0628
-10.0628
-10.0643
-10.0673
-10.0716
-10.0771
-10.0836
-10.091
-10.0991
-10.1077
-10.1167
-10.126
-10.1356
-10.1452
-10.1548
-10.1644
-10.1739
-10.1833
-10.1925
-10.2016
-10.2104
-10.2189
-10.2272
-10.2352
-10.2428
-10.2502
-10.2572
-10.264
-10.0793
-10.0792
-10.0755
-10.0704
-10.0661
-10.0633
-10.0621
-10.0626
-10.0649
-10.0686
-10.0737
-10.0799
-10.087
-10.0949
-10.1033
-10.1121
-10.1212
-10.1305
-10.1399
-10.1493
-10.1587
-10.168
-10.1771
-10.186
-10.1948
-10.2033
-10.2115
-10.2194
-10.2271
-10.2344
-10.2414
-10.248
-10.2544
-10.0885
-10.0881
-10.0819
-10.074
-10.0674
-10.0627
-10.0601
-10.0596
-10.0611
-10.0644
-10.0692
-10.0751
-10.082
-10.0897
-10.098
-10.1066
-10.1156
-10.1248
-10.134
-10.1432
-10.1524
-10.1615
-10.1704
-10.1791
-10.1875
-10.1958
-10.2037
-10.2113
-10.2187
-10.2257
-10.2323
-10.2387
-10.2447
-10.101
-10.0997
-10.0895
-10.0775
-10.0678
-10.0607
-10.0565
-10.0549
-10.0558
-10.0586
-10.0631
-10.0689
-10.0757
-10.0833
-10.0915
-10.1001
-10.109
-10.1181
-10.1272
-10.1363
-10.1454
-10.1543
-10.163
-10.1715
-10.1798
-10.1877
-10.1954
-10.2028
-10.2099
-10.2166
-10.223
-10.2291
-10.2348
-10.1192
-10.1155
-10.0983
-10.0803
-10.0667
-10.0568
-10.0507
-10.0481
-10.0484
-10.0508
-10.0552
-10.0609
-10.0677
-10.0754
-10.0836
-10.0922
-10.1012
-10.1102
-10.1193
-10.1284
-10.1373
-10.1462
-10.1548
-10.1632
-10.1713
-10.1791
-10.1866
-10.1938
-10.2007
-10.2072
-10.2134
-10.2192
-10.2246
-10.1496
-10.1383
-10.1078
-10.081
-10.0625
-10.0495
-10.0416
-10.0381
-10.038
-10.0403
-10.0446
-10.0505
-10.0574
-10.0652
-10.0736
-10.0824
-10.0914
-10.1006
-10.1098
-10.1189
-10.1279
-10.1367
-10.1453
-10.1536
-10.1617
-10.1694
-10.1769
-10.184
-10.1907
-10.1971
-10.2032
-10.2089
-10.2142
-10.2045
-10.1762
-10.1211
-10.0803
-10.0541
-10.0364
-10.0265
-10.0226
-10.0225
-10.0252
-10.0302
-10.0368
-10.0444
-10.0529
-10.0618
-10.0711
-10.0805
-10.09
-10.0995
-10.1088
-10.118
-10.1269
-10.1356
-10.1439
-10.152
-10.1597
-10.1671
-10.1741
-10.1808
-10.187
-10.1929
-10.1985
-10.2036
-10.2876
-10.2245
-10.1399
-10.0864
-10.0477
-10.0196
-10.0045
-9.99796
-9.9962
-9.99811
-10.003
-10.0101
-10.0186
-10.028
-10.0381
-10.0485
-10.0591
-10.0697
-10.0803
-10.0906
-10.1007
-10.1105
-10.12
-10.1291
-10.1378
-10.1462
-10.1541
-10.1616
-10.1687
-10.1754
-10.1817
-10.1875
-10.1928
-10.4378
-10.2043
-10.0749
-10.0616
-10.0468
-10.0293
-10.0234
-10.023
-10.0232
-10.0247
-10.0279
-10.0326
-10.0382
-10.0446
-10.0517
-10.0594
-10.0674
-10.0756
-10.0839
-10.0923
-10.1007
-10.1089
-10.117
-10.1249
-10.1325
-10.1399
-10.1469
-10.1537
-10.1601
-10.1661
-10.1719
-10.1773
-10.1824
-11.3941
-10.1709
-9.58055
-9.50128
-9.51442
-9.55203
-9.60753
-9.66347
-9.71414
-9.76083
-9.80382
-9.84264
-9.87737
-9.90852
-9.93658
-9.96191
-9.98485
-10.0057
-10.0247
-10.0421
-10.0581
-10.0728
-10.0864
-10.099
-10.1106
-10.1213
-10.1313
-10.1405
-10.149
-10.1568
-10.164
-10.1705
-10.1764
-15.1632
-12.9603
-11.9291
-11.2928
-10.8657
-10.6149
-10.453
-10.3299
-10.2376
-10.1733
-10.1297
-10.1002
-10.0808
-10.0691
-10.0631
-10.0612
-10.0623
-10.0656
-10.0705
-10.0765
-10.0832
-10.0904
-10.0978
-10.1054
-10.1129
-10.1203
-10.1275
-10.1345
-10.1413
-10.1477
-10.1538
-10.1597
-10.1652
-1.24948
-5.34214
-7.46595
-8.23847
-8.6773
-9.04101
-9.30718
-9.48343
-9.60751
-9.70339
-9.77891
-9.83788
-9.88462
-9.92279
-9.95473
-9.98186
-10.0053
-10.0257
-10.0438
-10.0601
-10.0748
-10.0881
-10.1003
-10.1116
-10.1219
-10.1315
-10.1403
-10.1485
-10.156
-10.1629
-10.1693
-10.1751
-10.1804
-10.3477
-10.1317
-10.4213
-10.6909
-10.7949
-10.827
-10.8381
-10.8352
-10.825
-10.817
-10.818
-10.8311
-10.8576
-10.8968
-10.947
-11.0057
-11.0698
-11.1365
-11.203
-11.2669
-11.326
-11.3788
-11.4238
-11.4601
-11.4872
-11.5045
-11.512
-11.5094
-11.497
-11.4747
-11.4425
-11.4005
-11.3486
-11.2868
-11.2151
-11.1332
-11.041
-10.9383
-10.825
-10.7007
-10.5654
-10.4186
-10.2603
-10.0903
-9.90842
-9.71464
-9.50896
-9.2915
-9.06247
-8.8222
-8.57114
-8.30986
-8.03908
-7.75964
-7.47252
-7.17881
-6.87971
-6.57654
-6.27067
-5.96352
-5.65657
-5.35127
-5.04907
-4.75137
-4.45948
-4.17464
-3.89796
-3.6304
-3.37281
-3.12586
-2.89008
-2.66583
-2.45336
-2.25277
-2.06403
-1.88702
-1.7215
-1.56714
-1.42356
-1.29028
-1.16681
-1.05261
-0.947151
-0.849875
-0.76024
-0.677717
-0.60179
-0.531978
-0.467805
-0.408864
-0.354673
-0.304996
-0.259103
-0.217402
-0.177755
-0.143557
-0.106022
-0.0824336
-0.0340997
-0.0420747
-10.3945
-10.3938
-10.5881
-10.733
-10.7648
-10.7588
-10.7508
-10.7411
-10.732
-10.73
-10.7395
-10.7616
-10.7959
-10.8412
-10.8956
-10.9568
-11.0223
-11.0895
-11.156
-11.2195
-11.2783
-11.3306
-11.3752
-11.4112
-11.438
-11.4552
-11.4626
-11.4601
-11.4477
-11.4254
-11.3933
-11.3515
-11.2997
-11.2381
-11.1665
-11.0848
-10.9929
-10.8905
-10.7775
-10.6536
-10.5187
-10.3725
-10.2149
-10.0457
-9.86478
-9.67211
-9.46772
-9.25174
-9.02437
-8.78594
-8.53692
-8.27786
-8.00947
-7.73258
-7.44814
-7.15722
-6.861
-6.56075
-6.25781
-5.95357
-5.64947
-5.34694
-5.04738
-4.75216
-4.46258
-4.17984
-3.90505
-3.63916
-3.383
-3.13726
-2.90245
-2.67898
-2.46707
-2.26684
-2.0783
-1.90132
-1.73569
-1.5811
-1.43717
-1.30346
-1.17948
-1.06472
-0.958645
-0.860725
-0.770424
-0.687219
-0.610604
-0.5401
-0.475233
-0.415601
-0.360718
-0.310357
-0.26376
-0.221399
-0.180983
-0.146287
-0.107633
-0.0845569
-0.0330351
-0.0472328
-10.4073
-10.4221
-10.5093
-10.6106
-10.6673
-10.696
-10.7149
-10.725
-10.7282
-10.7313
-10.7395
-10.756
-10.7822
-10.8184
-10.8641
-10.9178
-10.9774
-11.0402
-11.1037
-11.1654
-11.223
-11.2747
-11.319
-11.3549
-11.3818
-11.3991
-11.4068
-11.4045
-11.3925
-11.3706
-11.3388
-11.2973
-11.2459
-11.1846
-11.1134
-11.0321
-10.9406
-10.8386
-10.7261
-10.6028
-10.4686
-10.3232
-10.1664
-9.99822
-9.81847
-9.62713
-9.42424
-9.20993
-8.98442
-8.74805
-8.50126
-8.24461
-7.9788
-7.70463
-7.42303
-7.13506
-6.84185
-6.54464
-6.24476
-5.94354
-5.6424
-5.34271
-5.04587
-4.75322
-4.46602
-4.18546
-3.91262
-3.64846
-3.3938
-3.14931
-2.91554
-2.69287
-2.48155
-2.28173
-2.09339
-1.91646
-1.75072
-1.59588
-1.45159
-1.31742
-1.19291
-1.07755
-0.970835
-0.872233
-0.781224
-0.697296
-0.619947
-0.548705
-0.4831
-0.422732
-0.367112
-0.316022
-0.268681
-0.225614
-0.184402
-0.149149
-0.109399
-0.0866956
-0.0321885
-0.0521505
-10.4113
-10.4359
-10.5039
-10.5976
-10.6611
-10.6908
-10.7053
-10.712
-10.7143
-10.7177
-10.7268
-10.7441
-10.7705
-10.8059
-10.8494
-10.8995
-10.9542
-11.0113
-11.0688
-11.1246
-11.1769
-11.2242
-11.2651
-11.2986
-11.3238
-11.3402
-11.3473
-11.345
-11.333
-11.3113
-11.2799
-11.2388
-11.1878
-11.127
-11.0563
-10.9755
-10.8845
-10.7832
-10.6713
-10.5488
-10.4154
-10.2709
-10.1152
-9.94818
-9.76975
-9.5799
-9.37868
-9.16622
-8.94274
-8.70857
-8.46417
-8.21007
-7.94697
-7.67564
-7.39701
-7.11209
-6.82201
-6.52795
-6.23121
-5.93312
-5.63502
-5.33828
-5.04426
-4.75426
-4.46953
-4.19124
-3.92044
-3.6581
-3.40501
-3.16186
-2.92918
-2.70738
-2.49671
-2.29732
-2.10923
-1.93236
-1.76652
-1.61145
-1.4668
-1.33217
-1.2071
-1.09113
-0.983733
-0.884415
-0.792661
-0.707968
-0.629843
-0.55782
-0.491432
-0.430282
-0.37388
-0.322015
-0.273889
-0.230071
-0.188032
-0.152168
-0.111321
-0.0888891
-0.0315251
-0.0568746
-10.4154
-10.4466
-10.5029
-10.5753
-10.6282
-10.6564
-10.6734
-10.6857
-10.6947
-10.7038
-10.7167
-10.7357
-10.7616
-10.7949
-10.8349
-10.8807
-10.9306
-10.983
-11.0358
-11.0873
-11.1356
-11.1793
-11.2169
-11.2474
-11.2702
-11.2845
-11.29
-11.2864
-11.2736
-11.2514
-11.2197
-11.1785
-11.1276
-11.0671
-10.9967
-10.9163
-10.8258
-10.7251
-10.6139
-10.4922
-10.3596
-10.2161
-10.0616
-9.89582
-9.71882
-9.53056
-9.3311
-9.12058
-8.89922
-8.66736
-8.42544
-8.17399
-7.91369
-7.64531
-7.36973
-7.08796
-6.80108
-6.51027
-6.21678
-5.92189
-5.62694
-5.33326
-5.04216
-4.75492
-4.47278
-4.19687
-3.92823
-3.6678
-3.4164
-3.17468
-2.94319
-2.72233
-2.51238
-2.31349
-2.1257
-1.94894
-1.78304
-1.62775
-1.48275
-1.34765
-1.22203
-1.10542
-0.997328
-0.897267
-0.804736
-0.719243
-0.640303
-0.567457
-0.500242
-0.438267
-0.381039
-0.328355
-0.279402
-0.234786
-0.191886
-0.155357
-0.113416
-0.0911397
-0.0310689
-0.0613558
-10.4184
-10.4508
-10.4979
-10.5554
-10.6027
-10.6333
-10.6541
-10.6697
-10.6819
-10.6935
-10.7076
-10.7266
-10.7515
-10.7827
-10.8197
-10.8618
-10.9075
-10.9554
-11.0037
-11.0507
-11.0949
-11.1347
-11.169
-11.1967
-11.217
-11.2293
-11.2333
-11.2284
-11.2146
-11.1916
-11.1594
-11.1178
-11.0667
-11.0061
-10.9357
-10.8556
-10.7654
-10.6651
-10.5545
-10.4334
-10.3017
-10.1592
-10.0057
-9.84125
-9.66568
-9.47903
-9.28137
-9.07282
-8.85364
-8.62414
-8.38475
-8.13601
-7.87858
-7.61321
-7.34077
-7.06223
-6.77865
-6.49118
-6.20104
-5.90948
-5.6178
-5.32729
-5.03924
-4.7549
-4.47547
-4.20207
-3.93572
-3.67735
-3.42774
-3.18757
-2.95737
-2.73756
-2.52842
-2.33011
-2.14268
-1.96608
-1.80016
-1.6447
-1.49937
-1.36383
-1.23765
-1.1204
-1.0116
-0.910775
-0.817441
-0.731118
-0.651329
-0.577622
-0.509541
-0.446697
-0.388601
-0.335054
-0.285232
-0.239772
-0.19598
-0.158727
-0.115699
-0.0934444
-0.0308518
-0.065532
-10.4197
-10.4514
-10.4923
-10.5401
-10.5824
-10.6129
-10.6351
-10.6524
-10.6669
-10.6807
-10.6965
-10.7161
-10.7404
-10.77
-10.8044
-10.8431
-10.885
-10.9286
-10.9724
-11.0151
-11.0551
-11.091
-11.1218
-11.1464
-11.1641
-11.1743
-11.1763
-11.17
-11.1549
-11.131
-11.0981
-11.056
-11.0046
-10.9437
-10.8733
-10.7932
-10.7033
-10.6033
-10.4932
-10.3727
-10.2417
-10.1001
-9.94768
-9.78442
-9.61027
-9.42521
-9.22934
-9.02278
-8.80579
-8.57867
-8.34186
-8.09589
-7.84138
-7.57909
-7.30987
-7.03465
-6.75447
-6.47046
-6.18378
-5.89567
-5.60738
-5.32018
-5.03531
-4.75401
-4.47744
-4.20669
-3.94276
-3.68656
-3.43888
-3.20038
-2.97159
-2.75294
-2.5447
-2.34705
-2.16006
-1.98369
-1.81781
-1.66221
-1.51659
-1.38062
-1.25391
-1.13602
-1.02651
-0.924911
-0.830758
-0.74358
-0.662913
-0.588313
-0.51933
-0.45558
-0.396575
-0.342122
-0.291391
-0.245041
-0.200326
-0.162289
-0.118184
-0.0958022
-0.0308993
-0.0693507
-10.4197
-10.4499
-10.4863
-10.5271
-10.5647
-10.5943
-10.6171
-10.6359
-10.6523
-10.6679
-10.6848
-10.7047
-10.7284
-10.7564
-10.7884
-10.824
-10.8622
-10.9018
-10.9416
-10.9801
-11.0161
-11.0483
-11.0756
-11.0972
-11.1121
-11.1198
-11.1198
-11.1118
-11.0953
-11.0702
-11.0363
-10.9935
-10.9415
-10.8803
-10.8097
-10.7295
-10.6396
-10.5399
-10.4301
-10.3101
-10.1798
-10.039
-9.88757
-9.7255
-9.55272
-9.36924
-9.17514
-8.97058
-8.75579
-8.53108
-8.29688
-8.05371
-7.8022
-7.54306
-7.27712
-7.00531
-6.72863
-6.44816
-6.16506
-5.8805
-5.59573
-5.31195
-5.0304
-4.75226
-4.47867
-4.21069
-3.94931
-3.69541
-3.44978
-3.21306
-2.98579
-2.76838
-2.56114
-2.36424
-2.17777
-2.0017
-1.83591
-1.68022
-1.53435
-1.39798
-1.27075
-1.15224
-1.04202
-0.939646
-0.844662
-0.756612
-0.675044
-0.599523
-0.529605
-0.464913
-0.404964
-0.349564
-0.297887
-0.250603
-0.204934
-0.16605
-0.120882
-0.0982131
-0.0312314
-0.0727674
-10.4187
-10.4472
-10.48
-10.5156
-10.5492
-10.5774
-10.6005
-10.6201
-10.6377
-10.6545
-10.6723
-10.6923
-10.7153
-10.7417
-10.7715
-10.8042
-10.839
-10.8749
-10.9108
-10.9454
-10.9776
-11.0061
-11.0301
-11.0486
-11.0607
-11.066
-11.0639
-11.054
-11.036
-11.0096
-10.9746
-10.9309
-10.8782
-10.8164
-10.7454
-10.665
-10.5751
-10.4754
-10.3659
-10.2463
-10.1165
-9.97648
-9.82602
-9.66508
-9.49362
-9.31169
-9.11935
-8.91676
-8.70416
-8.48187
-8.25031
-8.00997
-7.76148
-7.50553
-7.24293
-6.97459
-6.70147
-6.42462
-6.14517
-5.86427
-5.58309
-5.30284
-5.02469
-4.74981
-4.47929
-4.21419
-3.95545
-3.70396
-3.46046
-3.22562
-2.99995
-2.78389
-2.57772
-2.38165
-2.19576
-2.02004
-1.85441
-1.69867
-1.55259
-1.41586
-1.28813
-1.16901
-1.05809
-0.954944
-0.859123
-0.77019
-0.687703
-0.611238
-0.540359
-0.474694
-0.413766
-0.357384
-0.304723
-0.256463
-0.209812
-0.170018
-0.123803
-0.100677
-0.0318626
-0.0757456
-10.4167
-10.4436
-10.4734
-10.505
-10.5353
-10.562
-10.5848
-10.6049
-10.6232
-10.6408
-10.659
-10.6789
-10.7011
-10.7261
-10.7537
-10.7837
-10.8153
-10.8477
-10.8799
-10.9108
-10.9393
-10.9643
-10.985
-11.0004
-11.0098
-11.0127
-11.0084
-10.9967
-10.977
-10.9492
-10.9131
-10.8684
-10.8149
-10.7525
-10.681
-10.6003
-10.5102
-10.4106
-10.3012
-10.1819
-10.0527
-9.9133
-9.76371
-9.60384
-9.43368
-9.25324
-9.06263
-8.862
-8.65159
-8.43171
-8.20277
-7.96527
-7.71981
-7.46707
-7.20784
-6.94299
-6.67347
-6.40029
-6.12453
-5.84732
-5.5698
-5.29313
-5.01845
-4.74689
-4.47952
-4.21735
-3.96134
-3.71231
-3.47103
-3.23813
-3.01414
-2.79948
-2.59446
-2.39927
-2.21402
-2.03872
-1.87328
-1.71754
-1.57128
-1.43422
-1.30601
-1.18631
-1.0747
-0.970775
-0.874114
-0.784289
-0.700869
-0.623441
-0.551578
-0.484913
-0.422976
-0.365578
-0.311902
-0.262623
-0.214963
-0.174197
-0.126951
-0.103194
-0.0328017
-0.0782575
-10.4139
-10.4391
-10.4664
-10.4949
-10.5225
-10.5476
-10.57
-10.59
-10.6086
-10.6266
-10.645
-10.6646
-10.686
-10.7095
-10.7351
-10.7625
-10.7911
-10.8202
-10.8488
-10.8761
-10.9011
-10.9227
-10.9401
-10.9526
-10.9593
-10.9597
-10.9533
-10.9396
-10.9183
-10.8891
-10.8517
-10.806
-10.7516
-10.6886
-10.6166
-10.5356
-10.4453
-10.3456
-10.2363
-10.1173
-9.98856
-9.84984
-9.7011
-9.54228
-9.37338
-9.19443
-9.00552
-8.80683
-8.59859
-8.3811
-8.15479
-7.92012
-7.67769
-7.42817
-7.17231
-6.91097
-6.64505
-6.37555
-6.10352
-5.83002
-5.55618
-5.28312
-5.01194
-4.74374
-4.47956
-4.22039
-3.96713
-3.72063
-3.48161
-3.25071
-3.02844
-2.81524
-2.61141
-2.41715
-2.23259
-2.05773
-1.89252
-1.73682
-1.59041
-1.45303
-1.32438
-1.20409
-1.0918
-0.987111
-0.88961
-0.798886
-0.714522
-0.636115
-0.563248
-0.495559
-0.432587
-0.374142
-0.319419
-0.269084
-0.220389
-0.178591
-0.13033
-0.105764
-0.0340514
-0.0802853
-10.4104
-10.434
-10.4592
-10.4851
-10.5104
-10.5341
-10.5556
-10.5754
-10.594
-10.6121
-10.6303
-10.6494
-10.6699
-10.6919
-10.7155
-10.7405
-10.7662
-10.7922
-10.8175
-10.8414
-10.8629
-10.8812
-10.8955
-10.905
-10.9091
-10.907
-10.8984
-10.8828
-10.8598
-10.8291
-10.7905
-10.7437
-10.6885
-10.6247
-10.5522
-10.4708
-10.3803
-10.2805
-10.1714
-10.0527
-9.92441
-9.78634
-9.63843
-9.48066
-9.31302
-9.13555
-8.94835
-8.75159
-8.54551
-8.33042
-8.10672
-7.87489
-7.63549
-7.38918
-7.13669
-6.87885
-6.61654
-6.35073
-6.08241
-5.81264
-5.5425
-5.27306
-5.0054
-4.74058
-4.47961
-4.22345
-3.97299
-3.72904
-3.49232
-3.26344
-3.04294
-2.83123
-2.62862
-2.43533
-2.25148
-2.0771
-1.91216
-1.75651
-1.60997
-1.47231
-1.34321
-1.22236
-1.10939
-1.00394
-0.905591
-0.813961
-0.728643
-0.649243
-0.575354
-0.506621
-0.442589
-0.383068
-0.327272
-0.275844
-0.226091
-0.183199
-0.13394
-0.108387
-0.035608
-0.0818218
-10.4061
-10.4283
-10.4516
-10.4754
-10.4988
-10.521
-10.5416
-10.561
-10.5793
-10.5971
-10.615
-10.6335
-10.6529
-10.6735
-10.6952
-10.7177
-10.7408
-10.7637
-10.7859
-10.8065
-10.8248
-10.8399
-10.8511
-10.8577
-10.8591
-10.8546
-10.8438
-10.8263
-10.8016
-10.7694
-10.7295
-10.6816
-10.6255
-10.561
-10.488
-10.4062
-10.3154
-10.2156
-10.1066
-9.98821
-9.86035
-9.72293
-9.57588
-9.41917
-9.25279
-9.0768
-8.89132
-8.6965
-8.49259
-8.2799
-8.05882
-7.82982
-7.59344
-7.35034
-7.10122
-6.84688
-6.58818
-6.32604
-6.06144
-5.7954
-5.52895
-5.26313
-4.999
-4.73757
-4.47982
-4.22669
-3.97903
-3.73765
-3.50325
-3.27643
-3.05771
-2.84751
-2.64615
-2.45385
-2.27074
-2.09687
-1.9322
-1.77663
-1.62998
-1.49203
-1.36251
-1.2411
-1.12746
-1.02124
-0.922044
-0.829502
-0.743219
-0.662813
-0.587884
-0.518085
-0.452971
-0.392349
-0.335453
-0.282899
-0.232064
-0.188021
-0.137779
-0.111062
-0.0374615
-0.0828706
-10.401
-10.4219
-10.4436
-10.4656
-10.4873
-10.5081
-10.5279
-10.5465
-10.5644
-10.5818
-10.5991
-10.6168
-10.6351
-10.6542
-10.674
-10.6943
-10.7148
-10.7349
-10.754
-10.7715
-10.7866
-10.7987
-10.8069
-10.8108
-10.8095
-10.8026
-10.7896
-10.7701
-10.7437
-10.71
-10.6688
-10.6198
-10.5628
-10.4976
-10.424
-10.3418
-10.2508
-10.1509
-10.042
-9.92393
-9.79655
-9.65979
-9.51361
-9.35796
-9.19286
-9.01837
-8.83461
-8.64175
-8.44002
-8.22973
-8.01127
-7.7851
-7.55175
-7.31185
-7.06609
-6.81524
-6.56013
-6.30167
-6.04078
-5.77845
-5.51569
-5.25349
-4.99288
-4.73483
-4.48031
-4.2302
-3.98536
-3.74656
-3.51448
-3.28973
-3.07281
-2.86415
-2.66405
-2.47276
-2.2904
-2.11705
-1.95268
-1.79719
-1.65044
-1.51222
-1.38228
-1.26031
-1.146
-1.039
-0.93896
-0.845498
-0.758239
-0.676811
-0.600827
-0.529944
-0.463726
-0.401978
-0.343957
-0.290244
-0.238306
-0.193055
-0.141842
-0.113789
-0.0395962
-0.0834458
-10.3953
-10.415
-10.4352
-10.4556
-10.4758
-10.4954
-10.5141
-10.532
-10.5493
-10.566
-10.5827
-10.5995
-10.6166
-10.6342
-10.6521
-10.6702
-10.6882
-10.7056
-10.7218
-10.7364
-10.7485
-10.7576
-10.763
-10.7641
-10.7603
-10.751
-10.7359
-10.7144
-10.6863
-10.6511
-10.6086
-10.5585
-10.5005
-10.4346
-10.3604
-10.2778
-10.1866
-10.0866
-9.97785
-9.86006
-9.73316
-9.59709
-9.45177
-9.29721
-9.13341
-8.96044
-8.77841
-8.58751
-8.38797
-8.18009
-7.96425
-7.74091
-7.51058
-7.27388
-7.03147
-6.7841
-6.53258
-6.27777
-6.02058
-5.76195
-5.50285
-5.24427
-4.98716
-4.73249
-4.48118
-4.2341
-3.99208
-3.75585
-3.5261
-3.30342
-3.08831
-2.88119
-2.68237
-2.49209
-2.3105
-2.13767
-1.9736
-1.81821
-1.67137
-1.53288
-1.40251
-1.27999
-1.16501
-1.05724
-0.956333
-0.86194
-0.773694
-0.691231
-0.614174
-0.542187
-0.474845
-0.411948
-0.352778
-0.297875
-0.244811
-0.198298
-0.146125
-0.11657
-0.0419917
-0.0835716
-10.3889
-10.4074
-10.4264
-10.4454
-10.4643
-10.4826
-10.5004
-10.5174
-10.5339
-10.5499
-10.5657
-10.5815
-10.5974
-10.6134
-10.6295
-10.6455
-10.6612
-10.676
-10.6895
-10.7012
-10.7105
-10.7167
-10.7194
-10.7178
-10.7115
-10.7
-10.6827
-10.6594
-10.6295
-10.5928
-10.5489
-10.4977
-10.4388
-10.3721
-10.2973
-10.2143
-10.1229
-10.0229
-9.91427
-9.79679
-9.67039
-9.53501
-9.39059
-9.23712
-9.07463
-8.90318
-8.72291
-8.53398
-8.33663
-8.13116
-7.91795
-7.69743
-7.47012
-7.2366
-6.99753
-6.75363
-6.50567
-6.2545
-6.00098
-5.74603
-5.49058
-5.23558
-4.98196
-4.73065
-4.48254
-4.23847
-3.99925
-3.76559
-3.53817
-3.31756
-3.10426
-2.89867
-2.70113
-2.51187
-2.33105
-2.15876
-1.99499
-1.8397
-1.69277
-1.55401
-1.42322
-1.30014
-1.18448
-1.07593
-0.974155
-0.878822
-0.789574
-0.706061
-0.627916
-0.554806
-0.48632
-0.42225
-0.361909
-0.305786
-0.251575
-0.203748
-0.150618
-0.119405
-0.0446232
-0.0832805
-10.3819
-10.3994
-10.4171
-10.4349
-10.4525
-10.4698
-10.4865
-10.5026
-10.5182
-10.5334
-10.5483
-10.563
-10.5776
-10.5921
-10.6064
-10.6204
-10.6337
-10.6461
-10.657
-10.666
-10.6726
-10.6761
-10.6761
-10.672
-10.6633
-10.6496
-10.6302
-10.605
-10.5734
-10.5352
-10.4901
-10.4377
-10.3779
-10.3104
-10.2351
-10.1517
-10.06
-9.96003
-9.85149
-9.73433
-9.60845
-9.47377
-9.33025
-9.17789
-9.01672
-8.84682
-8.6683
-8.48135
-8.2862
-8.08315
-7.87255
-7.65486
-7.43055
-7.2002
-6.96445
-6.72399
-6.47957
-6.23201
-5.98213
-5.73083
-5.47901
-5.22756
-4.9774
-4.72942
-4.48448
-4.24341
-4.00696
-3.77587
-3.55076
-3.33221
-3.1207
-2.91665
-2.72038
-2.53213
-2.35208
-2.18032
-2.01686
-1.86167
-1.71464
-1.57562
-1.4444
-1.32076
-1.20441
-1.09507
-0.992419
-0.896133
-0.805872
-0.721294
-0.642043
-0.567793
-0.498142
-0.432878
-0.371342
-0.313972
-0.25859
-0.209399
-0.155313
-0.122297
-0.0474622
-0.0826124
-10.3743
-10.3908
-10.4074
-10.4241
-10.4406
-10.4567
-10.4724
-10.4876
-10.5023
-10.5166
-10.5304
-10.544
-10.5573
-10.5703
-10.5828
-10.5949
-10.606
-10.6161
-10.6245
-10.631
-10.6349
-10.6359
-10.6334
-10.6269
-10.6158
-10.5999
-10.5786
-10.5515
-10.5182
-10.4786
-10.4321
-10.3787
-10.318
-10.2497
-10.1738
-10.09
-9.99817
-9.89812
-9.78974
-9.67292
-9.54755
-9.41359
-9.271
-9.11976
-8.95993
-8.79157
-8.61482
-8.42985
-8.2369
-8.03626
-7.82828
-7.61338
-7.39206
-7.16487
-6.93241
-6.69537
-6.45446
-6.21046
-5.9642
-5.71651
-5.46827
-5.22034
-4.9736
-4.72892
-4.48712
-4.249
-4.01531
-3.78675
-3.56393
-3.34741
-3.13769
-2.93516
-2.74015
-2.55291
-2.37362
-2.20238
-2.03923
-1.88412
-1.73699
-1.5977
-1.46605
-1.34183
-1.22479
-1.11465
-1.01111
-0.913863
-0.822574
-0.736916
-0.656543
-0.581134
-0.5103
-0.44382
-0.381068
-0.322423
-0.265849
-0.215248
-0.160198
-0.125248
-0.0504777
-0.0816123
-10.3663
-10.3818
-10.3974
-10.413
-10.4284
-10.4435
-10.4582
-10.4724
-10.4862
-10.4994
-10.5122
-10.5246
-10.5366
-10.548
-10.5589
-10.569
-10.5781
-10.5859
-10.5921
-10.5961
-10.5976
-10.5961
-10.5912
-10.5824
-10.5691
-10.5511
-10.5278
-10.4989
-10.4641
-10.423
-10.3753
-10.3208
-10.2591
-10.1902
-10.1137
-10.0296
-9.93753
-9.83746
-9.72925
-9.61277
-9.48795
-9.35472
-9.21306
-9.06297
-8.90448
-8.73768
-8.5627
-8.37971
-8.18896
-7.99071
-7.78533
-7.57323
-7.35488
-7.13081
-6.90161
-6.66794
-6.43051
-6.19004
-5.94735
-5.70322
-5.45851
-5.21406
-4.9707
-4.72926
-4.49056
-4.25536
-4.02438
-3.79831
-3.57775
-3.36325
-3.15528
-2.95424
-2.76048
-2.57423
-2.39569
-2.22496
-2.06209
-1.90707
-1.75983
-1.62024
-1.48815
-1.36335
-1.24561
-1.13466
-1.03022
-0.931996
-0.839665
-0.752913
-0.671401
-0.594817
-0.52278
-0.455065
-0.391075
-0.33113
-0.27334
-0.221286
-0.165259
-0.128259
-0.0536364
-0.0803283
-10.3578
-10.3724
-10.3871
-10.4017
-10.4161
-10.4301
-10.4438
-10.4571
-10.4698
-10.482
-10.4938
-10.5049
-10.5156
-10.5255
-10.5348
-10.5431
-10.5502
-10.5559
-10.5598
-10.5615