/*--------------------------------*- C++ -*----------------------------------*\
| =========                 |                                                 |
| \\      /  F ield         | OpenFOAM: The Open Source CFD Toolbox           |
|  \\    /   O peration     | Version:  4.1                                   |
|   \\  /    A nd           | Web:      www.OpenFOAM.org                      |
|    \\/     M anipulation  |                                                 |
\*---------------------------------------------------------------------------*/
FoamFile
{
    version     2.0;
    format      ascii;
    class       volScalarField;
    location    "500";
    object      p;
}
// * * * * * * * * * * * * * * * * * * * * * * * * * * * * * * * * * * * * * //

dimensions      [0 2 -2 0 0 0 0];

internalField   nonuniform List<scalar> 
26785
(
61.0139
67.8969
72.8029
76.7264
80.7795
84.6574
88.2713
91.5988
94.3346
96.4048
97.6582
97.8943
97.5201
96.6213
95.0706
92.7228
89.4604
85.2366
80.0366
73.8603
66.7643
58.8976
50.4276
41.5138
32.3884
23.293
14.4887
6.27475
-0.940764
-6.34153
-9.21434
-9.52787
-7.40139
-3.63462
0.736406
5.04819
9.01267
12.5577
15.7124
18.5441
21.1287
23.5359
25.822
28.0262
30.1627
32.2182
34.1672
35.9327
37.4905
38.8695
39.9244
41.0519
42.0682
40.8461
38.0762
35.3937
33.2508
31.5219
30.0991
28.9106
27.9051
27.046
26.3092
25.682
25.1604
24.7466
24.4441
24.2545
24.176
24.2048
24.3334
24.5512
24.8464
25.2095
25.6355
26.1235
26.6733
27.2807
27.9371
28.6332
29.3626
30.1187
30.8856
31.6301
32.2993
32.8223
33.1818
33.3067
33.0153
32.2127
30.9024
29.0792
26.7519
23.9685
20.7708
17.3618
13.5546
10.3374
4.63693
5.66652
61.0464
67.8985
72.7957
76.7189
80.7719
84.6493
88.2655
91.5997
94.3424
96.4156
97.6719
97.9027
97.5247
96.6236
95.0711
92.7208
89.4547
85.227
80.0231
73.8421
66.741
58.8703
50.3965
41.4784
32.3498
23.251
14.4412
6.21906
-1.01315
-6.435
-9.31479
-9.63909
-7.5078
-3.7219
0.667682
4.99222
8.96427
12.5134
15.67
18.5023
21.0866
23.493
25.7781
27.9812
30.1172
32.173
34.1227
35.8877
37.4424
38.8086
39.8359
40.8925
41.8013
40.5813
37.8538
35.2764
33.1858
31.4804
30.0699
28.8889
27.8882
27.032
26.297
25.6707
25.1494
24.7356
24.4333
24.2439
24.166
24.1955
24.3251
24.5435
24.8388
25.2018
25.6273
26.1148
26.6642
27.2706
27.9244
28.6171
29.346
30.1072
30.8789
31.6115
32.2556
32.7664
33.1079
33.1908
32.8557
32.0227
30.6799
28.8216
26.4573
23.6365
20.4048
16.9702
13.1679
9.97156
4.49839
5.26605
61.0736
67.893
72.777
76.7008
80.755
84.6322
88.2531
91.5999
94.3552
96.4326
97.6939
97.9149
97.5309
96.6272
95.0711
92.7152
89.4415
85.2064
79.9958
73.8074
66.6984
58.8213
50.3422
41.4175
32.2844
23.1816
14.3652
6.13383
-1.12636
-6.60401
-9.5203
-9.87726
-7.73639
-3.90888
0.521141
4.87352
8.86217
12.4203
15.5814
18.4153
20.9993
23.4041
25.6871
27.8884
30.0235
32.0798
34.0312
35.7955
37.3448
38.6867
39.6662
40.6071
41.2781
40.0339
37.4756
35.081
33.0733
31.4064
30.0166
28.8483
27.8558
27.0051
26.2735
25.6492
25.129
24.7159
24.4141
24.2254
24.1481
24.1784
24.3085
24.5275
24.8229
25.1851
25.6093
26.0951
26.6425
27.2459
27.8947
28.5809
29.3049
30.0644
30.8314
31.549
32.1689
32.6523
32.9488
32.9633
32.5672
31.6826
30.2851
28.3669
25.9391
23.0539
19.7655
16.2865
12.5032
9.33221
4.3014
4.55656
61.0988
67.8958
72.7576
76.6785
80.7325
84.6085
88.2345
91.5977
94.3712
96.4535
97.7229
97.9281
97.5329
96.6226
95.0607
92.6984
89.4168
85.1745
79.9573
73.7608
66.6424
58.7583
50.273
41.3404
32.2028
23.0968
14.2744
6.03554
-1.25323
-6.80003
-9.76512
-10.1769
-8.04015
-4.16887
0.309333
4.69682
8.70747
12.2784
15.4461
18.2825
20.8663
23.269
25.5489
27.7473
29.8808
31.9376
33.8913
35.6544
37.1966
38.5045
39.4145
40.215
40.6275
39.3613
37.0389
34.8383
32.9239
31.3041
29.9415
28.7907
27.8099
26.967
26.2404
25.6189
25.1002
24.6878
24.3867
24.1991
24.123
24.1547
24.2861
24.5059
24.8015
25.1632
25.5858
26.069
26.6127
27.2112
27.854
28.5335
29.2505
30.0008
30.75
31.4418
32.0294
32.4724
32.7106
32.6512
32.1831
31.2306
29.7607
27.7634
25.2517
22.2803
18.9157
15.3726
11.615
8.4627
4.01053
3.64533
61.1137
67.896
72.7318
76.6494
80.7035
84.5775
88.2088
91.5915
94.3897
96.4743
97.7522
97.9353
97.5251
96.6079
95.0409
92.6727
89.3828
85.133
79.9087
73.7034
66.5747
58.6831
50.1917
41.251
32.1095
23.0019
14.1758
5.93348
-1.38156
-7.00984
-10.0395
-10.5214
-8.39942
-4.48444
0.0456299
4.47169
8.50684
12.092
15.2671
18.1063
20.6892
23.0885
25.3638
27.5577
29.6886
31.7455
33.7016
35.4632
36.9969
38.2617
39.0793
39.7281
39.9263
38.6654
36.5854
34.5602
32.7401
31.1734
29.8437
28.7147
27.7488
26.9159
26.1957
25.5781
25.0614
24.65
24.3499
24.1636
24.0891
24.1227
24.2556
24.4763
24.772
25.1329
25.5536
26.0333
26.5713
27.1623
27.7964
28.4673
29.1751
29.9113
30.6357
31.2947
31.8441
32.2387
32.411
32.273
31.7246
30.6919
29.1365
27.0468
24.4376
21.3659
17.9129
14.2922
10.568
7.4344
3.6497
2.65124
61.144
67.8949
72.6997
76.6139
80.668
84.5396
88.1756
91.5793
94.4075
96.4883
97.7752
97.9316
97.5039
96.5791
95.0071
92.6334
89.3358
85.0789
79.8482
73.6344
66.4956
58.5973
50.1007
41.1524
32.0089
22.902
14.075
5.83434
-1.49951
-7.212
-10.3216
-10.8825
-8.78558
-4.8318
-0.252088
4.21101
8.26949
11.868
15.0497
17.8903
20.4709
22.8649
25.1336
27.321
29.4475
31.5034
33.4618
35.2215
36.7459
37.9578
38.6658
39.1653
39.1957
37.9809
36.1241
34.2518
32.525
31.0164
29.7249
28.622
27.6742
26.8534
26.1411
25.5282
25.0141
24.6042
24.3054
24.1208
24.0485
24.0847
24.2196
24.4415
24.7371
25.097
25.5154
25.9908
26.522
27.1035
27.7267
28.386
29.0802
29.7964
30.4908
31.1113
31.6162
31.9561
32.0588
31.8393
31.2048
30.0828
28.4321
26.2398
23.5232
20.3404
16.7889
13.0783
9.39052
6.28291
3.21548
1.65008
61.2005
67.9012
72.6682
76.5771
80.6292
84.4962
88.1347
91.5584
94.4199
96.4886
97.7851
97.9111
97.4643
96.5325
94.9571
92.5794
89.2748
85.0116
79.7752
73.5535
66.4052
58.5015
50.0012
41.0466
31.9032
22.7998
13.9752
5.74132
-1.6033
-7.39605
-10.5996
-11.2443
-9.18039
-5.19429
-0.56987
3.92599
8.00436
11.6135
14.7994
17.6393
20.2154
22.6017
24.8611
27.0393
29.1592
31.2127
33.1724
34.93
36.4443
37.5937
38.1862
38.5543
38.4547
37.3186
35.6548
33.9171
32.2821
30.8354
29.5863
28.5131
27.5857
26.7788
26.0756
25.4683
24.9572
24.5489
24.2517
24.0693
23.9998
24.0394
24.1769
24.4003
24.696
25.0545
25.4699
25.94
26.4631
27.0338
27.6443
28.2896
28.9665
29.6578
30.3184
30.8969
31.3526
31.6331
31.6631
31.3595
30.6344
29.4165
27.6632
25.3611
22.5302
19.2284
15.5694
11.7564
8.10275
5.0388
2.71205
0.707164
61.2548
67.9048
72.6315
76.5359
80.5861
84.4472
88.086
91.5268
94.421
96.4711
97.7763
97.8685
97.4033
96.4667
94.8899
92.5094
89.1987
84.9304
79.6899
73.4615
66.305
58.3979
49.8959
40.9366
31.7957
22.6986
13.8797
5.65755
-1.68919
-7.55239
-10.8555
-11.5884
-9.56545
-5.55595
-0.894743
3.62712
7.72001
11.3356
14.5223
17.3586
19.9272
22.3029
24.5498
26.7159
28.8264
30.8753
32.8349
34.5899
36.0935
37.1723
37.6558
37.9183
37.7239
36.6798
35.1773
33.5604
32.0155
30.6332
29.4298
28.3888
27.4841
26.6928
25.9998
25.3987
24.8912
24.4851
24.19
24.0103
23.9444
23.9882
24.1289
24.3541
24.6499
25.0068
25.4186
25.8825
26.3961
26.9544
27.5503
28.1789
28.8349
29.4971
30.1206
30.6549
31.0582
31.2756
31.2305
30.8407
30.0213
28.7022
26.8404
24.4229
21.4725
18.0449
14.2683
10.3372
6.70647
3.7123
2.1349
-0.134448
61.3088
67.9148
72.5942
76.4918
80.5388
84.3927
88.03
91.4831
94.4036
96.4344
97.744
97.8002
97.3196
96.3815
94.8053
92.4238
89.1084
84.8364
79.5937
73.3603
66.1972
58.289
49.7878
40.8255
31.6898
22.6017
13.7913
5.5851
-1.75592
-7.67867
-11.0805
-11.9034
-9.92676
-5.90356
-1.21557
3.32363
7.42417
11.0409
14.2242
17.0533
19.611
21.9727
24.2038
26.3542
28.4522
30.4937
32.4514
34.2033
35.6953
36.6995
37.0903
37.2704
37.0149
36.061
34.6923
33.1861
31.7291
30.4124
29.2567
28.2502
27.3698
26.5953
25.9134
25.3193
24.8158
24.4125
24.12
23.9437
23.882
23.9309
24.0755
24.3028
24.599
24.9541
25.3617
25.8184
26.3216
26.8662
27.4459
28.0554
28.6874
29.3171
29.9007
30.3889
30.7377
30.8893
30.7672
30.2892
29.3723
27.9473
25.9723
23.4348
20.3603
16.8011
12.8943
8.82324
5.19238
2.29992
1.47921
-0.845185
61.3558
67.9259
72.5554
76.4449
80.4872
84.3324
87.9673
91.4259
94.3596
96.3809
97.6841
97.7038
97.2128
96.2766
94.7039
92.3233
89.0047
84.7311
79.4882
73.2518
66.0842
58.1779
49.6799
40.7165
31.5887
22.5118
13.7124
5.52594
-1.80281
-7.77398
-11.272
-12.1827
-10.2537
-6.22621
-1.52287
3.02352
7.12374
10.7355
13.9106
16.7284
19.2716
21.6157
23.8274
25.9585
28.0403
30.0714
32.0246
33.7728
35.2525
36.1834
36.503
36.618
36.3306
35.458
34.2016
32.7981
31.4261
30.1752
29.0685
28.0978
27.2431
26.4865
25.8166
25.23
24.7313
24.3313
24.0422
23.8702
23.8138
23.8684
24.0175
24.2473
24.5439
24.8971
25.3
25.7488
26.2404
26.7702
27.332
27.9203
28.5257
29.1206
29.662
30.1024
30.3952
30.4792
30.2785
29.7105
28.6932
27.1582
25.065
22.4032
19.201
15.5047
11.4523
7.21031
3.54163
0.789179
0.7442
-1.38448
61.4174
67.9351
72.5125
76.3944
80.431
84.2662
87.8982
91.3529
94.2861
96.3169
97.5926
97.5774
97.0826
96.1527
94.5864
92.2087
88.8885
84.6153
79.3749
73.1378
65.9682
58.0668
49.5748
40.6124
31.4951
22.4315
13.6451
5.48164
-1.83056
-7.83886
-11.4299
-12.4235
-10.539
-6.5152
-1.80874
2.73372
6.82484
10.425
13.5866
16.3888
18.9137
21.2365
23.4251
25.533
27.5949
29.6121
31.5579
33.3013
34.7687
35.6333
35.9036
35.9673
35.6692
34.8673
33.7074
32.3995
31.1094
29.9236
28.8664
27.9326
27.1046
26.3667
25.7094
25.1311
24.6378
24.2419
23.9571
23.7902
23.7401
23.8012
23.9553
24.188
24.4853
24.8365
25.2342
25.6744
26.1536
26.6674
27.21
27.7753
28.352
28.9106
29.4082
29.7992
30.0347
30.05
29.7695
29.1099
27.9893
26.34
24.124
21.3336
18.0004
14.1634
9.94751
5.49301
1.73215
-0.841798
-0.0931769
-1.57892
61.5069
67.9507
72.4707
76.343
80.3711
84.1944
87.822
91.2633
94.1851
96.2471
97.4654
97.4204
96.9298
96.0107
94.4533
92.0803
88.7602
84.4898
79.2547
73.0196
65.8508
57.9579
49.4749
40.5156
31.4116
22.3632
13.5914
5.45351
-1.83971
-7.87534
-11.5512
-12.6227
-10.7768
-6.76363
-2.06663
2.46012
6.53286
10.1142
13.257
16.0391
18.5418
20.8396
23.0014
25.0822
27.1204
29.1198
31.055
32.7923
34.2481
35.0582
35.2981
35.3236
35.0278
34.2868
33.2116
31.9929
30.7812
29.6593
28.6517
27.7552
26.9545
26.2361
25.5922
25.0228
24.5355
24.1446
23.8651
23.7044
23.6618
23.7299
23.8895
24.1256
24.4237
24.7728
25.1651
25.596
26.0621
26.5591
27.0812
27.6221
28.1684
28.6896
29.1426
29.4831
29.6601
29.6062
29.2449
28.4922
27.2653
25.4974
23.1536
20.2307
16.765
12.788
8.39165
3.67671
-0.241336
-2.60662
-1.09276
-1.30755
61.5959
67.9649
72.428
76.2913
80.3087
84.1176
87.7388
91.1574
94.0546
96.1704
97.3
97.2342
96.7558
95.8514
94.3053
91.9385
88.6205
84.3556
79.1288
72.8987
65.7339
57.8533
49.3824
40.4284
31.3404
22.3087
13.5527
5.44267
-1.83091
-7.88661
-11.6299
-12.776
-10.9624
-6.96594
-2.29122
2.20773
6.25254
9.80791
12.9262
15.6837
18.1603
20.4296
22.5609
24.6108
26.6213
28.5989
30.52
32.2498
33.6951
34.4656
34.6899
34.6904
34.4034
33.7151
32.7158
31.5804
30.4434
29.3839
28.4254
27.5663
26.7934
26.0949
25.465
24.9053
24.4251
24.0402
23.767
23.6134
23.5795
23.6553
23.8209
24.0607
24.3598
24.7068
25.0934
25.5148
25.9672
26.4465
26.9473
27.4624
27.9771
28.4604
28.8684
29.1576
29.2755
29.1518
28.7091
27.8618
26.5258
24.6345
22.1579
19.0989
15.5036
11.3984
6.82165
1.83221
-2.22611
-4.11083
-1.97761
-1.2555
61.6847
67.9816
72.3849
76.2391
80.2442
84.0363
87.6488
91.0357
93.8883
96.0818
97.0972
97.0213
96.5622
95.6761
94.143
91.7841
88.4703
84.2138
78.9986
72.7764
65.6189
57.7546
49.2991
40.3527
31.2837
22.27
13.5306
5.45036
-1.8048
-7.87491
-11.664
-12.8821
-11.0923
-7.11799
-2.47828
1.98075
5.988
9.51005
12.5982
15.3267
17.7735
20.0107
22.108
24.1232
26.102
28.0538
29.9571
31.6778
33.1144
33.8612
34.0813
34.0686
33.7934
33.1512
32.2212
31.1635
30.0977
29.0986
28.1884
27.3666
26.6217
25.9437
25.3284
24.7792
24.3069
23.9292
23.6634
23.5181
23.4939
23.578
23.7501
23.994
24.2944
24.6392
25.0201
25.4316
25.8699
26.3311
26.8097
27.2981
27.7803
28.2253
28.5886
28.8262
28.8844
28.691
28.1664
27.2232
25.7748
23.7553
21.1407
17.9444
14.2324
10.0421
5.36354
0.294694
-3.54209
-4.46208
-2.58134
-2.0533
61.7689
67.9992
72.3416
76.1863
80.1776
83.951
87.5529
90.8995
93.6825
95.9746
96.8594
96.7852
96.3511
95.4858
93.9674
91.6178
88.3107
84.0657
78.8652
72.654
65.5072
57.6635
49.2265
40.2903
31.2432
22.2487
13.5265
5.47794
-1.7617
-7.84237
-11.6554
-12.9415
-11.1645
-7.21688
-2.62461
1.78262
5.74283
9.22436
12.2769
14.972
17.3853
19.587
21.647
23.6237
25.5669
27.4887
29.3706
31.0802
32.5103
33.2494
33.4743
33.4575
33.1953
32.5948
31.7285
30.7434
29.7452
28.8046
27.9416
27.1568
26.4399
25.7828
25.1828
24.6449
24.1818
23.8124
23.5551
23.4191
23.4058
23.4987
23.6778
23.9261
24.228
24.5709
24.946
25.3474
25.7715
26.2141
26.6701
27.1313
27.5803
27.9867
28.3056
28.4921
28.4905
28.2275
27.621
26.5805
25.0164
22.8637
20.1068
16.7775
12.9865
8.83548
4.35033
-0.248882
-3.50735
-4.17889
-2.68005
-2.67439
61.8642
68.0123
72.2955
76.132
80.1085
83.8616
87.452
90.7505
93.4384
95.84
96.5896
96.5291
96.1242
95.2817
93.7793
91.441
88.1431
83.9128
78.73
72.5326
65.4001
57.5812
49.1662
40.2426
31.2208
22.2463
13.5414
5.52684
-1.70164
-7.79112
-11.6058
-12.9542
-11.1776
-7.26075
-2.72788
1.61609
5.52013
8.95412
11.9656
14.6231
16.9994
19.1624
21.1817
23.1164
25.02
26.9077
28.7645
30.4609
31.8867
32.6329
32.8701
32.8557
32.6073
32.0454
31.2384
30.321
29.3871
28.5028
27.6859
26.9375
26.2487
25.6128
25.0287
24.5032
24.0504
23.6907
23.4429
23.3172
23.3159
23.4181
23.6046
23.8577
24.1614
24.5026
24.872
25.2635
25.6731
26.0971
26.5302
26.9637
27.3795
27.7472
28.0223
28.1582
28.0973
27.7652
27.0768
25.938
24.2546
21.9637
19.0627
15.6184
11.8405
7.99317
4.13076
0.189506
-2.60055
-3.15248
-2.24535
-2.71242
61.9859
68.027
72.2487
76.0762
80.0362
83.7679
87.3466
90.5901
93.1698
95.6678
96.2905
96.2559
95.8832
95.0652
93.5802
91.2548
87.9693
83.7567
78.5942
72.4132
65.2987
57.509
49.1193
40.2111
31.2178
22.2643
13.5767
5.59863
-1.62449
-7.7233
-11.5168
-12.9197
-11.1306
-7.24858
-2.78661
1.48328
5.32247
8.70224
11.6675
14.2833
16.6192
18.7404
20.7158
22.6046
24.4647
26.314
28.1424
29.8232
31.2473
32.0139
32.2699
32.2619
32.0283
31.5027
30.7509
29.8971
29.0242
28.194
27.4218
26.7093
26.0484
25.4342
24.8668
24.3547
23.9137
23.5648
23.3276
23.2133
23.2251
23.3367
23.5312
23.7895
24.0954
24.4351
24.7989
25.1806
25.576
25.9814
26.3917
26.7976
27.1803
27.5096
27.7414
27.8275
27.7083
27.3079
26.538
25.2998
23.4937
21.0605
18.0195
14.5075
10.9165
7.6588
4.44276
1.05212
-1.31236
-1.89341
-1.85008
-2.70531
62.1053
68.0399
72.2027
76.0197
79.9606
83.6696
87.2374
90.4191
92.8945
95.4476
95.9666
95.9687
95.6299
94.8374
93.3711
91.0611
87.7911
83.5992
78.4591
72.2969
65.2043
57.448
49.0868
40.1968
31.2358
22.3041
13.6333
5.69504
-1.52986
-7.64111
-11.3905
-12.8371
-11.0226
-7.18021
-2.80001
1.38575
5.15198
8.47121
11.3854
13.9556
16.2478
18.3242
20.2524
22.0917
23.9041
25.7106
27.5072
29.1701
30.5953
31.3943
31.6737
31.6752
31.4572
30.9661
30.2663
29.4721
28.6572
27.8789
27.1501
26.4728
25.8398
25.2476
24.6977
24.2004
23.7725
23.4357
23.2101
23.1084
23.1341
23.2554
23.4582
23.7223
24.0307
24.3692
24.7278
25.1
25.4813
25.8684
26.2561
26.6346
26.985
27.2764
27.4655
27.5029
27.3267
26.8594
26.0086
24.6706
22.7385
20.1613
16.9977
13.515
10.3073
7.72325
5.00704
1.95796
-0.228335
-0.960014
-1.53713
-2.75868
62.2203
68.0523
72.1574
75.9629
79.882
83.5668
87.1252
90.2418
92.5968
95.1706
95.6241
95.67
95.3659
94.5999
93.1536
90.8612
87.6101
83.4417
78.3258
72.185
65.1183
57.3993
49.0696
40.2006
31.2758
22.367
13.7121
5.818
-1.41698
-7.54668
-11.2295
-12.7053
-10.8535
-7.05622
-2.76799
1.32448
5.01034
8.26312
11.1215
13.6424
15.8879
17.9165
19.7942
21.5801
23.3406
25.0997
26.8614
28.504
29.9337
30.7754
31.0815
31.0944
30.893
30.4353
29.7845
29.0465
28.2866
27.5582
26.8714
26.2286
25.6235
25.0539
24.5224
24.041
23.6277
23.3044
23.0913
23.0033
23.0432
23.1747
23.3864
23.6566
23.9679
24.3056
24.6595
25.0224
25.3902
25.7595
26.1251
26.4766
26.7957
27.0502
27.1974
27.1873
26.9557
26.4233
25.493
24.0549
21.9945
19.2771
16.0336
12.7094
10.0491
8.07851
5.51199
2.74941
0.696871
-0.213873
-1.17672
-2.74675
62.3295
68.0644
72.1133
75.9063
79.8008
83.4598
87.0106
90.0614
92.2474
94.8369
95.2688
95.3621
95.0929
94.3538
92.929
90.6568
87.4281
83.286
78.1957
72.0786
65.0418
57.3637
49.0682
40.2235
31.339
22.454
13.8139
5.96955
-1.28469
-7.44193
-11.0373
-12.5232
-10.6237
-6.8779
-2.69105
1.29995
4.89875
8.07967
10.8779
13.3459
15.5416
17.5196
19.3436
21.072
22.7762
24.4834
26.207
27.8275
29.2655
30.1583
30.4931
30.5191
30.335
29.9097
29.3054
28.6205
27.9129
27.2323
26.5862
25.9773
25.4002
24.8537
24.3416
23.8776
23.4805
23.1718
22.9722
22.899
22.9526
23.0952
23.3163
23.5932
23.9079
24.2452
24.5946
24.9489
25.3038
25.656
26
26.3252
26.6141
26.8331
26.9395
26.8833
26.5987
26.0032
24.9953
23.4577
21.2684
18.4266
15.1711
12.1355
10.2155
8.42636
5.98239
3.48706
1.5159
0.478848
-0.77479
-2.66375
62.4421
68.0713
72.0696
75.8502
79.7175
83.3487
86.8946
89.8726
91.8469
94.4555
94.9047
95.047
94.8126
94.1006
92.6987
90.4494
87.2464
83.1332
78.0701
71.9792
64.9765
57.3422
49.0829
40.2659
31.4261
22.5664
13.9395
6.15205
-1.13122
-7.32848
-10.8197
-12.2904
-10.3342
-6.6472
-2.57022
1.31218
4.81798
7.92209
10.656
13.0678
15.2109
17.1354
18.9024
20.5692
22.2127
23.8634
25.5463
27.1429
28.5936
29.5441
29.908
29.9488
29.7826
29.3891
28.8289
28.1943
27.5364
26.9017
26.2951
25.7197
25.1706
24.6478
24.1563
23.711
23.3317
23.0388
22.8536
22.796
22.863
23.0174
23.2486
23.5327
23.8512
24.1886
24.534
24.8803
25.2231
25.559
25.882
26.1821
26.4419
26.6267
26.6942
26.5936
26.2585
25.6026
24.5199
22.8844
20.5699
17.6368
14.4359
11.9266
10.5573
8.71008
6.46556
4.15902
2.24355
1.10907
-0.388052
-2.54756
62.5747
68.0764
72.0263
75.7947
79.6325
83.2342
86.7782
89.6824
91.4202
94.0391
94.5348
94.727
94.5268
93.8419
92.464
90.2401
87.0664
82.9845
77.95
71.8882
64.9237
57.3351
49.114
40.3286
31.5379
22.705
14.0898
6.36824
-0.954049
-7.20744
-10.5841
-12.0082
-9.98755
-6.36681
-2.40704
1.36071
4.76836
7.79121
10.4571
12.8096
14.8974
16.7656
18.4724
20.0735
21.6518
23.2416
24.8813
26.4529
27.9209
28.9339
29.3264
29.3833
29.2352
28.8729
28.3548
27.7679
27.1575
26.5668
25.9986
25.4562
24.9355
24.4373
23.9673
23.5425
23.1823
22.9062
22.736
22.695
22.7753
22.9421
23.1839
23.4758
23.7985
24.1363
24.4784
24.8174
25.1491
25.4694
25.7724
26.0489
26.2807
26.4327
26.4633
26.3207
25.9381
25.2251
24.0713
22.3408
19.9125
16.9292
13.895
12.1539
10.8328
9.00967
6.93368
4.74968
2.87715
1.65223
-0.033827
-2.40202
62.7008
68.079
71.9846
75.7402
79.5463
83.1164
86.6628
89.4964
91.0025
93.6019
94.1617
94.4042
94.2375
93.5792
92.2263
90.0301
86.8888
82.8409
77.8368
71.8072
64.8846
57.3431
49.1616
40.4122
31.6749
22.8712
14.2659
6.62117
-0.749708
-7.07969
-10.329
-11.6739
-9.58736
-6.04005
-2.20347
1.44469
4.7498
7.68744
10.2819
12.5721
14.6021
16.4116
18.055
19.5866
21.0954
22.6202
24.2144
25.7602
27.2507
28.3289
28.7484
28.8226
28.6924
28.3608
27.8828
27.3416
26.7764
26.2282
25.6974
25.1877
24.6957
24.2228
23.7758
23.3729
23.0334
22.7748
22.6201
22.5962
22.6902
22.8698
23.1227
23.4228
23.7502
24.0891
24.4285
24.7612
25.0824
25.388
25.6723
25.927
26.1321
26.2527
26.2487
26.0666
25.6402
24.8739
23.6538
21.8336
19.3121
16.3002
13.7075
12.5089
11.0872
9.33093
7.36979
5.27414
3.42845
2.11637
0.294414
-2.21974
62.8168
68.0796
71.9447
75.6871
79.4588
82.9958
86.549
89.309
90.6312
93.1577
93.7876
94.0806
93.9465
93.3143
91.9872
89.8206
86.7145
82.7028
77.7315
71.7373
64.8603
57.3667
49.2261
40.5173
31.8377
23.0661
14.4688
6.91369
-0.514009
-6.94766
-10.0438
-11.2783
-9.13667
-5.67066
-1.96183
1.56291
4.76186
7.61084
10.1308
12.3562
14.3261
16.0746
17.6518
19.1102
20.5456
22.0018
23.5482
25.0678
26.5859
27.7303
28.174
28.2662
28.1537
27.8521
27.4129
26.9152
26.3934
25.8862
25.3919
24.9149
24.452
24.0055
23.5826
23.2032
22.8859
22.6452
22.5064
22.5003
22.608
22.8009
23.0654
23.3744
23.707
24.0475
24.3849
24.712
25.0235
25.3153
25.5828
25.8175
25.9972
26.0883
26.0519
25.8335
25.3673
24.5521
23.272
21.3715
18.7758
15.7986
13.9207
12.8076
11.3528
9.65901
7.77421
5.74514
3.91167
2.51651
0.597777
-2.00426
62.9239
68.0792
71.9067
75.6356
79.37
82.8727
86.4373
89.1367
90.3406
92.7194
93.4145
93.7581
93.6557
93.0489
91.7482
89.6127
86.5442
82.571
77.6348
71.6797
64.8517
57.4064
49.3077
40.6447
32.027
23.291
14.6982
7.24784
-0.242647
-6.81688
-9.73047
-10.8181
-8.63929
-5.26249
-1.68468
1.71384
4.80376
7.56116
10.0038
12.1622
14.0702
15.7559
17.2645
18.6466
20.0051
21.3893
22.8853
24.3787
25.9308
27.1394
27.6026
27.7133
27.6184
27.3466
26.9448
26.489
26.0089
25.5413
25.0829
24.6384
24.2053
23.7863
23.3889
23.0345
22.7405
22.5181
22.3958
22.4079
22.5291
22.7359
23.0125
23.3308
23.6693
24.012
24.3481
24.6701
24.9728
25.2525
25.5053
25.7208
25.8766
25.9405
25.8744
25.6231
25.1218
24.2624
22.9304
20.9636
18.2854
15.5612
14.2776
13.0889
11.6263
9.98295
8.14723
6.16682
4.33464
2.85967
0.87054
-1.76486
63.0265
68.0751
71.8705
75.5859
79.28
82.7479
86.3235
89.0039
90.1704
92.3034
93.0448
93.4383
93.3667
92.7849
91.5108
89.4077
86.3786
82.4459
77.5474
71.6351
64.8596
57.4627
49.407
40.7952
32.2433
23.5453
14.9527
7.62477
0.0678091
-6.68833
-9.40238
-10.3003
-8.1008
-4.8195
-1.37471
1.8958
4.87449
7.5379
9.90109
11.9906
13.8353
15.4567
16.8946
18.1979
19.4764
20.7855
22.2284
23.6973
25.2905
26.5566
27.0333
27.1633
27.0858
26.8438
26.4783
26.063
25.623
25.1939
24.771
24.3592
23.9565
23.5662
23.1956
22.8678
22.5982
22.3943
22.289
22.3198
22.4537
22.6753
22.9644
23.2926
23.6375
23.983
24.3183
24.6359
24.9311
25.2008
25.4403
25.6374
25.7709
25.8101
25.7174
25.4369
24.9054
24.0074
22.6348
20.6127
17.8504
15.6782
14.6141
13.3667
11.904
10.2949
8.48819
6.54092
4.7021
3.14952
1.10833
-1.50827
63.1399
68.0693
71.8359
75.5379
79.1889
82.6213
86.2002
88.9123
90.2004
91.9256
92.6813
93.1222
93.0809
92.5239
91.2768
89.2069
86.2185
82.3281
77.4698
71.6043
64.8846
57.5362
49.5245
40.9697
32.4853
23.8251
15.2312
8.04506
0.421032
-6.55491
-9.07133
-9.73612
-7.52767
-4.3456
-1.03462
2.10694
4.9729
7.54044
9.82234
11.8415
13.6219
15.1783
16.5443
17.7666
18.9622
20.1935
21.5814
23.0298
24.6702
25.9824
26.4649
26.6153
26.5554
26.3432
26.0132
25.6373
25.2362
24.8448
24.4569
24.0781
23.7067
23.3463
23.0039
22.704
22.46
22.2749
22.1871
22.2364
22.3821
22.6194
22.9215
23.2601
23.6119
23.9607
24.2957
24.6101
24.8996
25.1607
25.3873
25.5674
25.681
25.6981
25.5819
25.2762
24.7197
23.7891
22.3918
20.3013
17.5571
16.001
14.938
13.6397
12.1862
10.5906
8.79817
6.87112
5.0197
3.39129
1.31013
-1.23907
63.2428
68.0624
71.8036
75.4912
79.0972
82.4915
86.066
88.8362
90.3818
91.5812
92.3282
92.8109
92.7994
92.2673
91.0475
89.0116
86.0649
82.2181
77.4026
71.5878
64.9268
57.6272
49.6612
41.1686
32.7502
24.126
15.5372
8.50802
0.821575
-6.40969
-8.75106
-9.13938
-6.92606
-3.84449
-0.667074
2.34543
5.09779
7.56812
9.7674
11.7153
13.4311
14.9221
16.2153
17.3551
18.4656
19.6171
20.9496
22.3832
24.0784
25.4171
25.8964
26.0685
26.0265
25.8445
25.5496
25.212
24.8488
24.4943
24.1414
23.796
23.4568
23.1276
22.8147
22.5443
22.3271
22.1607
22.0907
22.1574
22.315
22.5688
22.8843
23.2335
23.5927
23.9453
24.281
24.5937
24.8787
25.1316
25.3461
25.5111
25.6072
25.6049
25.4686
25.1419
24.5658
23.61
22.2057
20.0044
17.5249
16.3737
15.2504
13.9072
12.4674
10.8677
9.07988
7.16208
5.29366
3.59109
1.47686
-0.962734
63.3315
68.0551
71.7738
75.4455
79.0055
82.3557
85.9261
88.7535
90.4869
91.246
91.989
92.5052
92.5231
92.0162
90.8246
88.8233
85.9189
82.1167
77.3463
71.586
64.9863
57.7362
49.8182
41.3914
33.0341
24.4477
15.877
9.00814
1.27358
-6.23686
-8.45461
-8.52601
-6.301
-3.31947
-0.274583
2.60949
5.248
7.62031
9.73611
11.6124
13.2635
14.6896
15.9097
16.9662
17.9897
19.0604
20.3394
21.7685
23.5238
24.8561
25.3279
25.5221
25.4987
25.3474
25.0872
24.7872
24.4613
24.1433
23.8254
23.5139
23.2077
22.9111
22.6291
22.3897
22.2004
22.0529
22.0002
22.0832
22.2535
22.5239
22.8532
23.2133
23.5801
23.9373
24.2749
24.5867
24.8675
25.1128
25.317
25.469
25.55
25.5311
25.3779
25.0349
24.4437
23.4736
22.072
19.7368
17.7313
16.7496
15.5404
14.1766
12.7408
11.126
9.33563
7.41735
5.52885
3.75444
1.6118
-0.68598
63.4089
68.0483
71.7463
75.4006
78.9134
82.2126
85.7883
88.6647
90.4119
90.9115
91.6632
92.2055
92.2524
91.7716
90.609
88.6428
85.7814
82.0249
77.3016
71.5992
65.0633
57.8639
49.9966
41.6368
33.3355
24.7957
16.2505
9.53671
1.79798
-5.99143
-8.17539
-7.91294
-5.65575
-2.7735
0.140577
2.8975
5.42248
7.69648
9.72845
11.533
13.1201
14.4821
15.6295
16.6021
17.5371
18.5303
19.763
21.2077
22.9989
24.2942
24.7603
24.9755
24.9719
24.8518
24.6262
24.3633
24.0741
23.7923
23.5096
23.2326
22.9606
22.6978
22.4482
22.241
22.0808
21.952
21.9154
22.0145
22.1988
22.4852
22.8286
23.1997
23.5747
23.9372
24.2773
24.5883
24.8655
25.1049
25.3005
25.4414
25.5095
25.4768
25.3102
24.9554
24.3535
23.3841
21.9675
19.5711
18.0669
17.1077
15.8068
14.4493
13.0005
11.3656
9.56625
7.63906
5.72862
3.88641
1.72176
-0.415414
63.4773
68.0414
71.7207
75.3563
78.8202
82.0617
85.6515
88.5718
90.2199
90.5825
91.3492
91.9121
91.9877
91.5341
90.4015
88.4711
85.6533
81.9434
77.2694
71.6277
65.1577
58.011
50.1966
41.9036
33.658
25.1739
16.6483
10.0991
2.47007
-5.62487
-7.88443
-7.30536
-4.99167
-2.20914
0.576406
3.20807
5.62039
7.7963
9.74448
11.4778
13.0019
14.3011
15.376
16.2645
17.1147
18.0414
19.2422
20.71
22.4894
23.7313
24.194
24.4287
24.4461
24.3575
24.1666
23.9405
23.6878
23.4421
23.1949
22.9531
22.7163
22.4887
22.2726
22.0989
21.9689
21.8583
21.8363
21.9519
22.1515
22.4533
22.8109
23.193
23.5764
23.9446
24.2874
24.5985
24.8736
25.1083
25.2969
25.4284
25.486
25.4422
25.2653
24.9033
24.2947
23.3449
21.8681
19.5628
18.4597
17.4265
16.0569
14.719
13.2426
11.5864
9.77129
7.82864
5.89573
3.99242
1.81616
-0.156445
63.5503
68.0356
71.6968
75.3114
78.726
81.9047
85.5011
88.4741
89.9787
90.2624
91.0459
91.6248
91.7293
91.3042
90.2027
88.3091
85.536
81.8736
77.2503
71.6714
65.2697
58.1782
50.4184
42.193
34.008
25.5777
17.0633
10.7274
3.35797
-5.22551
-7.56594
-6.6862
-4.31011
-1.62872
1.03124
3.54007
5.84112
7.9196
9.78448
11.4474
12.9096
14.1471
15.1506
15.9608
16.737
17.6088
18.7901
20.2643
21.9909
23.1693
23.6291
23.8818
23.9216
23.8647
23.7085
23.519
23.3028
23.0934
22.8821
22.6763
22.4756
22.2845
22.1032
21.964
21.8649
21.7717
21.7626
21.8945
22.112
22.4285
22.8
23.1931
23.5851
23.9594
24.3059
24.6183
24.8922
25.1234
25.3062
25.4303
25.4793
25.427
25.243
24.878
24.2674
23.3534
21.7703
19.7043
18.8645
17.6927
16.3041
14.977
13.4648
11.7868
9.94963
7.98745
6.03299
4.07798
1.904
0.0868386
63.6124
68.0316
71.6751
75.2648
78.6303
81.745
85.3223
88.3628
89.7257
89.9544
90.7527
91.3437
91.4772
91.0818
90.0129
88.1577
85.4302
81.8158
77.2444
71.7301
65.3986
58.365
50.6613
42.508
34.3898
25.9957
17.5013
11.4475
4.32616
-4.99223
-7.22526
-6.03532
-3.6137
-1.03438
1.50369
3.89262
6.08425
8.06645
9.84891
11.442
12.8434
14.0216
14.9594
15.7001
16.4092
17.2361
18.4046
19.8602
21.5027
22.6101
23.0667
23.3357
23.3986
23.3734
23.252
23.0991
22.9197
22.7467
22.5718
22.4027
22.2393
22.0859
21.9404
21.8364
21.7684
21.6917
21.6936
21.8404
22.0799
22.4107
22.7955
23.1999
23.6014
23.9827
24.3337
24.648
24.9215
25.1502
25.3286
25.4469
25.4894
25.431
25.2428
24.8784
24.2723
23.3981
21.6902
19.9663
19.2421
17.9113
16.5513
15.215
13.6652
11.9643
10.1002
8.11695
6.14341
4.14788
1.99104
0.31141
63.6614
68.0299
71.6547
75.2162
78.5327
81.5853
85.1118
88.2455
89.4849
89.663
90.4688
91.0688
91.2315
90.8671
89.8325
88.0175
85.3359
81.7698
77.2524
71.8054
65.5457
58.5707
50.9238
42.8504
34.8012
26.417
17.9804
12.2334
5.12976
-4.74502
-6.80954
-5.33561
-2.90285
-0.427366
1.99302
4.26537
6.34988
8.23726
9.93791
11.4619
12.8046
13.9271
14.8038
15.4753
16.1266
16.9265
18.0787
19.4876
21.0234
22.0554
22.5078
22.7911
22.8776
22.8836
22.7972
22.681
22.5388
22.4026
22.2645
22.1329
22.0078
21.8931
21.7844
21.7156
21.6787
21.6174
21.6294
21.7861
22.0536
22.3992
22.7977
23.2146
23.6262
24.0152
24.371
24.6878
24.9616
25.1888
25.3641
25.4781
25.5159
25.4536
25.2642
24.9026
24.3094
23.461
21.6486
20.3117
19.56
18.0983
16.7934
15.4271
13.8422
12.1165
10.2224
8.21897
6.23006
4.20566
2.07891
0.515114
63.701
68.0316
71.6341
75.166
78.4328
81.4267
84.8798
88.1856
89.2741
89.3945
90.1935
90.7999
90.9922
90.6599
89.6618
87.8882
85.2527
81.7358
77.2748
71.8986
65.7143
58.7994
51.2111
43.2235
35.236
26.8405
18.5247
13.0416
5.78737
-4.10011
-6.19794
-4.5445
-2.16148
0.19979
2.50036
4.65792
6.63779
8.43203
10.0517
11.5076
12.7925
13.86
14.6732
15.2828
15.894
16.6761
17.7976
19.1349
20.551
21.5065
21.9534
22.2489
22.3589
22.3958
22.3444
22.2652
22.1604
22.0614
21.9606
21.8672
21.7814
21.7062
21.635
21.6014
21.5953
21.5494
21.5719
21.73
22.0312
22.3946
22.8083
23.2382
23.6601
24.0568
24.4178
24.7377
25.0126
25.2392
25.4126
25.5237
25.5585
25.4943
25.306
24.949
24.3778
23.5261
21.6715
20.6899
19.7912
18.2761
17.0207
15.6101
13.9946
12.2414
10.3167
8.29572
6.29589
4.25351
2.16584
0.696554
63.7326
68.037
71.6123
75.1144
78.3304
81.2697
84.6364
88.1531
89.1029
89.1562
89.9256
90.537
90.7591
90.4603
89.5009
87.7694
85.1804
81.7141
77.3116
72.0095
65.9046
59.0543
51.533
43.6401
35.7
27.2867
19.1552
13.8558
6.39245
-3.17688
-5.32601
-3.65456
-1.37705
0.86105
3.03681
5.07758
6.95239
8.65282
10.1901
11.5768
12.8043
13.8156
14.5653
15.1253
15.7085
16.4705
17.5439
18.7917
20.084
20.9645
21.4046
21.71
21.843
21.9099
21.8938
21.8516
21.7849
21.7233
21.6602
21.6058
21.5601
21.525
21.4917
21.4933
21.5171
21.4891
21.5262
21.6755
22.0127
22.3983
22.8279
23.2707
23.703
24.1075
24.4742
24.7977
25.0744
25.3015
25.474
25.5835
25.6167
25.5522
25.3671
25.0159
24.4755
23.5818
21.7855
21.0794
19.9447
18.4527
17.2245
15.7629
14.1213
12.3383
10.3848
8.34976
6.34357
4.29253
2.24836
0.854984
63.769
68.0458
71.589
75.0617
78.2262
81.1128
84.3879
88.0014
88.9537
88.9477
89.6637
90.28
90.5322
90.2686
89.3495
87.6607
85.1194
81.705
77.3627
72.1376
66.115
59.3338
51.893
44.1061
36.2006
27.7811
19.8795
14.6641
6.94311
-2.17157
-4.27822
-2.69239
-0.553162
1.55637
3.60718
5.53042
7.29713
8.90122
10.3554
11.6731
12.8429
13.7926
14.4804
14.9999
15.5586
16.292
17.3024
18.4512
19.6215