/*--------------------------------*- C++ -*----------------------------------*\
| =========                 |                                                 |
| \\      /  F ield         | OpenFOAM: The Open Source CFD Toolbox           |
|  \\    /   O peration     | Version:  4.1                                   |
|   \\  /    A nd           | Web:      www.OpenFOAM.org                      |
|    \\/     M anipulation  |                                                 |
\*---------------------------------------------------------------------------*/
FoamFile
{
    version     2.0;
    format      ascii;
    class       surfaceScalarField;
    location    "500";
    object      phi;
}
// * * * * * * * * * * * * * * * * * * * * * * * * * * * * * * * * * * * * * //

dimensions      [0 3 -1 0 0 0 0];

internalField   nonuniform List<scalar> 
52920
(
1991.53
36.0228
1951.94
39.5902
1903.74
48.1991
1846.73
57.004
1781.84
64.8868
1710.71
71.1241
1642.84
67.8662
1595.21
47.6313
1581.81
13.3928
1610.01
-28.2056
1681.85
-71.8451
1782.24
-100.392
1910.19
-127.948
2070.92
-160.737
2267.46
-196.546
2498.7
-231.241
2760.22
-261.518
3046.66
-286.441
3353.08
-306.428
3674.85
-321.767
4007.12
-332.27
4345.43
-338.319
4685.83
-340.396
5023.89
-338.062
5354.99
-331.105
5673.5
-318.51
5969.9
-296.397
6227
-257.101
6419.16
-192.162
6521.7
-102.545
6521.75
-0.0497749
6418.93
102.822
6236.67
182.258
6008.39
228.281
5759.66
248.727
5505.43
254.225
5253.13
252.301
5005.82
247.31
4764.23
241.583
4527.85
236.387
4295.36
232.484
4064.94
230.416
3834.39
230.551
3601.28
233.114
3363.23
238.048
3118.24
244.989
2864.94
253.295
2602.13
262.807
2327.83
274.302
2036.4
291.422
1708.06
328.343
1256.53
451.523
590.281
666.25
-124.812
715.091
-624.793
499.977
-909.98
285.185
-1099.34
189.359
-1241.08
141.733
-1355.16
114.08
-1451.81
96.6456
-1537.07
85.2588
-1614.46
77.3981
-1685.64
71.1766
-1750.76
65.113
-1808.89
58.1346
-1858.55
49.6572
-1898.2
39.6503
-1926.75
28.548
-1943.73
16.9755
-1949.13
5.40333
-1943.42
-5.71252
-1927.29
-16.129
-1901.22
-26.0744
-1865.15
-36.0703
-1818.5
-46.6523
-1760.25
-58.2432
-1689.21
-71.0439
-1604.01
-85.2051
-1502.95
-101.061
-1383.92
-119.03
-1244.66
-139.257
-1083.14
-161.523
-897.012
-186.125
-682.095
-214.918
-420.357
-261.739
-90.0961
-330.262
285.644
-375.741
693.562
-407.919
1163.58
-470.018
1703.86
-540.283
2308.3
-604.443
2972.03
-663.725
3689.39
-717.359
4452.19
-762.8
5251.31
-799.12
6073.29
-821.984
6916.44
-843.145
7758.33
-841.89
8662.29
-903.968
-874.706
1953.32
66.9047
1918.31
74.5983
1874.18
92.3211
1820.64
110.539
1758.96
126.57
1691.52
138.561
1627.33
132.042
1579.72
95.2391
1559.21
33.8974
1577.3
-46.3003
1648.51
-143.054
1767.39
-219.28
1933.04
-293.602
2141.21
-368.904
2383.09
-438.437
2649.77
-497.924
2934.3
-546.043
3232.16
-584.305
3540.5
-614.774
3856.79
-638.057
4177.92
-653.397
4500.72
-661.121
4822.13
-661.815
5138.36
-654.287
5445.24
-637.992
5738.32
-611.585
6011.43
-569.514
6253.61
-499.284
6444.32
-382.87
6554.56
-212.787
6559.9
-5.38824
6453.09
209.625
6259.14
376.209
6015.62
471.805
5751.51
512.838
5483.64
522.087
5220.18
515.765
4964.22
503.266
4716.19
489.608
4475.09
477.492
4239.07
468.5
4005.78
463.711
3772.51
463.816
3536.43
469.196
3294.83
479.648
3045.42
494.395
2786.71
511.998
2517.33
532.191
2234.92
556.71
1935.64
590.696
1591.28
672.706
1096.39
946.41
415.832
1346.81
-192.094
1323.02
-560.118
867.999
-799.808
524.873
-972.594
362.142
-1106.55
275.687
-1216.05
223.582
-1309.35
189.936
-1391.48
167.391
-1465.38
151.297
-1532.35
138.142
-1592.43
125.193
-1644.82
110.52
-1688.31
93.1523
-1721.83
73.1682
-1744.74
51.4612
-1756.93
29.1588
-1758.46
6.93312
-1749.51
-14.6603
-1730.31
-35.3316
-1700.94
-55.4425
-1661.11
-75.9028
-1610.13
-97.6324
-1547.06
-121.318
-1470.73
-147.376
-1379.66
-176.267
-1271.97
-208.757
-1145.3
-245.705
-996.914
-287.639
-823.384
-335.054
-619.015
-390.495
-370.157
-463.776
-69.8772
-562.02
269.962
-670.102
657.213
-762.993
1097.66
-848.362
1573.54
-945.9
2083.46
-1050.21
2632.04
-1153.03
3220.47
-1252.15
3848.1
-1344.99
4511.75
-1426.45
5207.86
-1495.24
5927.25
-1541.37
6673.37
-1589.27
7422.9
-1591.42
8244.36
-1725.43
-1669.32
1899.33
94.9705
1866.04
107.883
1823.21
135.151
1770.68
163.066
1710.25
187
1644.75
204.057
1581.58
195.204
1530.4
146.417
1502.95
61.3443
1521.72
-65.0756
1611.18
-232.519
1758.62
-366.723
1947.55
-482.541
2163.69
-585.039
2398.05
-672.799
2646.82
-746.695
2908.36
-807.589
3181.62
-857.57
3465.4
-898.555
3757.71
-930.367
4055.45
-951.138
4355.3
-960.975
4654.1
-960.61
4947.97
-948.162
5232.91
-922.935
5505.06
-883.738
5760.07
-824.519
5991.15
-730.373
6184.8
-576.514
6317.61
-345.605
6360.51
-48.2886
6291.57
278.57
6126.2
541.574
5900.92
697.083
5647.26
766.5
5384.91
784.432
5124.18
776.494
4869.53
757.919
4622.09
737.043
4381.15
718.435
4144.88
704.774
3910.76
697.827
3675.89
698.68
3437.2
707.887
3191.77
725.075
2937.12
749.049
2671.7
777.413
2393.67
810.223
2101.74
848.638
1793.55
898.889
1416.75
1049.49
865.502
1497.66
241.498
1970.81
-199.625
1764.14
-469.474
1137.84
-679.416
734.813
-844.699
527.423
-977.745
408.731
-1087.93
333.769
-1182.08
284.08
-1264.9
250.211
-1339.34
225.738
-1406.84
205.634
-1467.57
185.921
-1520.82
163.772
-1565.41
137.743
-1600.15
107.91
-1624.2
75.5078
-1637.15
42.1072
-1638.87
8.64725
-1629.56
-23.9665
-1609.55
-55.3453
-1578.89
-86.1051
-1537.29
-117.503
-1484.17
-150.752
-1418.68
-186.81
-1339.65
-226.409
-1245.52
-270.397
-1134.28
-319.994
-1003.41
-376.576
-849.671
-441.378
-668.767
-515.959
-454.41
-604.853
-198.782
-719.404
96.9002
-857.704
424.464
-997.667
787.136
-1125.66
1186.06
-1247.28
1614.46
-1374.3
2069.97
-1505.72
2553.15
-1636.21
3063.4
-1762.4
3599.55
-1881.13
4158.67
-1985.57
4738.74
-2075.31
5332.07
-2134.7
5945.52
-2202.72
6558.57
-2204.47
7237.42
-2404.27
-2342.51
1836.84
120.744
1804.96
139.76
1762.91
177.196
1710.77
215.208
1650.79
246.977
1585.81
269.034
1521.47
259.536
1465.66
202.22
1434.58
92.4253
1457.57
-88.0759
1555.78
-330.73
1702.15
-513.097
1875.23
-655.625
2066.34
-776.153
2274.02
-880.482
2498.7
-971.379
2739.71
-1048.6
2995.31
-1113.18
3263.32
-1166.57
3540.9
-1207.95
3824.33
-1234.57
4109.93
-1246.57
4394.37
-1245.06
4673.75
-1227.54
4944.12
-1193.31
5201.97
-1141.58
5443.79
-1066.34
5665.13
-951.719
5857.33
-768.71
6002.63
-490.91
6072.59
-118.251
6036.89
314.273
5902.88
675.587
5703.89
896.072
5471.12
999.268
5224.95
1030.59
4976.61
1024.84
4731.37
1003.16
4491.01
977.405
4255.2
954.24
4022.36
937.616
3790.07
930.116
3555.45
933.301
3315.39
947.948
3066.9
973.558
2807.43
1008.52
2535.37
1049.47
2248.45
1097.14
1948.07
1149.02
1627.07
1219.88
1204.42
1472.15
627.966
2074.11
118.129
2480.65
-175.198
2057.46
-390.445
1353.09
-584.619
928.986
-747.014
689.815
-880.494
542.209
-991.62
444.893
-1086.63
379.087
-1170.27
333.854
-1245.63
301.098
-1314.24
274.237
-1376.29
247.974
-1431.02
218.494
-1477.08
183.804
-1513.11
143.935
-1538.08
100.483
-1551.48
55.5036
-1553.08
10.2497
-1543.16
-33.8864
-1522.08
-76.4337
-1489.89
-118.289
-1446.42
-160.979
-1391.17
-205.996
-1323.38
-254.606
-1241.87
-307.915
-1145.08
-367.195
-1030.96
-434.116
-896.977
-510.555
-739.957
-598.398
-555.619
-700.297
-338.545
-821.928
-85.579
-972.371
199.911
-1143.19
513.396
-1311.15
855.264
-1467.53
1225.57
-1617.59
1620.44
-1769.17
2036.87
-1922.15
2473.27
-2072.61
2927.32
-2216.46
3396.45
-2350.25
3876.58
-2465.71
4364.76
-2563.49
4852.33
-2622.27
5344.91
-2695.3
5824.39
-2683.95
6350.59
-2930.47
-2867.89
1770.2
145.282
1739.46
170.501
1698.21
218.442
1646.67
266.749
1587.14
306.503
1521.82
334.344
1454.97
326.385
1394.09
263.092
1357.87
128.646
1373.39
-103.601
1455.94
-413.285
1575.47
-632.628
1718.64
-798.805
1884.61
-942.124
2074.05
-1069.92
2285.87
-1183.2
2517.05
-1279.78
2764.1
-1360.23
3023.76
-1426.23
3292.62
-1476.81
3566.58
-1508.53
3841.81
-1521.81
4115.08
-1518.33
4382.54
-1495
4640.49
-1451.26
4885.83
-1386.92
5115.77
-1296.29
5327.46
-1163.41
5515.78
-957.025
5667.87
-643.002
5757.03
-207.41
5746.97
324.327
5638.89
783.661
5464.08
1070.88
5253.12
1210.23
5026.01
1257.71
4793.78
1257.06
4561.8
1235.14
4332.02
1207.18
4104.36
1181.9
3877.42
1164.56
3648.96
1158.58
3416.2
1166.05
3176.11
1188.04
2925.7
1223.97
2662.37
1271.85
2384.36
1327.48
2089.39
1392.11
1781.75
1456.66
1441.45
1560.18
974.172
1939.43
424.074
2624.21
49.9
2854.82
-144.546
2251.91
-333.057
1541.6
-516.9
1112.83
-675.174
848.087
-806.677
673.71
-916.779
554.993
-1011.38
473.686
-1095.13
417.606
-1171.06
377.028
-1240.64
343.811
-1303.97
311.304
-1360.12
274.641
-1407.54
231.226
-1444.64
181.031
-1470.2
126.045
-1483.57
68.8763
-1484.48
11.1521
-1473.33
-45.0379
-1450.6
-99.1623
-1416.46
-152.43
-1370.84
-206.598
-1313.39
-263.449
-1243.4
-324.595
-1159.75
-391.564
-1060.87
-466.079
-944.737
-550.248
-808.881
-646.411
-650.266
-757.014
-465.068
-885.496
-248.922
-1038.08
-1.38867
-1219.9
272.723
-1417.31
570.825
-1609.26
893.699
-1790.41
1240.91
-1964.8
1609.25
-2137.52
1995.15
-2308.05
2395.32
-2472.77
2805.82
-2626.96
3222.49
-2766.92
3639.87
-2883.08
4052.91
-2976.54
4450.95
-3020.3
4834.45
-3078.8
5187.58
-3037.09
5560.14
-3303.03
-3232.15
1683.18
171.382
1654.42
199.262
1616.21
256.653
1568.06
314.892
1511.16
363.396
1446.2
399.3
1377.01
395.575
1311.86
328.235
1266.49
174.015
1258.16
-95.2825
1306.45
-461.573
1393.73
-719.914
1516.66
-921.741
1673.85
-1099.31
1860.7
-1256.77
2071.67
-1394.18
2301.31
-1509.42
2545.12
-1604.04
2799.63
-1680.74
3061.41
-1738.6
3326.39
-1773.51
3590.94
-1786.36
3852.16
-1779.54
4106.47
-1749.31
4350.54
-1695.33
4581.79
-1618.18
4798.06
-1512.56
4997.65
-1363
5178.3
-1137.68
5331.96
-796.665
5434.67
-310.12
5445.28
313.718
5358.49
870.444
5204.28
1225.09
5013.11
1401.4
4804.45
1466.37
4588.77
1472.75
4371.02
1452.88
4153.05
1425.15
3934.8
1400.15
3715.01
1384.34
3491.59
1382
3261.9
1395.74
3022.97
1426.96
2771.82
1475.13
2505.81
1537.85
2222.85
1610.44
1921.23
1693.73
1606.49
1771.4
1241.67
1925
748.557
2432.54
270.273
3102.49
20.3434
3104.75
-120.795
2393.05
-294.84
1715.64
-468.494
1286.48
-619.944
999.535
-747.161
800.926
-854.819
662.649
-948.258
567.124
-1031.78
501.123
-1108.17
453.42
-1178.73
414.368
-1243.38
375.95
-1300.94
332.201
-1349.58
279.866
-1387.42
218.864
-1413.04
151.666
-1425.72
81.5591
-1425.22
10.6517
-1412.21
-58.0487
-1387.34
-124.032
-1350.92
-188.858
-1303.02
-254.501
-1243.4
-323.06
-1171.47
-396.535
-1086.12
-476.911
-985.819
-566.379
-868.598
-667.469
-732.08
-782.929
-573.438
-915.656
-389.438
-1069.5
-176.997
-1250.52
63.413
-1460.31
327.213
-1681.11
612.574
-1894.62
920.454
-2098.29
1250.36
-2294.7
1599.28
-2486.44
1963.13
-2671.91
2337.35
-2846.98
2716.59
-3006.21
3095.11
-3145.45
3465.93
-3253.9
3821.02
-3331.63
4146.88
-3346.16
4434.93
-3366.85
4672.02
-3274.18
4893.18
-3524.19
-3427.94
1613.71
202.682
1580.27
232.697
1538.65
298.273
1488.51
365.026
1430.12
421.789
1363.14
466.274
1292.18
466.534
1224.18
396.229
1162.65
235.538
1115.78
-48.4141
1128.18
-473.984
1200.86
-792.599
1326.78
-1047.66
1492.31
-1264.84
1685.47
-1449.93
1898.71
-1607.43
2126.74
-1737.46
2365.75
-1843.05
2612.9
-1927.89
2865.2
-1990.9
3118.79
-2027.09
3370.33
-2037.91
3617.32
-2026.53
3856.45
-1988.44
4084.75
-1923.64
4300.1
-1833.53
4500.79
-1713.25
4685.89
-1548.1
4855.33
-1307.12
5005.35
-946.691
5116.01
-420.775
5142.77
286.959
5073.32
939.884
4936.44
1361.97
4762.6
1575.24
4570.75
1658.21
4370.64
1672.86
4166.69
1656.83
3960.45
1631.39
3751.81
1608.79
3539.6
1596.56
3321.84
1599.75
3096.03
1621.55
2859.28
1663.71
2608.56
1725.85
2341.14
1805.27
2054.49
1897.09
1747.81
2000.41
1425.25
2093.95
1036.05
2314.2
547.184
2921.4
166.351
3483.33
10.4169
3260.68
-107.267
2510.73
-270.176
1878.55
-432.354
1448.66
-575.248
1142.43
-697.075
922.752
-801.697
767.268
-893.686
659.111
-976.845
584.281
-1053.65
530.229
-1125.17
485.881
-1191.06
441.842
-1249.85
390.992
-1299.36
329.372
-1337.39
256.893
-1362.39
176.663
-1373.66
92.8281
-1371.11
8.09971
-1355.76
-73.4018
-1328.44
-151.349
-1289.61
-227.686
-1239.5
-304.611
-1177.99
-384.577
-1104.5
-470.017
-1018.01
-563.402
-917.001
-667.393
-799.559
-784.912
-663.437
-919.052
-506.059
-1073.03
-324.687
-1250.87
-117.011
-1458.19
115.624
-1692.95
369.181
-1934.66
643.056
-2168.49
938.321
-2393.55
1254.4
-2610.78
1588.43
-2820.47
1936.06
-3019.55
2291.92
-3202.83
2649.72
-3364.01
3002.43
-3498.16
3341.7
-3593.16
3655.89
-3645.82
3928.16
-3618.43
4137.1
-3575.8
4273.16
-3410.24
4351.73
-3602.75
-3456.02
1549.17
236.682
1512.92
268.945
1467.98
343.203
1414
419.008
1351.23
484.551
1280.48
537.023
1208.17
538.833
1136.03
468.369
1050.87
320.689
964.015
38.4364
959.88
-469.854
1043.52
-876.241
1185.73
-1189.87
1360.4
-1439.51
1555.07
-1644.61
1764.81
-1817.17
1986.25
-1958.89
2216.58
-2073.38
2453.54
-2164.86
2694.37
-2231.73
2935.21
-2267.93
3172.88
-2275.58
3405.11
-2258.76
3628.73
-2212.07
3841.01
-2135.93
4040.17
-2032.69
4224.82
-1897.89
4394.5
-1717.78
4550.65
-1463.28
4693.11
-1089.15
4806.73
-534.393
4845.15
248.537
4789.4
995.63
4666.99
1484.38
4508.21
1734.02
4331.39
1835.03
4145.47
1858.77
3954.29
1848.01
3759.11
1826.57
3559.74
1808.16
3355.06
1801.24
3143.25
1811.56
2921.93
1842.87
2688.25
1897.39
2439.14
1974.95
2171.7
2072.71
1882.89
2185.89
1572.79
2310.51
1241.94
2424.81
835.652
2720.49
382.203
3374.85
103.09
3762.44
6.80529
3356.96
-102.378
2619.91
-254.111
2030.28
-404.096
1598.64
-537.97
1276.3
-654.132
1038.91
-755.506
868.64
-845.878
749.483
-928.548
666.948
-1005.65
607.331
-1077.96
558.188
-1144.85
508.728
-1204.47
450.618
-1254.28
379.181
-1291.82
294.423
-1315.45
200.3
-1324.64
102.016
-1319.56
3.01183
-1301.59
-91.3727
-1271.72
-181.217
-1230.56
-268.843
-1178.48
-356.696
-1115.43
-447.632
-1040.89
-544.556
-953.845
-650.445
-852.827
-768.412
-736.001
-901.739
-601.245
-1053.81
-446.173
-1228.11
-268.281
-1428.76
-66.0718
-1660.4
158.233
-1917.26
401.79
-2178.22
665.149
-2431.85
949.301
-2677.71
1253.66
-2915.14
1575.56
-3142.37
1910.62
-3354.6
2253.12
-3545.34
2596.39
-3707.28
2932.55
-3834.32
3252.2
-3912.8
3540.07
-3933.7
3775.57
-3853.93
3921.25
-3721.48
3973.05
-3462.03
3917.34
-3547.04
-3318.44
1485.86
273.73
1447.34
307.463
1399.97
390.576
1342.57
476.405
1275.35
551.763
1201.12
611.25
1127.17
612.779
1046.72
548.813
936.29
431.115
824.914
149.806
828.37
-473.314
932.638
-980.512
1084.84
-1342.08
1258.41
-1613.09
1446.6
-1832.8
1647.86
-2018.43
1859.93
-2170.97
2080.25
-2293.7
2306.59
-2391.2
2536.11
-2461.25
2764.79
-2496.61
2989.46
-2500.26
3208.03
-2477.33
3417.32
-2421.36
3614.72
-2333.33
3798.72
-2216.69
3968.1
-2067.26
4122.68
-1872.37
4264.9
-1605.5
4397.33
-1221.59
4509.74
-646.795
4555.48
202.796
4509.99
1041.12
4399.52
1594.85
4253.83
1879.71
4090.39
1998.47
3917.26
2031.9
3737.71
2027.56
3552.71
2011.56
3362.05
1998.82
3164.69
1998.59
2958.98
2017.28
2742.66
2059.19
2512.96
2127.09
2266.73
2221.18
2000.85
2338.58
1711.78
2474.96
1400.16
2622.14
1062.03
2762.93
651.922
3130.6
257.533
3769.24
68.1913
3951.78
2.74628
3422.4
-103.217
2725.88
-243.292
2170.35
-381.313
1736.66
-506.454
1401.44
-616.994
1149.45
-715.012
966.656
-803.617
838.087
-885.633
748.963
-962.836
684.534
-1035.68
631.028
-1103.19
576.237
-1163.15
510.574
-1212.63
428.663
-1248.96
330.755
-1270.58
221.922
-1277.17
108.597
-1269.25
-4.90438
-1248.57
-112.053
-1216.21
-213.578
-1172.92
-312.136
-1119.16
-410.453
-1054.96
-511.83
-979.847
-619.675
-892.823
-737.469
-792.468
-868.767
-677.021
-1017.19
-544.454
-1186.38
-392.517
-1380.04
-218.948
-1602.33
-22.9613
-1856.39
192.848
-2133.07
426.884
-2412.26
680.45
-2685.42
954.483
-2951.74
1248.48
-3209.14
1559.98
-3453.86
1884.72
-3679.34
2217.01
-3877.64
2550.17
-4040.44
2875.93
-4160.09
3184.31
-4221.18
3456.99
-4206.38
3668.83
-4065.76
3763.63
-3816.29
3743.39
-3441.79
3540.92
-3344.58
-3000.78
1424.26
313.878
1383.62
348.1
1333.97
440.228
1273.33
537.037
1202.13
622.965
1125.02
688.355
1047.43
690.362
953.58
642.656
822.599
562.089
707.643
264.751
730.814
-496.491
848.573
-1098.28
999.098
-1492.6
1164.3
-1778.29
1342.82
-2011.32
1534.67
-2210.29
1737.54
-2373.84
1948.45
-2504.62
2165.02
-2607.76
2384.28
-2680.52
2602.02
-2714.34
2815.09
-2713.33
3021.56
-2683.8
3218.16
-2617.97
3402.36
-2517.53
3572.8
-2387.14
3728.32
-2222.78
3868.85
-2012.9
3997.41
-1734.06
4118.6
-1342.78
4226.52
-754.721
4275.51
153.803
4236.98
1079.65
4136.14
1695.69
4001.83
2014.01
3850.32
2149.98
3688.7
2193.52
3519.68
2196.58
3344.02
2187.23
3161.5
2181.33
2971.26
2188.83
2771.8
2216.73
2561.06
2269.93
2336.33
2351.82
2094.44
2463.07
1832.02
2601
1545.07
2761.91
1234.35
2932.86
892.148
3105.13
493.983
3528.76
170.532
4092.68
50.2039
4072.11
-3.90376
3476.51
-107.215
2829.19
-235.732
2298.87
-362.652
1863.58
-479.616
1518.4
-584.678
1254.51
-679.287
1061.26
-765.996
924.795
-847.178
830.143
-924.235
761.589
-997.272
704.063
-1064.95
643.915
-1124.66
570.281
-1173.14
477.145
-1207.61
365.22
-1226.68
240.986
-1230.28
112.198
-1219.43
-15.754
-1196.09
-135.396
-1161.39
-248.28
-1116.2
-357.321
-1061.09
-465.568
-996.129
-576.791
-920.886
-694.918
-834.415
-823.941
-735.336
-967.846
-621.941
-1130.58
-492.261
-1316.06
-344.143
-1528.16
-175.637
-1770.84
13.4998
-2045.53
220.823
-2340.39
445.782
-2637.22
690.102
-2929.74
954.765
-3216.4
1239.4
-3493.77
1541.73
-3756.2
1857.67
-3995.27
2181.67
-4201.64
2507.21
-4365.97
2826.05
-4478.92
3128.06
-4523.19
3392.86
-4471.19
3588.34
-4261.24
3636.71
-3864.65
3534.9
-3339.98
3122.42
-2932.1
-2453.76
1349.07
357.176
1309.43
387.735
1261.48
488.18
1201.26
597.259
1128.87
695.352
1049.81
767.408
965.878
774.289
856.638
751.893
712.651
706.071
608.303
369.089
651.726
-539.917
773.265
-1219.82
915.885
-1635.23
1070.92
-1933.32
1239.93
-2180.34
1423.14
-2393.5
1617.58
-2568.28
1819.74
-2706.78
2027.15
-2815.17
2236.91
-2890.28
2444.66
-2922.1
2647.34
-2916.01
2843.17
-2879.63
3028.72
-2803.52
3201.42
-2690.23
3360.05
-2545.76
3503.38
-2366.12
3631.25
-2140.77
3747.01
-1849.82
3856.61
-1452.38
3957.68
-855.792
4006.18
105.301
3971.42
1114.4
3878.08
1789.03
3753.65
2138.44
3612.84
2290.8
3461.63
2344.73
3302.18
2356.03
3135.12
2354.29
2960.32
2356.14
2777.09
2372.06
2584.18
2409.64
2379.73
2474.37
2161.17
2570.38
1925.34
2698.9
1668.65
2857.69
1386.77
3043.78
1080.16
3239.47
738.919
3446.37
366.896
3900.79
114.607
4344.97
40.5153
4146.2
-12.9336
3529.96
-112.622
2928.87
-230.325
2416.57
-347.242
1980.5
-456.632
1627.79
-556.414
1354.29
-647.621
1152.47
-732.334
1009.51
-812.49
910.299
-889.11
838.208
-961.94
776.892
-1029.27
711.244
-1088.11
629.124
-1134.95
523.981
-1166.97
397.243
-1183.08
257.093
-1183.53
112.645
-1169.76
-29.5186
-1143.86
-161.301
-1107
-285.142
-1060.16
-404.16
-1003.98
-521.755
-938.596
-642.172
-863.637
-769.877
-778.2
-909.379
-680.943
-1065.1
-570.186
-1241.34
-443.99
-1442.25
-300.309
-1671.85
-137.52
-1933.63
44.2833
-2227.33
243.164
-2539.27
459.381
-2853.44
694.867
-3165.22
950.755
-3472.29
1226.85
-3769.87
1521.02
-4050.37
1829.24
-4303.49
2146.06
-4518.46
2465.01
-4684.92
2777.9
-4791.81
3074.6
-4819.89
3332.5
-4729.09
3505.85
-4434.59
3487.42
-3846.22
3235.25
-3087.82
2483.02
-2179.87
-1613.01
1284.66
409.27
1238.05
434.346
1186.62
539.608
1125.44
658.436
1052.89
767.895
972.142
848.15
880.184
866.243
756.909
875.162
606.06
856.914
520.013
455.122
581.642
-601.553
701.211
-1339.39
834.109
-1768.13
979.259
-2078.48
1139.5
-2340.58
1314.65
-2568.65
1500.88
-2754.52
1694.23
-2900.12
1892.45
-3013.4
2092.98
-3090.81
2291.36
-3120.48
2484.6
-3109.25
2671.06
-3066.09
2847.06
-2979.53
3009.9
-2853.07
3158.43
-2694.3
3291.3
-2498.98
3408.08
-2257.56
3512.17
-1953.91
3610.48
-1550.68
3703.17
-948.485
3747.79
60.6816
3713.82
1148.36
3626.07
1876.78
3510.23
2254.29
3379.05
2421.97
3237.33
2486.45
3086.69
2506.66
2927.69
2513.29
2760.34
2523.49
2584.21
2548.18
2398.34
2595.51
2201.13
2671.58
1990.18
2781.33
1762.43
2926.65
1514.11
3106.01
1240.79
3317.11
942.094
3538.16
607.718
3780.74
271.307
4237.2
81.7097
4534.57
33.7929
4194.12
-23.3467
3587.1
-118.44
3023.97
-226.443
2524.57
-334.448
2088.5
-436.844
1730.18
-531.591
1449.04
-619.457
1240.33
-702.098
1092.15
-781.028
989.227
-856.888
914.067
-929.067
849.069
-995.493
777.669
-1052.85
686.481
-1097.44
568.567
-1126.55
426.35
-1139.43
269.975
-1136.68
109.887
-1120.07
-46.1305
-1091.72
-189.65
-1052.88
-323.985
-1004.6
-452.435
-947.601
-578.757
-882.102
-707.672
-807.79
-844.19
-723.814
-993.356
-628.855
-1160.06
-521.24
-1348.96
-399.053
-1564.44
-260.382
-1810.52
-103.833
-2090.18
70.3172
-2401.48
260.724
-2729.68
468.337
-3061.05
695.255
-3392.14
942.813
-3719.85
1211.02
-4038.07
1497.84
-4337.19
1799.13
-4604.78
2109.2
-4828.54
2421.11
-4996.83
2725.73
-5096.43
3010.87
-5105.03
3245.04
-4963.25
3349.93
-4539.48
3168.01
-3664.31
2592.8
-2512.6
1402.86
-989.938
-502.829
1225.88
466.08
1172.54
487.678
1114.38
597.767
1048.74
724.08
974.244
842.383
890.479
931.912
789.499
967.22
654.726
1009.93
501.592
1010.04
439.877
516.825
518.29
-679.969
632.615
-1453.72
755.463
-1890.98
891.315
-2214.33
1043.27
-2492.54
1210.4
-2735.78
1387.97
-2932.09
1571.82
-3083.98
1760.41
-3201.99
1951.68
-3282.08
2141.09
-3309.89
2325.64
-3293.8
2503.82
-3244.28
2671.59
-3147.3
2826.08
-3007.56
2966.15
-2834.37
3090.2
-2623.03
3197.51
-2364.88
3291.26
-2047.66
3378.9
-1638.33
3462.39
-1031.97
3500.19
22.8768
3464.34
1184.22
3380.5
1960.61
3272.16
2362.63
3149.76
2544.36
3016.79
2619.42
2874.4
2649.05
2723.13
2664.56
2563.21
2683.41
2394.51
2716.88
2216.42
2773.6
2027.65
2860.35
1826.02
2982.96
1608.62
3144.05
1371.57
3343.05
1110.52
3578.16
823.755
3824.93
501.665
4102.83
204.337
4534.52
64.1856
4674.72
27.3997
4230.9
-34.152
3648.65
-124.186
3114
-223.697
2624.08
-323.767
2188.57
-419.718
1826.13
-509.713
1539.03
-594.337
1324.95
-674.851
1172.66
-752.354
1066.73
-827.113
988.826
-898.172
920.126
-963.124
842.621
-1018.39
741.75
-1060.2
610.377
-1086.04
452.184
-1095.55
279.486
-1089.58
103.913
-1070.2
-65.5075
-1039.54
-220.313
-998.877
-364.65
-949.36
-501.954
-891.769
-636.348
-826.422
-773.02
-753.077
-917.535
-670.934
-1075.5
-578.686
-1252.31
-474.651
-1452.99
-356.94
-1682.15
-223.773
-1943.68
-73.9054
-2240.05
92.2991
-2567.69
274.137
-2911.52
473.164
-3260.08
691.636
-3610.61
931.14
-3959.35
1191.94
-4298.87
1471.97
-4617.22
1766.72
-4899.52
2069.63
-5131.45
2371.65
-5298.85
2658.78
-5383.56
2906.12
-5352.38
3045.98
-5103.11
2924.81
-4418.3
2324.89
-3064.39
1201.69
-1389.4
-143.443
355.197
518.454
1168.67
526.3
1110.23
546.112
1045.22
662.775
973.287
796.01
894.549
921.116
805.319
1021.14
694.538
1078
551.972
1152.49
401.865
1160.15
369.177
549.495
461.317
-772.114
568.082
-1560.49
681.156
-2004.06
808.322
-2341.5
952.196
-2636.41
1110.89
-2894.48
1278.91
-3100.11
1452.32
-3257.39
1630.66
-3380.34
1812.58
-3464
1993.27
-3490.58
2169.67
-3470.2
2340.43
-3415.05
2501.09
-3307.96
2648.53
-3155.01
2781.61
-2967.45
2898.38
-2739.8
2997.78
-2464.28
3082.58
-2132.46
3160.32
-1716.07
3234.23
-1105.89
3262.84
-5.73206
3222.85
1224.2
3141.6
2041.86
3039.9
2464.33
2925.63
2658.64
2800.87
2744.18
2666.38
2783.54
2522.75
2808.18
2370.48
2835.68
2209.82
2877.54
2040.51
2942.91
1861.62
3039.24
1671.23
3173.35
1466.59
3348.7
1243.69
3565.94
998.423
3823.43
727.127
4096.22
421.257
4408.7
161.056
4794.73
55.8101
4779.96
20.3978
4266.32
-44.6708
3713.71
-129.672
3199
-221.814
2716.22
-314.794
2281.55
-404.82
1916.16
-490.368
1624.58
-571.877
1406.46
-650.224
1251.01
-726.101
1142.6
-799.408
1062.13
-868.858
989.574
-931.76
905.522
-984.369
794.358
-1022.95
648.955
-1045.26
474.493
-1051.34
285.565
-1042.17
94.7427
-1020.1
-87.5776
-987.229
-253.187
-944.881
-406.999
-894.288
-552.547
-836.313
-694.324
-771.361
-837.973
-699.271
-989.626
-619.288
-1155.48
-530.112
-1341.49
-430.05
-1553.06
-317.237
-1794.97
-189.979
-2070.94
-47.1685
-2382.86
110.796
-2725.65
283.916
-3084.64
474.281
-3450.44
684.299
-3820.63
915.869
-4190.92
1169.53
-4552.53
1443.07
-4890.76
1731.08
-5187.53
2024.84
-5425.22
2308.98
-5582.99
2551.91
-5626.49
2681.45
-5481.91
2529.38
-4951.04
1847.45
-3736.38
567.592
-1784.53
-858.476
36.6704
-1553.78
1050.5
946.322
1112.83
588.956
1050.27
608.671
978.869
734.17
900.134
874.742
815.236
1006.01
717.951
1118.42
597.504
1198.44
452.239
1297.75
311.648
1300.73
309.833
551.298
410.133
-872.418
507.913
-1658.27
611.856
-2108
730.862
-2460.51
866.614
-2772.17
1016.23
-3044.09
1173.71
-3257.59
1335.77
-3419.45
1503.37
-3547.94
1675.81
-3636.45
1847.83
-3662.6
2016.32
-3638.69
2180.23
-3578.96
2334.63
-3462.36
2476.11
-3296.49
2603.47
-3094.8
2714.31
-2850.65
2807.23
-2557.21
2884.44
-2209.66
2953.14
-1784.78
3017.5
-1170.25
3034.98
-23.2117
2989.12
1270.06
2909.5
2121.49
2813.87
2559.95
2707.25
2765.26
2590.38
2861.05
2463.68
2910.24
2327.86
2944
2183.74
2979.8
2031.96
3029.32
1872.68
3102.19
1705.32
3206.59
1528.17
3350.5
1338.59
3538.28
1132.37
3772.16
905.65
4050.15
652.264
4349.61
364.547
4696.41
135.84
5023.43
52.1376
4863.67
12.7203
4305.73
-54.541
3780.97
-134.859
3279.32
-220.592
2801.95
-307.208
2368.17
-391.801
2000.75
-473.216
1706
-551.749
1484.99
-627.902
1327.16
-701.955
1216.66
-773.453
1133.63
-840.802
1056.92
-901.09
965.81
-950.517
843.784
-985.498
683.935
-1004.12
493.111
-1006.74
288.19
-994.386
82.385
-969.684
-112.281
-934.694
-288.178
-890.786
-450.908
-839.278
-604.056
-781.109
-752.493
-716.777
-902.306
-646.198
-1060.21
-568.664
-1233.02
-482.882
-1427.27
-387.149
-1648.79
-279.618
-1902.5
-158.652
-2191.91
-23.2585
-2518.25
126.218
-2875.13
290.469
-3248.89
472.022
-3632
673.476
-4022.09
897.1
-4414.55
1143.71
-4799.15
1410.67
-5157.71
1690.83
-5467.7
1970.32
-5704.7
2216.57
-5829.24
2346.53
-5756.45
2166.77
-5302.15
1377.05
-4161.32
-65.5581
-2293.77
-1391.87
-458.222
-2029.75
674.549
-2213.6
1234.36
1206.47
1046.43
650.251
985.652
669.448
912.575
807.242
829.031
958.282
736.926
1098.11
629.784
1225.56
501.405
1326.81
359.094
1440.06
234.696
1425.12
262.557
523.421
364.126
-973.992
452.313
-1746.46
547.792
-2203.48
658.957
-2571.68
786.399
-2899.61
926.301
-3183.99
1072.52
-3403.81
1222.69
-3569.61
1379.25
-3704.5
1542.02
-3799.22
1705.12
-3825.7
1865.56
-3799.14
2022.85
-3736.25
2171.57
-3611.08
2307.95
-3432.88
2430.64
-3217.49
2536.72
-2956.72
2624.41
-2644.9
2695.26
-2280.51
2755.8
-1845.32
2810.87
-1225.32
2815.74
-28.0824
2762.84
1322.96
2684.33
2199.99
2594.48
2649.8
2495.28
2864.46
2386.19
2970.14
2267.39
3029.03
2139.81
3071.59
2004.59
3115.02
1862.79
3171.12
1714.96
3250.02
1560.84
3360.71
1398.81
3512.52
1226.22
3710.86
1038.49
3959.88
831.862
4256.78
597.272
4584.2
327.655
4966.03
123.238
5227.85
50.3233
4936.58
4.62272
4351.43
-63.6323
3849.23
-139.77
3355.46
-219.879
2882.06
-300.762
2449.05
-380.381
2080.37
-457.967
1783.58
-533.667
1560.69
-607.6
1401.09
-679.638
1288.69
-748.975
1202.96
-813.744
1121.69
-870.894
1022.96
-916.683
889.571
-947.779
715.03
-962.585
507.915
-961.726
287.329
-946.166
66.8231
-918.886
-139.562
-881.863
-325.203
-836.522
-496.25
-784.26
-656.32
-726.089
-810.665
-662.587
-965.809
-593.753
-1129.04
-518.926
-1307.85
-436.826
-1509.37
-345.738
-1739.88
-243.819
-2004.42
-129.482
-2306.25
-1.84622
-2645.89
138.914
-3015.89
294.116
-3404.09
466.644
-3804.52
659.342
-4214.78
874.904
-4630.11
1114.38
-5038.62
1374.2
-5417.53
1643.78
-5737.28
1897.11
-5958.03
2058.65
-5990.79
1925.57
-5623.37
1140.01
-4516.59
-365.025
-2656.29
-1725.56
-933.232
-2306.27
122.484
-2491.87
860.149
-2606.13
1348.62
1414.32
983.763
719.789
919.152
734.058
845.004
881.388
758.672
1044.61
659.304
1197.48
542.139
1342.72
409.244
1459.71
274.25
1575.05
171.516
1527.85
226.293
468.634
322.82
-1070.52
401.342
-1824.98
488.794
-2290.94
592.219
-2675.11
711.155
-3018.55
840.985
-3313.82
975.752
-3538.58
1113.98
-3707.84
1259.43
-3849.95
1412.21
-3952
1565.76
-3979.25
1717.62
-3951
1868.22
-3886.85
2011.59
-3754.44
2143.46
-3564.75
2262.32
-3336.35
2364.56
-3058.96
2448.1
-2728.44
2513.68
-2346.09
2566.82
-1898.47
2613
-1271.5
2604.21
-19.2966
2543.73
1383.44
2466.31
2277.41
2382.23
2733.87
2290.41
2956.28
2189.22
3071.33
2078.69
3139.55
1959.99
3190.29
1834.64
3240.37
1704.06
3301.69
1569.16
3384.92
1429.86
3500.01
1284.48
3657.9
1130.18
3865.16
961.748
4128.32
775.237
4443.29
558.607
4800.83
305.447
5219.19
118.337
5414.96
48.662
5006.25
-3.64995
4403.74
-71.9865
3917.56
-144.452
3427.92
-219.571
2957.18
-295.268
2524.75
-370.331
2155.43
-444.369
1857.62
-517.365
1633.69
-589.055
1472.78
-658.894
1358.53
-725.732
1269.8
-787.474
1183.43
-841.014
1076.5
-882.779
931.336
-909.748
741.998
-920.631
518.798
-916.252
282.95
-897.462
48.0314
-867.662
-169.363
-828.691
-364.176
-782.056
-542.886
-729.216
-709.161
-671.241
-868.64
-608.78
-1028.27
-541.907
-1195.91
-470.018
-1379.74
-391.851
-1587.54
-305.675
-1826.06
-209.643
-2100.45
-102.232
-2413.66
17.3238
-2765.44
149.145
-3147.71
295.093
-3550.04
458.332
-3967.76
642.014
-4398.46
849.305
-4837.4
1081.35
-5270.66
1332.77
-5668.96
1585.92
-5990.43
1786.9
-6159.02
1765.13
-5969.01
1136.57
-4994.81
-301.053
-3078.96
-1699.71
-1257.64
-2327.25
-305.689
-2570.13
365.364
-2754.28
1044.3
-2894.95
1489.29
1617.01
924.757
795.1
854.1
804.712
777.221
958.263
688.249
1133.58
581.873
1303.85
456.312
1468.28
323.528
1592.49
199.667
1698.91
122.412
1605.1
199.232
391.8
285.805
-1157.1
354.915
-1894.1
434.471
-2370.5
530.081
-2770.72
640.363
-3128.83
760.113
-3433.58
883.851
-3662.32
1010.67
-3834.67
1145.17
-3984.45
1287.46
-4094.3
1430.52
-4122.31
1572.98
-4093.46
1716.59
-4030.47
1854.67
-3892.52
1982.34
-3692.43
2097.93
-3451.94
2197.04
-3158.08
2277.33
-2808.74
2338.55
-2407.31
2384.87
-1944.79
2422.61
-1309.24
2399.56
3.74587
2331.64
1451.36
2255.73
2353.31
2177.69
2811.92
2093.45
3040.51
2000.47
3164.32
1898.79
3241.23
1789.82
3299.26
1675.41
3354.77
1557.34
3419.77
1436.7
3505.56
1313.46
3623.26
1185.67
3785.68
1050.07
4000.76
900.57
4277.82
732.639
4611.22
531.634
5001.83
292.381
5458.44
116.971
5590.37
46.1562
5077.07
-11.9461
4461.85
-79.7339
3985.35
-148.961
3497.15
-219.601
3027.82
-290.586
2595.73
-361.46
2226.3
-432.193
1928.35
-502.593
1704.08
-572.008
1542.19
-639.47
1425.99
-703.498
1333.83
-761.809
1241.74
-811.325
1126.01
-848.737