/*--------------------------------*- C++ -*----------------------------------*\
| =========                 |                                                 |
| \\      /  F ield         | OpenFOAM: The Open Source CFD Toolbox           |
|  \\    /   O peration     | Version:  4.1                                   |
|   \\  /    A nd           | Web:      www.OpenFOAM.org                      |
|    \\/     M anipulation  |                                                 |
\*---------------------------------------------------------------------------*/
FoamFile
{
    version     2.0;
    format      ascii;
    class       volVectorField;
    location    "500";
    object      U;
}
// * * * * * * * * * * * * * * * * * * * * * * * * * * * * * * * * * * * * * //

dimensions      [0 1 -1 0 0 0 0];

internalField   nonuniform List<vector> 
26785
(
(2.82492e-15 0.0478021 16.4628)
(2.85237e-15 0.0451701 15.5198)
(2.96933e-15 0.0455646 14.6108)
(3.38739e-15 0.0463144 13.7298)
(2.83971e-15 0.0469477 12.8416)
(1.54966e-15 0.0472795 11.9469)
(3.09589e-15 0.0442258 11.0893)
(1.59683e-15 0.0350306 10.3586)
(2.45645e-15 0.0211037 9.83826)
(-8.24278e-16 0.00400055 9.59594)
(3.32133e-15 -0.0107846 9.63955)
(2.74292e-15 -0.0178624 9.87647)
(2.47019e-15 -0.0223404 10.2403)
(2.06681e-15 -0.02849 10.7439)
(1.73877e-15 -0.0375964 11.4061)
(1.43224e-15 -0.0487175 12.221)
(1.28778e-15 -0.0599583 13.1619)
(1.23432e-15 -0.0699797 14.1939)
(1.1371e-15 -0.0782106 15.2855)
(6.07238e-16 -0.0844129 16.411)
(1.56221e-15 -0.0884292 17.5472)
(1.15745e-15 -0.0904428 18.6718)
(1.53162e-15 -0.0907328 19.7672)
(2.49889e-15 -0.0892728 20.8184)
(2.19017e-15 -0.0860855 21.8086)
(3.04973e-15 -0.0807269 22.721)
(3.43087e-15 -0.071454 23.5343)
(3.34234e-15 -0.0551592 24.2029)
(4.09984e-15 -0.0294264 24.645)
(5.79125e-15 0.00368295 24.7718)
(7.51674e-15 0.0394844 24.5217)
(7.10081e-15 0.0736554 23.8795)
(7.05313e-15 0.0991767 22.9144)
(6.54945e-15 0.113504 21.7599)
(8.05501e-15 0.119317 20.5367)
(9.46224e-15 0.120092 19.3177)
(9.01698e-15 0.118303 18.1378)
(8.70239e-15 0.115399 17.0103)
(8.08773e-15 0.112172 15.9379)
(7.53337e-15 0.109068 14.9176)
(6.17241e-15 0.106363 13.9437)
(4.85511e-15 0.104258 13.0092)
(5.04456e-15 0.102891 12.1056)
(4.33219e-15 0.102343 11.2246)
(4.26115e-15 0.102595 10.3576)
(2.5027e-15 0.103501 9.49696)
(2.25465e-15 0.104857 8.6393)
(1.21059e-15 0.106611 7.77705)
(7.88741e-16 0.108984 6.91037)
(-1.17952e-15 0.113939 6.04088)
(1.18776e-15 0.125627 5.09608)
(4.2846e-15 0.16214 4.08636)
(-2.62923e-15 0.224747 2.75992)
(-2.56361e-14 0.250926 0.328355)
(-2.90558e-14 0.170326 -1.31868)
(-2.57266e-14 0.0934086 -2.12742)
(-2.24952e-14 0.061343 -2.64593)
(-1.44464e-14 0.0450416 -3.00575)
(-1.09246e-14 0.0353914 -3.2745)
(-8.54241e-15 0.0292798 -3.48649)
(-3.80908e-15 0.0253234 -3.66148)
(-2.28055e-15 0.0226451 -3.81146)
(-1.05892e-15 0.020565 -3.94292)
(-1.28804e-15 0.0185369 -4.05822)
(6.4455e-16 0.0161567 -4.15664)
(-4.95511e-16 0.0131943 -4.23559)
(-1.12737e-15 0.00962527 -4.29199)
(-1.64316e-15 0.00561371 -4.32352)
(-1.74853e-15 0.00142642 -4.32927)
(-1.03358e-15 -0.00268488 -4.30965)
(-7.4209e-16 -0.00652068 -4.26603)
(1.41898e-15 -0.010003 -4.20061)
(2.03462e-16 -0.0131924 -4.11546)
(-1.48541e-15 -0.0162635 -4.01174)
(-3.90232e-15 -0.0194434 -3.88925)
(-4.96111e-15 -0.0229014 -3.74657)
(-9.43591e-15 -0.0266572 -3.5818)
(-1.21272e-14 -0.0307018 -3.39317)
(-1.31426e-14 -0.0352107 -3.17883)
(-1.19142e-14 -0.0404126 -2.93596)
(-9.71138e-15 -0.0459781 -2.66068)
(-9.09525e-15 -0.0506399 -2.34887)
(-7.56875e-15 -0.0534754 -1.9974)
(-1.17018e-14 -0.0568953 -1.60211)
(-1.32689e-14 -0.0700665 -1.15755)
(-7.17046e-15 -0.103536 -0.633014)
(-8.8124e-15 -0.138812 0.0358558)
(-6.69989e-15 -0.156708 0.720989)
(-7.83635e-15 -0.179926 1.54127)
(-4.6282e-15 -0.205514 2.47829)
(-3.47761e-15 -0.22856 3.50912)
(-3.16293e-15 -0.249283 4.6286)
(-2.96009e-15 -0.267195 5.82615)
(-3.08114e-15 -0.281202 7.09249)
(-3.14773e-15 -0.290976 8.40079)
(-3.39164e-15 -0.29509 9.75864)
(-3.58363e-15 -0.298191 11.0724)
(-3.65071e-15 -0.293168 12.537)
(-3.77504e-15 -0.311011 13.5713)
(-3.81411e-15 -0.298732 15.7231)
(2.71518e-15 0.119237 16.132)
(2.9255e-15 0.117277 15.2389)
(3.77462e-15 0.122709 14.3731)
(2.66084e-15 0.128326 13.528)
(3.65462e-15 0.132675 12.6688)
(2.28837e-15 0.135111 11.8017)
(2.12983e-15 0.12719 10.9762)
(4.51781e-16 0.102688 10.2702)
(-1.12559e-15 0.0663764 9.73291)
(1.96836e-15 0.0197647 9.42435)
(1.54646e-15 -0.025121 9.42139)
(2.07801e-15 -0.0562367 9.7072)
(2.50683e-15 -0.0877013 10.2406)
(2.7935e-15 -0.12382 10.9922)
(2.10329e-15 -0.160248 11.9074)
(2.53134e-15 -0.192307 12.9245)
(3.73806e-15 -0.217532 13.996)
(2.21085e-15 -0.236138 15.0911)
(2.03089e-15 -0.249371 16.1917)
(2.18918e-15 -0.257952 17.2866)
(1.86499e-15 -0.261847 18.3639)
(2.14423e-15 -0.26151 19.41)
(1.17026e-15 -0.257434 20.4133)
(2.5523e-15 -0.249114 21.3627)
(1.68094e-15 -0.236293 22.2441)
(1.79786e-15 -0.218024 23.0433)
(2.41501e-15 -0.190704 23.7464)
(2.2466e-15 -0.146596 24.3276)
(1.78715e-15 -0.0763707 24.7327)
(2.73628e-15 0.0199912 24.88)
(2.48295e-15 0.131633 24.6642)
(2.08833e-15 0.240917 24.0232)
(2.86433e-15 0.321151 23.024)
(3.26207e-15 0.363776 21.8162)
(4.80052e-15 0.378246 20.5364)
(5.8892e-15 0.376566 19.2666)
(5.82771e-15 0.367172 18.0454)
(5.58594e-15 0.354911 16.8867)
(5.23389e-15 0.342342 15.7919)
(4.94101e-15 0.330822 14.7563)
(4.66647e-15 0.321132 13.7724)
(4.2481e-15 0.313799 12.8309)
(3.50841e-15 0.309145 11.9219)
(4.26817e-15 0.307336 11.0355)
(3.86033e-15 0.308218 10.162)
(4.30654e-15 0.311315 9.29295)
(2.46749e-15 0.315917 8.42425)
(2.3811e-15 0.321764 7.54862)
(-9.76768e-16 0.330077 6.66557)
(1.10468e-16 0.345027 5.77476)
(-2.78362e-15 0.3817 4.82159)
(1.03426e-15 0.515726 3.75159)
(-7.65952e-15 0.719352 2.19279)
(-2.97426e-14 0.715816 -0.0259956)
(-1.69752e-14 0.4562 -1.1984)
(-2.24305e-14 0.26499 -1.86825)
(-1.72546e-14 0.176804 -2.33484)
(-8.69581e-15 0.129947 -2.67368)
(-4.88792e-15 0.10144 -2.9328)
(-5.1341e-15 0.0829102 -3.1398)
(-2.36212e-15 0.0704525 -3.31134)
(-3.90465e-16 0.0615594 -3.4576)
(2.3013e-16 0.0543178 -3.58401)
(-4.81452e-16 0.0472337 -3.69246)
(-3.95175e-15 0.0392488 -3.78232)
(-4.43582e-15 0.0298215 -3.85151)
(-4.85621e-15 0.0189886 -3.89792)
(-3.29005e-15 0.00725654 -3.92035)
(-4.19916e-16 -0.00470805 -3.91888)
(4.69267e-15 -0.016431 -3.89434)
(5.90884e-15 -0.0276108 -3.84786)
(6.37409e-15 -0.038151 -3.78047)
(7.51054e-15 -0.0482318 -3.69326)
(4.13581e-15 -0.0583867 -3.5868)
(1.63689e-15 -0.0691558 -3.46046)
(-4.03298e-15 -0.0808772 -3.31284)
(-3.62278e-15 -0.0936322 -3.14223)
(-7.92196e-15 -0.107576 -2.94697)
(-1.35711e-14 -0.123308 -2.72499)
(-1.52925e-14 -0.141604 -2.4731)
(-1.61656e-14 -0.162331 -2.1865)
(-9.49312e-15 -0.183707 -1.85907)
(-1.55716e-15 -0.204184 -1.48419)
(3.92187e-15 -0.22812 -1.05323)
(-2.91427e-15 -0.270931 -0.535526)
(-1.01669e-14 -0.342212 0.0737672)
(-9.44531e-15 -0.410521 0.773469)
(-5.63104e-15 -0.466197 1.54552)
(2.78183e-16 -0.51996 2.37126)
(6.14193e-16 -0.575263 3.2476)
(2.94659e-16 -0.629213 4.17768)
(1.80209e-16 -0.681124 5.16389)
(3.65119e-16 -0.729174 6.20315)
(-1.77042e-15 -0.770117 7.29433)
(-1.58199e-15 -0.802719 8.42024)
(-1.41931e-15 -0.821627 9.59585)
(-1.73191e-15 -0.839564 10.7393)
(-1.8474e-15 -0.831725 12.0383)
(-2.06838e-15 -0.893724 12.9519)
(-2.25259e-15 -0.850405 14.912)
(2.89563e-15 0.191889 15.6832)
(2.7847e-15 0.19192 14.8224)
(2.64579e-15 0.200933 13.9832)
(4.86144e-15 0.210262 13.1597)
(5.32435e-15 0.217287 12.3192)
(2.83197e-15 0.220523 11.4744)
(5.51091e-15 0.207306 10.6745)
(1.45985e-15 0.170107 9.97642)
(2.3983e-15 0.115772 9.40583)
(3.25961e-15 0.0374765 9.06127)
(3.83873e-15 -0.050773 9.12213)
(3.81622e-15 -0.121721 9.57226)
(3.28324e-15 -0.186465 10.2743)
(2.90873e-15 -0.245714 11.1152)
(2.85963e-15 -0.295619 12.023)
(1.57554e-15 -0.335312 12.9642)
(2.63717e-15 -0.365478 13.9269)
(1.56851e-15 -0.388054 14.9044)
(2.68085e-15 -0.404766 15.8908)
(1.62359e-15 -0.415884 16.8788)
(2.36451e-15 -0.420522 17.8568)
(2.27021e-15 -0.418883 18.8102)
(9.12448e-16 -0.41147 19.7261)
(1.2485e-15 -0.397248 20.593)
(1.63141e-15 -0.375821 21.3963)
(1.20976e-15 -0.346274 22.1225)
(2.57266e-15 -0.304507 22.7617)
(3.38177e-15 -0.240241 23.298)
(2.98942e-15 -0.137374 23.6982)
(2.43325e-15 0.0113059 23.9097)
(2.1839e-15 0.19589 23.8379)
(8.4572e-16 0.386421 23.3652)
(7.67547e-16 0.530007 22.5023)
(1.80384e-15 0.607701 21.3853)
(2.39496e-15 0.634871 20.1605)
(3.10089e-15 0.632668 18.9223)
(3.64425e-15 0.616305 17.7193)
(3.7282e-15 0.594649 16.5719)
(3.62593e-15 0.57244 15.4848)
(3.49032e-15 0.552203 14.4552)
(3.3653e-15 0.535367 13.4759)
(3.16055e-15 0.522849 12.5375)
(3.00359e-15 0.515175 11.6295)
(2.98198e-15 0.51257 10.7413)
(3.03852e-15 0.514703 9.86274)
(3.23537e-15 0.520748 8.98501)
(3.08255e-15 0.529336 8.10345)
(2.85071e-15 0.540189 7.21133)
(1.25575e-15 0.555178 6.30591)
(-1.83728e-16 0.578764 5.39427)
(-1.53133e-15 0.649462 4.42768)
(-1.35441e-15 0.90196 3.21294)
(-1.41368e-14 1.20763 1.45905)
(-2.77402e-14 1.0988 -0.221023)
(-1.8787e-14 0.682343 -0.995571)
(-1.79863e-14 0.419023 -1.57056)
(-5.00477e-15 0.289433 -2.01065)
(8.49816e-16 0.217043 -2.34818)
(8.09864e-16 0.171717 -2.61244)
(4.51967e-15 0.14171 -2.8255)
(2.87668e-15 0.121176 -3.00262)
(3.62708e-15 0.106219 -3.15383)
(2.91104e-15 0.093843 -3.28488)
(2.23557e-15 0.0817183 -3.39801)
(2.32542e-16 0.06822 -3.49289)
(1.43575e-15 0.0525512 -3.5676)
(2.47331e-15 0.0348206 -3.61989)
(2.30715e-15 0.015828 -3.64822)
(6.09811e-15 -0.00346241 -3.65208)
(9.6818e-15 -0.0224797 -3.63164)
(1.27895e-14 -0.0408802 -3.58774)
(1.45095e-14 -0.0584341 -3.5219)
(1.56566e-14 -0.0753749 -3.4352)
(1.2211e-14 -0.0924793 -3.32817)
(6.17093e-15 -0.110521 -3.20036)
(2.65216e-15 -0.130048 -3.05058)
(-3.63461e-16 -0.151352 -2.87723)
(-3.67536e-15 -0.174792 -2.67856)
(-9.02524e-15 -0.201119 -2.45244)
(-1.45603e-14 -0.231313 -2.19541)
(-1.67848e-14 -0.265956 -1.90163)
(-1.2954e-14 -0.305134 -1.56302)
(-9.1476e-15 -0.350554 -1.172)
(-3.8444e-15 -0.410722 -0.719695)
(-3.09885e-15 -0.493234 -0.187377)
(-3.94903e-15 -0.588108 0.415768)
(-2.04998e-15 -0.674526 1.06779)
(-2.05764e-15 -0.751154 1.76473)
(-2.055e-15 -0.826825 2.5056)
(-4.88194e-15 -0.903309 3.28719)
(-3.47603e-15 -0.978965 4.10712)
(-1.65697e-15 -1.05233 4.96373)
(-1.37868e-15 -1.12132 5.85252)
(-1.21301e-15 -1.1815 6.7725)
(-1.0406e-15 -1.23212 7.70872)
(-9.63175e-16 -1.26372 8.67867)
(-1.30734e-15 -1.29905 9.60779)
(-1.43659e-15 -1.29268 10.678)
(-1.33049e-15 -1.40628 11.3994)
(-1.38886e-15 -1.34884 13.05)
(2.86196e-15 0.259181 15.1672)
(2.80144e-15 0.261799 14.3381)
(3.31016e-15 0.274295 13.5248)
(4.196e-15 0.287274 12.7211)
(3.23044e-15 0.296833 11.8971)
(6.15569e-15 0.300899 11.0706)
(4.14174e-15 0.28386 10.2859)
(4.77067e-15 0.236949 9.58286)
(6.63268e-15 0.16482 8.98481)
(5.52283e-15 0.0466044 8.64348)
(4.09598e-15 -0.0947078 8.77626)
(2.90174e-15 -0.203016 9.275)
(2.09792e-15 -0.28846 9.93383)
(4.00624e-15 -0.358786 10.6611)
(2.47652e-15 -0.416743 11.4361)
(2.26611e-15 -0.464549 12.2588)
(1.78051e-15 -0.502825 13.1272)
(3.21347e-15 -0.532768 14.0315)
(8.52098e-16 -0.555538 14.9591)
(1.90211e-15 -0.570813 15.8976)
(1.61932e-15 -0.577052 16.8313)
(1.69388e-15 -0.574497 17.7429)
(9.91664e-16 -0.563921 18.6185)
(8.13709e-16 -0.543895 19.4461)
(4.68687e-16 -0.514018 20.2111)
(2.66042e-16 -0.473571 20.9006)
(4.5331e-16 -0.418312 21.5064)
(4.76491e-16 -0.336907 22.0178)
(4.81425e-16 -0.209491 22.4138)
(6.68705e-16 -0.0224118 22.6638)
(1.09684e-17 0.221483 22.694)
(-1.7972e-15 0.49047 22.3634)
(-2.19191e-15 0.703127 21.641)
(-1.73089e-15 0.823982 20.6428)
(2.6884e-17 0.871036 19.5129)
(-5.20642e-17 0.873726 18.3487)
(1.15712e-15 0.854179 17.2028)
(2.55185e-15 0.825699 16.0994)
(1.7727e-15 0.795625 15.0465)
(1.23318e-15 0.767978 14.0433)
(2.4185e-15 0.74507 13.0839)
(2.87819e-15 0.728354 12.1597)
(2.34526e-15 0.71864 11.2606)
(1.87699e-15 0.716254 10.3763)
(2.24498e-15 0.720707 9.4967)
(1.82362e-15 0.730829 8.61284)
(2.92555e-15 0.744506 7.72019)
(4.60742e-15 0.761835 6.81186)
(4.23962e-15 0.783399 5.88404)
(1.10378e-17 0.815665 4.95916)
(-1.67856e-15 0.942004 3.95004)
(-6.15939e-15 1.31258 2.54434)
(-1.57517e-14 1.62217 0.827672)
(-2.15202e-14 1.36083 -0.250987)
(-1.83334e-14 0.857106 -0.80519)
(-1.22365e-14 0.560159 -1.3294)
(-3.60912e-15 0.400628 -1.75989)
(4.9325e-15 0.305056 -2.10091)
(3.07622e-15 0.242697 -2.3708)
(7.27879e-15 0.200495 -2.58914)
(4.912e-15 0.171265 -2.77107)
(6.0642e-15 0.149848 -2.92702)
(1.68477e-15 0.132129 -3.06305)
(3.55231e-16 0.114843 -3.18159)
(-2.19783e-15 0.0956797 -3.28223)
(-2.25377e-15 0.0734777 -3.36279)
(-4.29132e-15 0.0483477 -3.4206)
(-9.50572e-16 0.0213871 -3.45372)
(3.71303e-15 -0.00602973 -3.46138)
(6.79641e-15 -0.033036 -3.44346)
(8.01346e-15 -0.0591073 -3.40076)
(8.01052e-15 -0.0841215 -3.33511)
(8.91584e-15 -0.108467 -3.24751)
(4.46773e-15 -0.133078 -3.13872)
(4.35155e-15 -0.158874 -3.00851)
(5.81893e-15 -0.186624 -2.8559)
(2.40455e-15 -0.216982 -2.67937)
(6.52453e-16 -0.250686 -2.47712)
(-8.27085e-15 -0.288652 -2.24696)
(-1.50874e-14 -0.331771 -1.98521)
(-2.0893e-14 -0.380713 -1.68568)
(-1.40465e-14 -0.436651 -1.34056)
(5.85782e-16 -0.50366 -0.943104)
(-1.77871e-15 -0.591146 -0.485882)
(-3.6114e-15 -0.701007 0.0380844)
(-6.50266e-15 -0.815176 0.613939)
(-3.99577e-15 -0.919204 1.22527)
(-5.23195e-15 -1.01496 1.87311)
(-5.13718e-15 -1.10841 2.55671)
(-5.33886e-15 -1.20121 3.27188)
(-1.19518e-15 -1.29222 4.01401)
(-4.02877e-16 -1.37954 4.77868)
(-9.50959e-16 -1.46105 5.55929)
(-1.24451e-15 -1.53136 6.35254)
(-1.90269e-15 -1.59068 7.14339)
(-1.81729e-15 -1.62555 7.94501)
(-1.8955e-15 -1.66962 8.69081)
(-9.96916e-16 -1.65826 9.53522)
(-1.05285e-15 -1.81311 10.0758)
(-1.04711e-15 -1.75388 11.3518)
(2.85094e-15 0.314134 14.6199)
(2.67574e-15 0.321392 13.8194)
(2.03745e-15 0.340967 13.0325)
(2.02741e-15 0.360001 12.2509)
(2.27026e-15 0.373136 11.4464)
(1.4894e-16 0.378527 10.6372)
(7.36257e-15 0.358976 9.85908)
(5.69757e-15 0.304043 9.14427)
(6.79246e-15 0.213609 8.5236)
(5.59432e-15 0.0519407 8.1633)
(2.09347e-15 -0.140806 8.25542)
(2.01454e-15 -0.277885 8.63902)
(1.75671e-15 -0.37853 9.14246)
(4.37291e-15 -0.461049 9.73521)
(2.78403e-15 -0.531498 10.4204)
(1.08198e-15 -0.591604 11.1915)
(2.39379e-15 -0.640561 12.0316)
(2.31561e-15 -0.679004 12.9184)
(2.06688e-15 -0.708134 13.8321)
(1.78051e-15 -0.727469 14.7564)
(1.30864e-15 -0.735 15.6738)
(1.81474e-15 -0.731161 16.5658)
(5.54032e-16 -0.7171 17.4187)
(-5.9594e-16 -0.690985 18.2212)
(-5.94719e-16 -0.652489 18.9592)
(-5.86504e-16 -0.601287 19.6212)
(6.5085e-16 -0.533298 20.2014)
(5.73478e-16 -0.436751 20.6929)
(-1.36898e-16 -0.289005 21.0824)
(1.07354e-17 -0.0702465 21.356)
(-7.05209e-17 0.224586 21.4611)
(-5.3026e-16 0.567813 21.2435)
(-9.41223e-16 0.849431 20.6386)
(-2.2885e-15 1.01529 19.748)
(-2.06992e-15 1.08492 18.7143)
(-1.21008e-15 1.0955 17.6341)
(-3.34346e-16 1.07572 16.5596)
(1.81687e-16 1.0431 15.5154)
(4.40134e-16 1.00752 14.5108)
(8.5352e-16 0.974516 13.546)
(1.21937e-15 0.947345 12.6165)
(1.55754e-15 0.928054 11.7146)
(1.08776e-15 0.917793 10.831)
(1.6346e-15 0.917036 9.95603)
(1.49916e-15 0.92518 9.07978)
(1.27793e-15 0.940724 8.19354)
(1.19326e-15 0.960861 7.29308)
(2.73644e-15 0.986177 6.37039)
(4.98015e-15 1.01346 5.42432)
(5.89371e-16 1.05978 4.48989)
(-2.16521e-15 1.26519 3.39789)
(-1.13823e-14 1.71772 1.84601)
(-1.66791e-14 1.93255 0.414845)
(-1.8368e-14 1.52793 -0.206271)
(-1.65449e-14 1.00281 -0.664128)
(-8.25762e-15 0.693578 -1.15758)
(-7.83501e-15 0.511101 -1.57756)
(-6.03484e-15 0.394215 -1.9151)
(-7.29441e-15 0.315456 -2.18429)
(-2.03868e-15 0.261503 -2.40341)
(-3.36741e-15 0.224026 -2.58734)
(-2.88515e-16 0.196611 -2.74633)
(-6.12206e-15 0.174008 -2.88635)
(-8.11117e-15 0.152007 -3.00964)
(-1.02126e-14 0.127593 -3.11549)
(-1.20766e-14 0.0992134 -3.20126)
(-5.15929e-15 0.0669514 -3.26376)
(-3.68875e-15 0.0321588 -3.30058)
(3.47608e-15 -0.00345373 -3.31066)
(6.75153e-15 -0.0388006 -3.29362)
(1.21925e-14 -0.0730593 -3.25034)
(1.16649e-14 -0.105901 -3.18316)
(1.11086e-14 -0.137916 -3.09317)
(6.23458e-15 -0.170195 -2.98144)
(4.69111e-15 -0.203825 -2.84804)
(1.40627e-15 -0.239798 -2.69224)
(-3.3361e-17 -0.27912 -2.51261)
(3.84066e-16 -0.322981 -2.30739)
(-7.40816e-15 -0.372719 -2.07422)
(-1.18531e-14 -0.429525 -1.80926)
(-2.15157e-14 -0.494379 -1.50636)
(-2.0315e-14 -0.569189 -1.15853)
(7.9815e-16 -0.659056 -0.761046)
(4.1127e-15 -0.771435 -0.307638)
(-5.43787e-15 -0.902372 0.199557)
(-8.81188e-15 -1.03158 0.744759)
(-8.18375e-15 -1.15029 1.32038)
(-7.09506e-15 -1.26153 1.92825)
(-5.61919e-15 -1.36945 2.56659)
(-2.30753e-15 -1.47496 3.23019)
(-8.53042e-18 -1.57684 3.91254)
(1.23888e-15 -1.67271 4.60655)
(-7.08585e-16 -1.76039 5.30352)
(-3.08544e-15 -1.83364 5.99704)
(-3.94786e-15 -1.89348 6.6719)
(-3.33528e-15 -1.92247 7.33254)
(-2.71093e-15 -1.9639 7.92256)
(-2.51596e-15 -1.93826 8.54981)
(-2.58643e-15 -2.11915 8.92787)
(-2.18949e-15 -2.05911 9.79593)
(2.66567e-15 0.375534 13.9077)
(3.6673e-15 0.380214 13.1406)
(2.89725e-15 0.403538 12.3991)
(3.64946e-15 0.42718 11.6649)
(2.91089e-15 0.443858 10.9038)
(3.59706e-15 0.451858 10.1249)
(4.39148e-15 0.43191 9.35487)
(6.04713e-15 0.37052 8.63402)
(6.77379e-15 0.263148 8.00091)
(1.97644e-15 0.0619377 7.5646)
(-7.9696e-16 -0.175809 7.48572)
(2.59271e-15 -0.338267 7.6784)
(2.76627e-15 -0.458069 8.05714)
(4.0705e-15 -0.559509 8.60663)
(4.3246e-15 -0.647484 9.29778)
(4.28121e-15 -0.722283 10.0921)
(3.61104e-15 -0.782432 10.9545)
(2.42219e-15 -0.828943 11.8555)
(2.54577e-15 -0.863638 12.7735)
(2.9238e-15 -0.886104 13.6929)
(1.91403e-15 -0.893942 14.5968)
(1.50283e-15 -0.887927 15.4674)
(8.70586e-16 -0.869699 16.293)
(-8.63223e-17 -0.837005 17.0641)
(-6.30272e-17 -0.78967 17.768)
(9.51474e-16 -0.727853 18.3951)
(1.05358e-15 -0.647725 18.942)
(1.66469e-15 -0.537695 19.4049)
(1.1477e-15 -0.373965 19.776)
(1.83256e-15 -0.131342 20.0547)
(1.51125e-15 0.20502 20.2119)
(1.57415e-15 0.618947 20.0888)
(1.3281e-15 0.970341 19.584)
(3.7977e-16 1.18279 18.7866)
(-1.18503e-15 1.27666 17.8403)
(-2.05273e-15 1.29712 16.8411)
(-2.05831e-15 1.27935 15.8394)
(-1.62842e-15 1.24494 14.8584)
(-1.00959e-15 1.20615 13.907)
(-4.95241e-16 1.16994 12.9859)
(-3.57773e-16 1.14047 12.0913)
(7.00937e-16 1.12039 11.2164)
(1.13986e-15 1.11121 10.3528)
(3.05069e-16 1.11361 9.49142)
(8.3882e-16 1.12693 8.62278)
(7.22137e-16 1.14935 7.73826)
(4.22133e-16 1.17754 6.83386)
(1.09368e-15 1.21215 5.8997)
(3.81865e-15 1.24468 4.9414)
(1.18423e-15 1.31595 3.9927)
(-4.15146e-15 1.61106 2.79298)
(-1.52867e-14 2.08293 1.2221)
(-1.53782e-14 2.14509 0.201468)
(-1.61303e-14 1.64272 -0.153336)
(-1.63413e-14 1.13371 -0.573772)
(-1.44419e-14 0.82024 -1.03904)
(-1.80297e-14 0.618396 -1.44088)
(-1.78246e-14 0.481744 -1.76741)
(-1.59621e-14 0.387387 -2.03092)
(-8.39988e-15 0.322154 -2.24799)
(-7.03435e-15 0.276738 -2.43238)
(-5.56977e-15 0.243526 -2.59366)
(-1.02011e-14 0.216133 -2.7373)
(-1.08378e-14 0.189364 -2.86513)
(-1.3411e-14 0.159449 -2.97597)
(-1.27909e-14 0.124412 -3.06653)
(-1.07291e-14 0.0843435 -3.1329)
(-6.72279e-15 0.0409672 -3.17214)
(1.29153e-15 -0.00351047 -3.183)
(8.68042e-15 -0.0476455 -3.16499)
(1.58074e-14 -0.0902409 -3.1194)
(1.69307e-14 -0.131001 -3.04922)
(1.96785e-14 -0.17072 -2.95573)
(1.81948e-14 -0.210656 -2.84037)
(1.71666e-14 -0.252089 -2.70348)
(7.80188e-15 -0.296239 -2.54457)
(3.14056e-15 -0.344399 -2.36238)
(-1.36489e-15 -0.39808 -2.15511)
(-9.36679e-15 -0.458947 -1.92032)
(-1.56317e-14 -0.528562 -1.65405)
(-2.00343e-14 -0.608429 -1.35048)
(-1.44239e-14 -0.701116 -1.0037)
(4.96196e-16 -0.812056 -0.610871)
(8.47249e-15 -0.946123 -0.166644)
(-3.72528e-15 -1.09363 0.32192)
(-1.01518e-14 -1.23608 0.840379)
(-7.83725e-15 -1.36884 1.38787)
(-6.99685e-15 -1.49424 1.9654)
(-4.6309e-15 -1.61478 2.57032)
(-2.52261e-15 -1.73048 3.19663)
(1.63968e-15 -1.83967 3.83628)
(9.73576e-16 -1.93946 4.47979)
(-2.96156e-15 -2.02753 5.11661)
(-5.13236e-15 -2.09695 5.73675)
(-4.76992e-15 -2.14877 6.32492)
(-3.70032e-15 -2.16177 6.87288)
(-3.28305e-15 -2.18552 7.33674)
(-3.20453e-15 -2.13292 7.75996)
(-3.37769e-15 -2.3179 7.99685)
(-3.46531e-15 -2.25123 8.43553)
(2.65236e-15 0.42782 13.3621)
(2.76031e-15 0.431638 12.5737)
(2.19174e-15 0.459336 11.8215)
(4.43175e-15 0.487603 11.0888)
(3.37588e-15 0.508364 10.3375)
(1.18065e-15 0.52052 9.56594)
(1.87379e-15 0.501546 8.79736)
(2.27251e-15 0.434699 8.08754)
(-1.36064e-15 0.316233 7.44662)
(-1.06196e-15 0.088256 6.84473)
(1.5752e-15 -0.191199 6.51688)
(2.91235e-15 -0.387724 6.58518)
(5.34092e-15 -0.538469 6.98022)
(5.85183e-15 -0.665205 7.60287)
(5.38818e-15 -0.77149 8.36275)
(4.30025e-15 -0.859116 9.20237)
(4.29941e-15 -0.927949 10.087)
(4.38058e-15 -0.980225 10.9917)
(2.5426e-15 -1.01862 11.8997)
(2.8693e-15 -1.04272 12.799)
(2.75427e-15 -1.04963 13.6745)
(3.81899e-15 -1.04051 14.5097)
(3.09487e-15 -1.01753 15.2951)
(1.73826e-15 -0.977934 16.0231)
(1.57742e-15 -0.921734 16.6823)
(1.14371e-15 -0.849646 17.2649)
(2.04644e-15 -0.758098 17.7693)
(3.62532e-15 -0.63592 18.1939)
(2.5965e-15 -0.459303 18.5345)
(2.57993e-15 -0.198894 18.8006)
(2.98414e-15 0.170803 18.986)
(2.13369e-15 0.64975 18.9383)
(1.40166e-15 1.07037 18.5184)
(8.97711e-16 1.32984 17.8012)
(2.16012e-16 1.44848 16.9327)
(-8.4139e-16 1.47976 16.0082)
(-1.86021e-15 1.46548 15.0756)
(-2.00565e-15 1.43112 14.1562)
(-1.71428e-15 1.39108 13.258)
(-1.41601e-15 1.3536 12.3815)
(-6.06042e-16 1.32366 11.5236)
(4.60767e-16 1.30447 10.678)
(-1.03161e-16 1.29795 9.83728)
(4.25268e-16 1.30498 8.99279)
(1.86677e-16 1.32492 8.13557)
(1.81513e-16 1.35568 7.25689)
(-3.4009e-16 1.39363 6.35271)
(1.24092e-15 1.43858 5.41088)
(4.43791e-15 1.47738 4.44619)
(5.61718e-15 1.5865 3.47311)
(-1.38526e-15 1.96107 2.17623)
(-1.37659e-14 2.38376 0.741146)
(-1.32515e-14 2.28065 0.11566)
(-1.52098e-14 1.73326 -0.12088)
(-1.81784e-14 1.25494 -0.521825)
(-2.1254e-14 0.939085 -0.955212)
(-2.42485e-14 0.720533 -1.33291)
(-2.12854e-14 0.566386 -1.64439)
(-2.06766e-14 0.458059 -1.89995)
(-1.0741e-14 0.382678 -2.11373)
(-7.15913e-15 0.330146 -2.2979)
(-4.12172e-15 0.291765 -2.46106)
(-2.60017e-15 0.260079 -2.60804)
(-1.3626e-15 0.22892 -2.74013)
(-5.97382e-15 0.193743 -2.85548)
(-6.68408e-15 0.152121 -2.95001)
(-1.07447e-14 0.10414 -3.01903)
(-5.94541e-15 0.0519107 -3.05908)
(-3.05625e-15 -0.00183545 -3.06891)
(-2.45024e-15 -0.0552672 -3.04819)
(3.24881e-15 -0.106678 -2.99892)
(5.69656e-15 -0.155606 -2.92473)
(1.14057e-14 -0.20312 -2.82718)
(1.59533e-14 -0.250674 -2.70804)
(1.67498e-14 -0.299823 -2.56792)
(1.35258e-14 -0.352103 -2.40651)
(9.33666e-15 -0.409146 -2.22263)
(6.03428e-16 -0.472769 -2.01449)
(-6.96292e-15 -0.544902 -1.77953)
(-1.50423e-14 -0.627396 -1.51381)
(-2.26968e-14 -0.722124 -1.21199)
(-2.30058e-14 -0.831993 -0.869399)
(-2.89231e-15 -0.96231 -0.48414)
(2.2221e-15 -1.11539 -0.0521336)
(-3.34978e-15 -1.27701 0.416601)
(-6.20154e-15 -1.43185 0.911688)
(-7.65205e-15 -1.57795 1.4354)
(-6.90352e-15 -1.71659 1.98816)
(-3.48216e-15 -1.84872 2.56696)
(-9.0661e-16 -1.97321 3.16538)
(1.42849e-15 -2.08757 3.77437)
(-1.22418e-15 -2.18828 4.38284)
(-4.53297e-15 -2.27271 4.97903)
(-5.65988e-15 -2.33318 5.54946)
(-4.80771e-15 -2.36941 6.07896)
(-3.5257e-15 -2.35676 6.5439)
(-3.3029e-15 -2.34533 6.91401)
(-3.72437e-15 -2.25108 7.15418)
(-4.46182e-15 -2.41262 7.27737)
(-4.67577e-15 -2.32704 7.28564)
(2.6013e-15 0.483536 12.8466)
(1.67905e-15 0.486863 12.0557)
(3.38807e-15 0.517636 11.2997)
(1.55411e-15 0.549149 10.5594)
(1.92797e-15 0.572891 9.79655)
(1.73991e-15 0.588191 9.01142)
(1.59978e-15 0.568619 8.24072)
(5.68875e-16 0.49772 7.55073)
(1.09065e-15 0.379925 6.87658)
(7.94898e-16 0.139496 6.04395)
(3.69717e-15 -0.191966 5.52093)
(6.22287e-15 -0.441269 5.63503)
(7.10341e-15 -0.630793 6.16031)
(6.53043e-15 -0.78039 6.87721)
(5.36992e-15 -0.900003 7.67961)
(5.3258e-15 -0.996566 8.52761)
(4.00524e-15 -1.07159 9.4015)
(3.32945e-15 -1.12808 10.2841)
(3.08593e-15 -1.16919 11.1627)
(2.70183e-15 -1.19421 12.0277)
(2.87191e-15 -1.19954 12.8646)
(3.41582e-15 -1.18679 13.6572)
(1.93571e-15 -1.15878 14.3974)
(1.29653e-15 -1.11211 15.0786)
(7.37099e-16 -1.04709 15.69)
(7.50305e-16 -0.965049 16.2251)
(1.02533e-15 -0.862663 16.684)
(7.03001e-16 -0.729373 17.0663)
(2.10025e-16 -0.542335 17.3699)
(2.42508e-16 -0.269521 17.6112)
(2.67503e-16 0.125985 17.8048)
(1.88398e-16 0.663435 17.8131)
(-3.97949e-17 1.15229 17.4627)
(-2.61298e-16 1.4588 16.8144)
(-2.85465e-16 1.6023 16.0147)
(-4.46973e-16 1.6449 15.1581)
(-1.06127e-15 1.63515 14.2896)
(-1.5122e-15 1.60227 13.4282)
(-1.64326e-15 1.56262 12.5808)
(-1.57543e-15 1.52554 11.7479)
(-8.79818e-16 1.49672 10.9264)
(-2.13593e-16 1.47991 10.111)
(-2.99147e-16 1.47739 9.29489)
(-2.75753e-16 1.49035 8.47006)
(-3.79791e-16 1.51825 7.62777)
(-3.21842e-16 1.55875 6.7591)
(-8.96809e-16 1.60816 5.85963)
(-1.30546e-16 1.66442 4.91493)
(5.03524e-15 1.71235 3.94875)
(5.73128e-15 1.86907 2.94301)
(-3.84275e-15 2.29311 1.59777)
(-1.29148e-14 2.61105 0.420337)
(-1.07929e-14 2.36357 0.0901015)
(-1.48815e-14 1.81392 -0.113304)
(-2.05047e-14 1.36741 -0.494513)
(-2.57727e-14 1.04922 -0.893055)
(-2.70974e-14 0.816647 -1.24443)
(-1.76303e-14 0.6476 -1.5397)
(-1.55026e-14 0.527075 -1.78643)
(-7.53697e-15 0.442672 -1.99624)
(-7.02804e-15 0.38376 -2.17963)
(-2.67849e-15 0.340701 -2.34421)
(-8.8819e-16 0.305008 -2.49405)
(-2.25767e-15 0.269525 -2.62976)
(-6.34903e-15 0.22888 -2.74873)
(-1.11731e-14 0.180178 -2.84599)
(-1.63887e-14 0.123582 -2.91604)
(-1.72769e-14 0.0617669 -2.95512)
(-1.64735e-14 -0.00182048 -2.96221)
(-1.67415e-14 -0.0648489 -2.93736)
(-1.48239e-14 -0.125081 -2.88352)
(-1.08092e-14 -0.182081 -2.80484)
(-5.23929e-15 -0.237194 -2.70313)
(3.45152e-16 -0.292066 -2.5805)
(6.48995e-15 -0.348557 -2.43774)
(6.02381e-15 -0.408554 -2.27467)
(4.97696e-15 -0.474052 -2.09017)
(3.68261e-16 -0.547185 -1.88239)
(-4.53856e-15 -0.630146 -1.64876)
(-1.25723e-14 -0.725047 -1.38543)
(-2.50064e-14 -0.834061 -1.08758)
(-2.39045e-14 -0.960312 -0.751476)
(-3.98559e-15 -1.10852 -0.375116)
(-2.22438e-15 -1.278 0.0425338)
(-4.55923e-15 -1.45228 0.491179)
(-8.16395e-15 -1.61942 0.965297)
(-8.40902e-15 -1.7787 1.46799)
(-6.33868e-15 -1.93026 1.99939)
(-3.68941e-15 -2.07357 2.55649)
(2.15313e-16 -2.20623 3.13273)
(-2.12719e-16 -2.32474 3.71876)
(-3.52332e-15 -2.42488 4.30272)
(-5.21242e-15 -2.50334 4.87243)
(-3.79432e-15 -2.55161 5.41152)
(-2.79418e-15 -2.56628 5.9052)
(-2.87747e-15 -2.51959 6.31381)
(-3.64267e-15 -2.45419 6.61956)
(-4.6109e-15 -2.30331 6.70049)
(-5.09412e-15 -2.4098 6.73958)
(-5.04178e-15 -2.28798 6.31626)
(3.34652e-15 0.539091 12.341)
(1.97253e-15 0.541572 11.5479)
(2.30731e-15 0.575011 10.795)
(2.41746e-15 0.610186 10.0525)
(7.37258e-16 0.637542 9.27725)
(2.98569e-15 0.65528 8.4768)
(4.23442e-15 0.633343 7.7085)
(3.40922e-15 0.562302 7.02812)
(2.65423e-15 0.456646 6.27596)
(6.69831e-15 0.2114 5.24134)
(4.11389e-15 -0.192937 4.68004)
(6.83206e-15 -0.50914 4.95508)
(7.14279e-15 -0.733358 5.59265)
(5.82242e-15 -0.89816 6.3389)
(4.89479e-15 -1.02672 7.12849)
(4.13988e-15 -1.13053 7.9492)
(3.46161e-15 -1.21116 8.79184)
(2.55936e-15 -1.27157 9.64135)
(2.90254e-15 -1.31515 10.4853)
(3.31315e-15 -1.34078 11.3143)
(2.30701e-15 -1.34408 12.1133)
(2.48232e-15 -1.3273 12.8655)
(1.52842e-15 -1.29393 13.5635)
(9.55618e-16 -1.2399 14.2015)
(1.25648e-15 -1.1659 14.7688)
(1.17539e-16 -1.07398 15.2596)
(-1.44748e-15 -0.961018 15.6753)
(-7.30432e-16 -0.817119 16.0162)
(4.228e-16 -0.621072 16.2817)
(-1.06947e-16 -0.339569 16.4919)
(2.6774e-15 0.0744788 16.6786)
(3.35015e-15 0.663866 16.7241)
(2.45292e-15 1.2191 16.4283)
(1.57211e-15 1.57194 15.8382)
(7.51098e-16 1.73991 15.0996)
(-1.04455e-15 1.794 14.3048)
(-2.03975e-15 1.78956 13.4952)
(-1.99225e-15 1.75934 12.6878)
(-1.92941e-15 1.72144 11.8881)
(-1.71653e-15 1.68615 11.0965)
(-1.19227e-15 1.65978 10.3105)
(-7.52513e-16 1.64656 9.52546)
(-9.55325e-16 1.64918 8.73532)
(-4.5675e-16 1.66915 7.93257)
(-5.38646e-16 1.70611 7.10869)
(-5.60186e-16 1.75761 6.25451)
(-1.24314e-15 1.82012 5.36485)
(-8.53891e-16 1.88873 4.42326)
(4.16536e-15 1.94991 3.46026)
(4.39869e-15 2.15647 2.42204)
(-5.49348e-15 2.58838 1.10208)
(-1.09519e-14 2.7695 0.236648)
(-8.92261e-15 2.41631 0.0816918)
(-1.46443e-14 1.89056 -0.124606)
(-2.14338e-14 1.47094 -0.481357)
(-2.54447e-14 1.15049 -0.845024)
(-2.53453e-14 0.906614 -1.17066)
(-1.82269e-14 0.725178 -1.4498)
(-2.00987e-14 0.594192 -1.68728)
(-1.63635e-14 0.501933 -1.89254)
(-1.09789e-14 0.437446 -2.0746)
(-6.20129e-15 0.390265 -2.24003)
(-5.01796e-15 0.350915 -2.39207)
(-5.54387e-15 0.311241 -2.53054)
(-9.57853e-15 0.265028 -2.652)
(-1.0656e-14 0.208928 -2.75054)
(-1.5175e-14 0.143268 -2.81997)
(-1.63418e-14 0.0714325 -2.85641)
(-1.51158e-14 -0.00232838 -2.85935)
(-1.59615e-14 -0.0751591 -2.82939)
(-1.41839e-14 -0.144305 -2.77055)
(-1.54791e-14 -0.209327 -2.68729)
(-1.26935e-14 -0.271887 -2.58168)
(-1.03058e-14 -0.333856 -2.45606)
(-3.80874e-15 -0.397432 -2.31137)
(6.58346e-15 -0.464877 -2.14753)
(1.93807e-15 -0.538548 -1.96344)
(-3.1076e-15 -0.620882 -1.75725)
(-2.62952e-15 -0.714311 -1.52639)
(-7.91621e-15 -0.821176 -1.26712)
(-1.91119e-14 -0.943907 -0.975028)
(-2.17586e-14 -1.08576 -0.647141)
(-4.22486e-15 -1.25032 -0.281427)
(-1.43107e-15 -1.434 0.120548)
(-6.82238e-15 -1.62017 0.549957)
(-8.46531e-15 -1.79968 1.00485)
(-8.24338e-15 -1.97209 1.48835)
(-5.68544e-15 -2.13647 2.00065)
(-2.5954e-15 -2.29089 2.53884)
(-2.13556e-16 -2.43166 3.09649)
(-1.08013e-15 -2.55415 3.66435)
(-2.89067e-15 -2.6534 4.23048)
(-3.05291e-15 -2.72509 4.78288)
(-2.11985e-15 -2.75968 5.30325)
(-2.55832e-15 -2.74879 5.77739)
(-3.02462e-15 -2.66122 6.15136)
(-4.13737e-15 -2.52261 6.4143)
(-5.06374e-15 -2.30152 6.3571)
(-5.40125e-15 -2.31276 6.32899)
(-5.08392e-15 -2.13605 5.41731)
(2.38966e-15 0.587206 11.8494)
(2.56423e-15 0.591025 11.0539)
(2.39645e-15 0.630149 10.3048)
(2.00368e-15 0.670767 9.56102)
(8.01093e-16 0.702453 8.77403)
(3.61173e-15 0.721558 7.9629)
(-4.00757e-16 0.696887 7.19935)
(8.45364e-16 0.631844 6.49851)
(-2.108e-16 0.543979 5.63131)
(1.64697e-15 0.291934 4.49748)
(6.05272e-15 -0.205627 4.04063)
(8.15863e-15 -0.589326 4.46559)
(6.03033e-15 -0.838312 5.13579)