/*--------------------------------*- C++ -*----------------------------------*\
| =========                 |                                                 |
| \\      /  F ield         | OpenFOAM: The Open Source CFD Toolbox           |
|  \\    /   O peration     | Version:  4.1                                   |
|   \\  /    A nd           | Web:      www.OpenFOAM.org                      |
|    \\/     M anipulation  |                                                 |
\*---------------------------------------------------------------------------*/
FoamFile
{
    version     2.0;
    format      ascii;
    class       volScalarField;
    location    "100";
    object      p;
}
// * * * * * * * * * * * * * * * * * * * * * * * * * * * * * * * * * * * * * //

dimensions      [0 2 -2 0 0 0 0];

internalField   nonuniform List<scalar> 
26785
(
-646.961
-643.166
-638.467
-632.719
-626.595
-618.759
-609.666
-600.024
-589.676
-579.418
-569.765
-560.573
-552.018
-544.858
-538.23
-530.487
-523.584
-518.597
-514.39
-512.218
-513.692
-516.414
-518.966
-522.451
-529.801
-547.353
-575.625
-600.701
-617.24
-632.915
-648.917
-668.03
-686.523
-703.381
-721.599
-739.46
-754.702
-767.698
-777.707
-785.676
-793.123
-799.377
-803.537
-804.921
-801.567
-793.663
-780.221
-762.495
-740.214
-712.944
-703.658
-710.233
-707.514
-680.949
-634.822
-580.158
-522.177
-473.139
-436.284
-405.779
-379.437
-355.315
-331.1
-307.68
-285.809
-265.915
-247.869
-231.331
-216.375
-202.87
-190.007
-175.853
-158.969
-141.769
-125.206
-109.421
-94.638
-81.0115
-68.7758
-57.9405
-48.3983
-40.0922
-33.0843
-27.3347
-22.6927
-18.8034
-15.4923
-12.7647
-10.4588
-8.29827
-6.16099
-4.05115
-1.80233
-0.0947446
0.40474
-0.025808
-0.172743
0.518024
0.287175
-0.224097
-646.97
-643.168
-638.464
-632.712
-626.595
-618.758
-609.661
-600.018
-589.666
-579.403
-569.752
-560.555
-551.979
-544.85
-538.265
-530.485
-523.545
-518.615
-514.444
-512.186
-513.673
-516.409
-518.943
-522.436
-529.807
-547.378
-575.678
-600.711
-617.065
-633.108
-649.277
-668.088
-686.474
-703.373
-721.68
-739.602
-754.787
-767.779
-777.777
-785.731
-793.232
-799.552
-803.772
-805.222
-801.858
-793.977
-780.516
-762.957
-740.684
-713.456
-706.953
-712.192
-706.308
-679.621
-634.776
-581.574
-524.936
-474.739
-436.357
-405.422
-379.28
-355.26
-331.031
-307.557
-285.666
-265.793
-247.782
-231.245
-216.263
-202.822
-190.081
-175.926
-158.809
-141.558
-125.013
-109.228
-94.4447
-80.8204
-68.5827
-57.7381
-48.1914
-39.8831
-32.8797
-27.1512
-22.5501
-18.6871
-15.3798
-12.6593
-10.3709
-8.2483
-6.13358
-4.01926
-1.73598
0.0169034
0.526838
0.0180116
-0.231019
0.513458
0.297183
-0.240471
-646.985
-643.168
-638.459
-632.7
-626.598
-618.757
-609.652
-600.008
-589.646
-579.374
-569.724
-560.504
-551.891
-544.85
-538.309
-530.389
-523.385
-518.507
-514.497
-512.169
-513.584
-516.358
-518.901
-522.419
-529.78
-547.257
-575.995
-601.008
-616.964
-633.23
-649.633
-668.36
-686.657
-703.33
-721.65
-739.784
-754.966
-767.932
-777.918
-785.869
-793.466
-799.901
-804.226
-805.791
-802.416
-794.579
-781.141
-763.835
-741.574
-715.481
-712.389
-713.911
-705.33
-678.221
-634.9
-583.189
-528.087
-477.096
-436.861
-405.18
-378.962
-355.092
-330.927
-307.343
-285.411
-265.565
-247.611
-231.075
-216.035
-202.694
-190.137
-175.989
-158.504
-141.17
-124.644
-108.846
-94.0547
-80.4326
-68.1836
-57.3152
-47.7561
-39.4438
-32.4641
-26.8035
-22.2881
-18.4763
-15.1713
-12.4322
-10.1419
-8.07472
-6.02209
-3.95481
-1.65887
0.188571
0.735567
0.0968353
-0.302987
0.553784
0.336457
-0.274204
-647.005
-643.168
-638.45
-632.685
-626.604
-618.756
-609.642
-599.997
-589.617
-579.332
-569.684
-560.432
-551.782
-544.839
-538.337
-530.224
-523.204
-518.36
-514.522
-512.118
-513.349
-516.135
-518.78
-522.409
-529.761
-546.907
-576.293
-601.438
-617.299
-633.415
-649.986
-668.573
-686.779
-703.287
-721.511
-739.982
-755.275
-768.161
-778.14
-786.129
-793.858
-800.447
-804.899
-806.61
-803.214
-795.435
-782.086
-764.917
-742.83
-719.114
-716.009
-714.787
-704.39
-676.893
-634.778
-584.609
-531.084
-479.789
-437.802
-405.239
-378.776
-354.916
-330.807
-307.068
-285.061
-265.245
-247.359
-230.826
-215.701
-202.466
-190.102
-175.993
-158.089
-140.647
-124.115
-108.286
-93.4802
-79.8529
-67.5759
-56.6703
-47.0924
-38.7844
-31.8635
-26.3199
-21.9053
-18.1509
-14.8641
-12.1172
-9.81995
-7.79116
-5.79504
-3.79762
-1.53945
0.39117
0.956867
0.144379
-0.308629
0.712168
0.412518
-0.329083
-647.031
-643.165
-638.437
-632.669
-626.614
-618.756
-609.631
-599.984
-589.582
-579.279
-569.634
-560.34
-551.657
-544.816
-538.354
-530.039
-523.039
-518.201
-514.486
-511.948
-512.902
-515.502
-518.391
-522.313
-529.731
-546.298
-576.445
-601.783
-617.497
-633.396
-650.22
-668.698
-686.733
-703.194
-721.307
-740.154
-755.688
-768.461
-778.448
-786.535
-794.408
-801.183
-805.759
-807.636
-804.204
-796.498
-783.35
-766.238
-744.358
-722.425
-718.517
-715.573
-703.666
-675.736
-634.638
-585.962
-533.902
-482.716
-439.122
-405.575
-378.777
-354.844
-330.697
-306.766
-284.623
-264.839
-247.025
-230.48
-215.257
-202.108
-189.923
-175.918
-157.583
-139.997
-123.427
-107.546
-92.709
-79.0569
-66.7355
-55.7868
-46.1899
-37.9017
-31.0965
-25.7315
-21.4139
-17.7083
-14.4497
-11.7124
-9.40446
-7.38505
-5.5146
-3.77103
-1.74291
0.344608
1.29152
0.381098
-0.386022
0.515686
0.31227
-0.609154
-647.062
-643.16
-638.421
-632.652
-626.629
-618.759
-609.621
-599.969
-589.54
-579.217
-569.574
-560.225
-551.524
-544.789
-538.357
-529.852
-522.889
-518.025
-514.365
-511.623
-512.404
-514.727
-517.772
-522.085
-529.646
-545.54
-576.165
-602.024
-617.476
-633.231
-650.303
-668.734
-686.671
-703.112
-721.111
-740.383
-756.115
-768.838
-778.851
-787.109
-795.129
-802.131
-806.808
-808.856
-805.35
-797.739
-784.859
-767.99
-745.848
-725.737
-721.365
-716.707
-703.32
-674.897
-634.644
-587.214
-536.423
-485.732
-440.922
-406.112
-378.909
-354.871
-330.606
-306.428
-284.102
-264.376
-246.61
-230.011
-214.681
-201.59
-189.557
-175.766
-157.006
-139.229
-122.583
-106.633
-91.7463
-78.0497
-65.672
-54.6812
-45.0748
-36.8305
-30.1908
-25.0298
-20.8037
-17.1595
-13.9518
-11.2283
-8.90267
-6.89959
-5.22292
-3.74238
-1.69484
1.03062
2.59606
0.60509
-1.37733
0.0140583
0.18989
-1.10996
-647.098
-643.151
-638.4
-632.635
-626.648
-618.764
-609.611
-599.955
-589.493
-579.146
-569.508
-560.085
-551.398
-544.76
-538.328
-529.666
-522.744
-517.824
-514.159
-511.22
-511.961
-514.119
-516.929
-521.616
-529.419
-544.592
-575.656
-602.287
-617.185
-632.921
-650.358
-668.751
-686.567
-703.025
-720.927
-740.6
-756.528
-769.398
-779.362
-787.83
-796.02
-803.3
-808.034
-810.253
-806.629
-799.136
-786.482
-770.222
-747.446
-729.367
-724.718
-718.177
-703.329
-674.217
-634.595
-588.302
-538.69
-488.72
-443.244
-407.083
-379.223
-354.924
-330.538
-306.076
-283.534
-263.86
-246.1
-229.384
-213.95
-200.885
-188.977
-175.546
-156.368
-138.352
-121.59
-105.545
-90.5877
-76.8268
-64.3813
-53.3459
-43.7455
-35.5934
-29.1659
-24.1803
-20.0429
-16.4617
-13.336
-10.6547
-8.33017
-6.37253
-4.85504
-3.53632
-1.55179
1.09572
2.42747
-0.571325
-1.31035
1.23383
0.754359
-0.651397
-647.14
-643.14
-638.375
-632.619
-626.672
-618.774
-609.601
-599.94
-589.442
-579.067
-569.441
-559.919
-551.282
-544.732
-538.253
-529.485
-522.599
-517.59
-513.874
-510.814
-511.507
-513.633
-515.883
-520.819
-528.892
-543.304
-574.699
-602.691
-617.109
-632.888
-650.523
-668.813
-686.475
-702.928
-720.661
-740.479
-756.776
-770.039
-779.98
-788.688
-797.108
-804.711
-809.438
-811.814
-808.083
-800.716
-788.235
-772.786
-749.384
-733.252
-727.99
-719.587
-703.502
-673.607
-634.457
-589.279
-540.814
-491.665
-445.962
-408.668
-379.831
-355.059
-330.528
-305.809
-282.928
-263.255
-245.493
-228.59
-213.051
-199.971
-188.165
-175.264
-155.666
-137.373
-120.454
-104.289
-89.2357
-75.3949
-62.8774
-51.8019
-42.2324
-34.2216
-28.0217
-23.1716
-19.1522
-15.6309
-12.6063
-10.0045
-7.72531
-5.85545
-4.45281
-3.29757
-1.70688
0.495643
1.74995
-0.752446
-1.65078
0.170298
0.691754
-0.216277
-647.187
-643.126
-638.347
-632.602
-626.701
-618.788
-609.591
-599.925
-589.389
-578.982
-569.366
-559.73
-551.172
-544.706
-538.133
-529.308
-522.45
-517.314
-513.503
-510.391
-510.844
-513.17
-514.694
-519.76
-528.072
-541.969
-573.706
-603.721
-617.609
-633.149
-650.803
-668.91
-686.377
-702.82
-720.42
-739.949
-756.998
-770.554
-780.738
-789.708
-798.439
-806.386
-811.02
-813.506
-809.799
-802.526
-790.246
-775.571
-751.941
-737.491
-731.34
-720.934
-703.537
-673.03
-634.354
-590.233
-542.848
-494.5
-448.866
-410.738
-380.807
-355.339
-330.625
-305.685
-282.28
-262.549
-244.8
-227.632
-211.965
-198.814
-187.106
-174.924
-154.891
-136.289
-119.179
-102.861
-87.6892
-73.7551
-61.1646
-50.0589
-40.5542
-32.7253
-26.7245
-21.9863
-18.1024
-14.6584
-11.761
-9.26901
-7.08401
-5.32805
-4.00702
-2.90285
-1.57135
0.001322
0.717487
-0.799436
-1.20617
0.76985
1.30784
0.150262
-647.239
-643.109
-638.317
-632.587
-626.732
-618.804
-609.578
-599.912
-589.335
-578.895
-569.278
-559.52
-551.066
-544.682
-537.974
-529.138
-522.295
-516.992
-513.02
-509.866
-509.815
-512.694
-513.35
-518.389
-526.952
-540.484
-572.813
-605.258
-618.252
-633.367
-651.067
-668.989
-686.265
-702.746
-720.277
-739.404
-757.344
-770.915
-781.613
-790.862
-800.038
-808.349
-812.793
-815.345
-811.809
-804.588
-792.592
-778.449
-755.445
-742.087
-734.811
-722.453
-703.481
-672.551
-634.463
-591.234
-544.697
-497.095
-451.804
-413.139
-382.127
-355.804
-330.841
-305.684
-281.638
-261.828
-244.013
-226.511
-210.665
-197.395
-185.792
-174.54
-154.028
-135.089
-117.76
-101.261
-85.9482
-71.9117
-59.2532
-48.1369
-38.7342
-31.1158
-25.2669
-20.6536
-16.899
-13.5627
-10.8049
-8.43155
-6.39206
-4.80339
-3.61698
-2.61134
-1.44915
-0.191267
0.259611
-0.734736
-0.794806
0.679145
0.802236
-0.130804
-647.294
-643.089
-638.285
-632.573
-626.765
-618.822
-609.563
-599.901
-589.282
-578.806
-569.177
-559.291
-550.96
-544.659
-537.785
-528.975
-522.132
-516.632
-512.479
-509.295
-508.593
-512.082
-511.93
-516.81
-525.68
-538.782
-571.466
-606.533
-618.629
-633.446
-651.262
-669.028
-686.135
-702.69
-720.229
-739.086
-757.289
-771.252
-782.433
-792.123
-801.885
-810.606
-814.776
-817.421
-814.102
-806.91
-795.265
-781.072
-760.019
-746.907
-738.097
-724.164
-703.517
-672.418
-634.849
-592.222
-546.377
-499.497
-454.684
-415.711
-383.72
-356.49
-331.137
-305.79
-281.098
-261.163
-243.055
-225.219
-209.155
-195.76
-184.261
-174.06
-153.047
-133.752
-116.189
-99.4814
-84.0099
-69.8659
-57.152
-46.052
-36.7768
-29.3695
-23.6347
-19.1986
-15.5389
-12.343
-9.74012
-7.50118
-5.63392
-4.22313
-3.18635
-2.3302
-1.40161
-0.446059
-0.0615759
-0.535528
-0.276462
0.805517
0.631387
-0.260341
-647.352
-643.066
-638.254
-632.56
-626.799
-618.839
-609.544
-599.892
-589.229
-578.715
-569.06
-559.042
-550.856
-544.637
-537.575
-528.819
-521.962
-516.249
-511.925
-508.724
-507.581
-511.247
-510.394
-515.189
-524.305
-536.923
-569.761
-607.673
-618.84
-633.418
-651.375
-669.023
-685.992
-702.634
-720.255
-738.955
-757.041
-771.977
-782.994
-793.459
-803.963
-813.124
-816.99
-819.791
-816.677
-809.518
-798.367
-783.282
-765.633
-751.785
-740.57
-725.929
-703.777
-672.6
-635.274
-593.108
-547.957
-501.819
-457.507
-418.348
-385.524
-357.399
-331.508
-305.999
-280.729
-260.531
-241.853
-223.753
-207.473
-194.02
-182.704
-173.582
-151.907
-132.252
-114.451
-97.5176
-81.8741
-67.6199
-54.8706
-43.8198
-34.6797
-27.46
-21.8359
-17.6672
-14.0653
-11.026
-8.57864
-6.48606
-4.79895
-3.55855
-2.66947
-1.9677
-1.2559
-0.536961
-0.134188
-0.198943
0.22056
0.905407
0.531755
-0.299283
-647.41
-643.042
-638.223
-632.548
-626.833
-618.852
-609.519
-599.887
-589.178
-578.621
-568.928
-558.772
-550.753
-544.615
-537.356
-528.671
-521.784
-515.849
-511.393
-508.102
-506.914
-510.189
-508.852
-513.385
-522.666
-534.853
-567.785
-609.136
-619.078
-633.36
-651.415
-668.967
-685.823
-702.546
-720.283
-738.946
-757.05
-772.624
-783.617
-794.901
-806.221
-815.838
-819.451
-822.455
-819.539
-812.434
-802.079
-785.338
-771.619
-757.807
-742.647
-727.522
-703.954
-672.743
-635.671
-594.021
-549.538
-504.112
-460.306
-421.04
-387.502
-358.506
-331.969
-306.272
-280.51
-259.902
-240.422
-222.137
-205.623
-192.151
-181.22
-173.338
-150.563
-130.595
-112.538
-95.3631
-79.5422
-65.1766
-52.4163
-41.4474
-32.4321
-25.3724
-19.8409
-15.9983
-12.4808
-9.62409
-7.33009
-5.39457
-3.88674
-2.80929
-2.06322
-1.51098
-1.00045
-0.487331
-0.0444922
0.23773
0.787983
1.14959
0.577636
-0.196805
-647.467
-643.017
-638.192
-632.538
-626.869
-618.862
-609.491
-599.884
-589.127
-578.523
-568.778
-558.484
-550.652
-544.593
-537.141
-528.531
-521.595
-515.439
-510.81
-507.42
-506.316
-509.043
-507.485
-511.333
-520.688
-532.519
-565.567
-611.29
-619.473
-633.281
-651.379
-668.84
-685.603
-702.393
-720.261
-738.984
-757.147
-773.174
-784.783
-796.463
-808.656
-818.7
-822.167
-825.402
-822.668
-815.658
-806.471
-787.865
-776.927
-763.507
-745.243
-728.838
-704.21
-673.044
-636.22
-595.046
-551.171
-506.407
-463.081
-423.762
-389.61
-359.779
-332.53
-306.55
-280.41
-259.263
-238.823
-220.384
-203.582
-190.043
-179.985
-172.875
-149.001
-128.717
-110.438
-93.0068
-77.0132
-62.5396
-49.7939
-38.932
-30.0197
-23.1267
-17.6648
-14.139
-10.781
-8.12977
-5.99289
-4.22614
-2.89306
-1.96903
-1.36161
-0.954247
-0.622596
-0.278276
0.193587
0.689217
1.24903
1.40446
0.707816
-0.0979924
-647.521
-642.99
-638.163
-632.529
-626.907
-618.87
-609.458
-599.885
-589.077
-578.427
-568.613
-558.178
-550.55
-544.572
-536.938
-528.399
-521.397
-515.023
-510.143
-506.708
-505.566
-507.791
-506.502
-509.236
-518.281
-529.84
-563.057
-614.182
-620.043
-633.095
-651.249
-668.633
-685.323
-702.185
-720.22
-739.076
-757.314
-773.755
-786.183
-798.252
-811.259
-821.683
-825.158
-828.612
-826.041
-819.167
-811.508
-791.556
-783.189
-766.969
-748.732
-730.12
-704.819
-673.601
-636.971
-596.213
-552.885
-508.72
-465.833
-426.495
-391.813
-361.183
-333.18
-306.785
-280.391
-258.585
-237.097
-218.472
-201.375
-187.884
-179.235
-171.852
-147.098
-126.569
-108.108
-90.4284
-74.2787
-59.7079
-47.0038
-36.2625
-27.4104
-20.7387
-15.382
-12.1123
-8.96745
-6.53981
-4.56742
-2.97514
-1.8075
-1.02503
-0.549892
-0.286769
-0.126372
0.062056
0.524614
1.13813
1.65913
1.66401
0.877681
-0.0280049
-647.571
-642.963
-638.135
-632.522
-626.945
-618.877
-609.424
-599.888
-589.028
-578.332
-568.438
-557.859
-550.446
-544.553
-536.755
-528.276
-521.188
-514.599
-509.471
-505.948
-504.673
-506.478
-505.85
-507.326
-515.409
-526.709
-560.067
-617.307
-620.52
-632.626
-651.001
-668.35
-684.992
-701.944
-720.177
-739.219
-757.599
-774.407
-787.69
-800.265
-813.975
-824.793
-828.49
-832.091
-829.633
-822.933
-817.092
-796.449
-788.932
-769.127
-752.543
-731.609
-705.778
-674.419
-637.939
-597.534
-554.687
-511.055
-468.565
-429.23
-394.08
-362.686
-333.898
-306.951
-280.378
-257.846
-235.271
-216.423
-199.086
-186.063
-178.51
-169.833
-144.752
-124.151
-105.515
-87.6097
-71.325
-56.6775
-44.0453
-33.4266
-24.5608
-18.189
-13.0542
-9.96785
-7.06036
-4.84981
-3.05278
-1.63837
-0.626769
0.0292787
0.386861
0.514613
0.512947
0.560151
0.981093
1.6022
2.02308
1.93217
1.10584
0.103864
-647.618
-642.935
-638.107
-632.518
-626.984
-618.885
-609.389
-599.893
-588.984
-578.232
-568.259
-557.534
-550.338
-544.535
-536.598
-528.161
-520.968
-514.161
-508.796
-505.069
-503.714
-505.088
-505.208
-505.764
-512.011
-522.836
-555.484
-617.923
-619.707
-631.666
-650.6
-667.996
-684.619
-701.676
-720.129
-739.394
-757.96
-775.12
-789.312
-802.438
-816.754
-828.069
-832.322
-835.889
-833.422
-826.941
-823.029
-802.501
-794.445
-771.654
-755.502
-733.399
-707.056
-675.497
-639.119
-599.004
-556.573
-513.412
-471.281
-431.961
-396.391
-364.262
-334.662
-307.037
-280.293
-257.02
-233.339
-214.237
-196.666
-184.374
-177.148
-166.919
-142.085
-121.424
-102.622
-84.5325
-68.1337
-53.4389
-40.9125
-30.4175
-21.4541
-15.4327
-10.7182
-7.71823
-5.07472
-3.06063
-1.44935
-0.21414
0.646227
1.18607
1.44174
1.44829
1.28899
1.18918
1.53674
2.10022
2.37208
2.19911
1.37104
0.274245
-647.66
-642.906
-638.081
-632.516
-627.022
-618.896
-609.354
-599.901
-588.943
-578.127
-568.082
-557.206
-550.226
-544.522
-536.469
-528.057
-520.737
-513.697
-508.093
-504.037
-502.551
-503.581
-504.266
-504.759
-508.171
-517.34
-544.323
-606.953
-616.203
-630.398
-650.08
-667.586
-684.207
-701.376
-720.07
-739.589
-758.385
-775.903
-790.995
-804.737
-819.581
-831.549
-836.687
-840.047
-837.401
-831.133
-828.968
-809.338
-799.016
-776.416
-758.385
-735.492
-708.619
-676.825
-640.497
-600.612
-558.537
-515.794
-473.988
-434.685
-398.727
-365.888
-335.453
-307.044
-280.106
-256.069
-231.271
-211.875
-193.976
-182.311
-174.836
-163.939
-139.358
-118.299
-99.3896
-81.1686
-64.68
-49.9751
-37.5898
-27.2393
-18.1293
-12.4037
-8.35425
-5.35459
-3.00318
-1.1716
0.244385
1.30155
2.01455
2.44551
2.61324
2.51615
2.20497
1.93663
2.1601
2.62022
2.71811
2.43871
1.62588
0.441494
-647.696
-642.876
-638.056
-632.516
-627.059
-618.91
-609.319
-599.908
-588.908
-578.025
-567.91
-556.883
-550.107
-544.513
-536.371
-527.964
-520.497
-513.2
-507.333
-502.855
-501.055
-501.907
-502.868
-503.993
-504.812
-511.146
-524.601
-578.299
-609.878
-629.197
-649.485
-667.118
-683.755
-701.047
-719.997
-739.798
-758.861
-776.753
-792.737
-807.177
-822.487
-835.26
-841.363
-844.559
-841.601
-835.433
-834.29
-816.274
-801.279
-782.093
-761.483
-737.884
-710.447
-678.392
-642.061
-602.348
-560.575
-518.203
-476.691
-437.403
-401.076
-367.541
-336.254
-306.98
-279.81
-254.963
-229.037
-209.316
-190.936
-179.544
-171.507
-160.964
-136.488
-114.702
-95.7818
-77.483
-60.935
-46.2632
-34.0498
-23.8959
-14.6753
-9.0621
-5.84561
-2.8526
-0.829882
0.819434
2.02931
2.90845
3.47644
3.8041
3.89633
3.71554
3.26623
2.81203
2.86004
3.2017
3.14717
2.70336
1.88576
0.690407
-647.725
-642.845
-638.032
-632.52
-627.096
-618.926
-609.283
-599.915
-588.877
-577.927
-567.745
-556.567
-549.981
-544.509
-536.305
-527.883
-520.246
-512.663
-506.493
-501.538
-499.249
-500.033
-501.102
-503.012
-502.531
-506.312
-510.3
-551.72
-603.911
-628.517
-648.888
-666.612
-683.263
-700.688
-719.914
-740.018
-759.38
-777.68
-794.569
-809.764
-825.535
-839.252
-846.186
-849.363
-846.058
-839.813
-838.53
-823.675
-803.21
-787.052
-764.826
-740.565
-712.534
-680.188
-643.801
-604.204
-562.682
-520.64
-479.396
-440.114
-403.427
-369.206
-337.051
-306.853
-279.408
-253.685
-226.62
-206.547
-187.536
-176.046
-167.754
-158.055
-133.207
-110.626
-91.7714
-73.4427
-56.8715
-42.2788
-30.2536
-20.3648
-11.1839
-5.41956
-3.05365
-0.187844
1.45968
2.91567
3.90795
4.60753
5.03192
5.26028
5.28582
5.03777
4.467
3.81718
3.64483
3.8739
3.71636
2.99478
2.12029
0.966755
-647.747
-642.812
-638.01
-632.527
-627.131
-618.944
-609.247
-599.921
-588.852
-577.833
-567.588
-556.265
-549.847
-544.511
-536.271
-527.813
-519.983
-512.085
-505.562
-500.098
-497.214
-497.938
-498.986
-501.368
-500.648
-502.541
-504.801
-538.508
-600.166
-628.115
-648.328
-666.092
-682.739
-700.302
-719.825
-740.25
-759.94
-778.695
-796.514
-812.494
-828.816
-843.553
-851.194
-854.402
-850.795
-844.335
-841.8
-831.41
-806.927
-791.518
-768.436
-743.519
-714.88
-682.205
-645.708
-606.172
-564.853
-523.108
-482.107
-442.819
-405.771
-370.865
-337.832
-306.67
-278.9
-252.223
-224.028
-203.585
-183.864
-172.026
-163.906
-155.11
-129.422
-106.148
-87.3513
-69.0231
-52.467
-37.9987
-26.1553
-16.5706
-7.68921
-1.58635
0.053464
2.6358
3.87661
5.12022
5.88691
6.40622
6.69104
6.82632
6.79197
6.48998
5.82462
4.99153
4.55975
4.62724
4.34739
3.2991
2.34315
1.22671
-647.759
-642.778
-637.988
-632.536
-627.166
-618.963
-609.212
-599.922
-588.832
-577.743
-567.439
-555.981
-549.703
-544.519
-536.269
-527.755
-519.705
-511.463
-504.538
-498.519
-495.003
-495.632
-496.534
-499.154
-498.678
-499.164
-501.238
-529.232
-597.495
-627.681
-647.833
-665.581
-682.192
-699.891
-719.733
-740.496
-760.542
-779.809
-798.583
-815.387
-832.389
-848.099
-856.466
-859.684
-855.843
-848.97
-844.532
-838.62
-812.803
-796.075
-772.356
-746.744
-717.488
-684.438
-647.775
-608.245
-567.085
-525.607
-484.831
-445.522
-408.104
-372.507
-338.589
-306.44
-278.292
-250.572
-221.27
-200.45
-180.015
-167.65
-159.669
-151.544
-125.094
-101.336
-82.5272
-64.2084
-47.7048
-33.405
-21.7194
-12.4043
-4.1329
2.29429
3.37733
5.5843
6.42405
7.43443
7.975
8.31716
8.4735
8.53049
8.44533
8.1022
7.38713
6.41483
5.68178
5.43605
4.90538
3.59308
2.60346
1.49401
-647.763
-642.742
-637.967
-632.549
-627.201
-618.984
-609.178
-599.914
-588.814
-577.654
-567.299
-555.722
-549.553
-544.533
-536.298
-527.707
-519.41
-510.796
-503.423
-496.779
-492.653
-493.13
-493.797
-496.495
-496.417
-496.295
-497.817
-519.743
-594.933
-627.081
-647.44
-665.102
-681.631
-699.461
-719.642
-740.762
-761.19
-781.029
-800.784
-818.445
-836.277
-852.829
-862.102
-865.289
-861.258
-853.644
-847.008
-843.297
-819.58
-800.8
-776.61
-750.245
-720.36
-686.883
-649.996
-610.414
-569.372
-528.139
-487.574
-448.226
-410.419
-374.121
-339.313
-306.175
-277.597
-248.716
-218.35
-197.139
-176.027
-162.94
-154.733
-147.046
-120.288
-96.2036
-77.3039
-58.9883
-42.5718
-28.4864
-16.9338
-7.76511
-0.434487
6.14272
6.78378
8.61096
9.0906
9.8436
10.1553
10.3157
10.3481
10.3358
10.1998
9.81952
9.112
8.09291
7.08194
6.4142
5.52574
3.93362
2.88064
1.69679
-647.759
-642.704
-637.946
-632.563
-627.235
-619.006
-609.146
-599.891
-588.789
-577.562
-567.165
-555.498
-549.4
-544.554
-536.358
-527.669
-519.095
-510.085
-502.223
-494.869
-490.186
-490.411
-490.838
-493.488
-493.89
-493.716
-494.671
-510.591
-592.017
-626.262
-647.206
-664.675
-681.063
-699.014
-719.559
-741.05
-761.887
-782.356
-803.112
-821.648
-840.482
-857.72
-868.205
-871.313
-867.1
-858.458
-849.524
-844.891
-826.346
-805.73
-781.205
-754.038
-723.499
-689.539
-652.365
-612.673
-571.708
-530.706
-490.345
-450.938
-412.715
-375.694
-339.998
-305.888
-276.813
-246.647
-215.278
-193.635
-171.928
-157.976
-149.366
-141.794
-115.091
-90.7426
-71.6757
-53.3556
-37.057
-23.2352
-11.8129
-2.59338
3.48187
9.9075
10.2338
11.6702
11.8479
12.2999
12.3554
12.3069
12.1949
12.0721
11.8264
11.3634
10.6735
9.68642
8.50626
7.44248
6.18757
4.36742
3.11826
1.77902
-647.746
-642.665
-637.924
-632.579
-627.267
-619.027
-609.116
-599.843
-588.746
-577.462
-567.032
-555.32
-549.248
-544.58
-536.447
-527.64
-518.759
-509.328
-500.941
-492.797
-487.582
-487.415
-487.715
-490.207
-491.094
-491.252
-492.023
-502.726
-588.145
-625.34
-647.222
-664.32
-680.498
-698.559
-719.49
-741.368
-762.634
-783.784
-805.552
-824.991
-844.99
-862.734
-874.855
-877.829
-873.475
-863.684
-852.507
-846.461
-832.183
-810.938
-786.145
-758.143
-726.91
-692.407
-654.879
-615.013
-574.085
-533.307
-493.151
-453.663
-414.987
-377.217
-340.634
-305.58
-275.901
-244.399
-212.065
-189.934
-167.785
-152.793
-143.79
-136.297
-109.576
-84.9401
-65.6294
-47.3038
-31.1491
-17.6398
-6.39108
3.12309
7.80096
13.511
13.7673
14.7511
14.6805
14.8051
14.6285
14.4183
14.1934
13.8762
13.3607
12.7242
12.0385
11.0689
9.72714
8.31005
6.66113
4.73081
3.30595
1.6328
-647.724
-642.625
-637.901
-632.597
-627.298
-619.041
-609.088
-599.765
-588.668
-577.351
-566.901
-555.193
-549.104
-544.613
-536.564
-527.619
-518.4
-508.527
-499.574
-490.573
-484.805
-484.107
-484.47
-486.707
-488.017
-488.757
-489.948
-496.691
-582.568
-624.498
-647.484
-664.052
-679.943
-698.099
-719.443
-741.72
-763.429
-785.302
-808.094
-828.479
-849.811
-867.842
-882.069
-884.882
-880.496
-869.691
-856.262
-849.93
-837.812
-816.543
-791.446
-762.585
-730.601
-695.488
-657.534
-617.426
-576.494
-535.944
-496.002
-456.406
-417.231
-378.677
-341.206
-305.23
-274.818
-241.984
-208.716
-186.046
-163.661
-147.307
-138.018
-130.75
-103.801
-78.7474
-59.1464
-40.8224
-24.8349
-11.6776
-0.707308
9.29809
12.7206
16.9785
17.4225
17.8968
17.6385
17.4623
17.1573
16.9557
16.8165
16.3313
15.2454
14.2022
13.6124
12.7665
11.3596
10.0256
8.352
5.56884
3.5633
1.97978
-647.695
-642.585
-637.877
-632.615
-627.327
-619.045
-609.061
-599.654
-588.537
-577.223
-566.775
-555.113
-548.973
-544.653
-536.704
-527.605
-518.02
-507.683
-498.121
-488.203
-481.838
-480.51
-481.088
-483.002
-484.666
-486.072
-488.038
-492.576
-575.51
-623.771
-647.794
-663.884
-679.407
-697.645
-719.428
-742.111
-764.268
-786.898
-810.724
-832.134
-854.969
-873.104
-889.923
-892.478
-888.169
-876.686
-861.545
-855.611
-843.946
-822.652
-797.132
-767.39
-734.583
-698.788
-660.328
-619.902
-578.925
-538.617
-498.909
-459.184
-419.45
-380.06
-341.695
-304.805
-273.519
-239.387
-205.251
-181.996
-159.635
-141.524
-132.302
-125.407
-97.7282
-72.0824
-52.2004
-33.8944
-18.0991
-5.31478
5.2118
15.7268
18.3199
20.5892
21.2854
21.1932
20.7972
20.3144
19.7234
19.071
18.4787
17.7464
16.6659
15.4972
14.4934
13.2617
11.6859
10.1966
8.45301
5.93215
3.52094
1.71817
-647.657
-642.546
-637.851
-632.633
-627.352
-619.045
-609.036
-599.511
-588.35
-577.082
-566.655
-555.077
-548.86
-544.702
-536.868
-527.595
-517.617
-506.796
-496.581
-485.688
-478.681
-476.641
-477.515
-479.087
-481.066
-483.112
-485.832
-489.416
-567.43
-622.95
-648.019
-663.834
-678.9
-697.204
-719.455
-742.546
-765.146
-788.558
-813.43
-835.991
-860.433
-878.709
-898.891
-900.526
-896.395
-884.632
-868.518
-863.169
-850.819
-829.346
-803.24
-772.588
-738.872
-702.312
-663.26
-622.43
-581.367
-541.322
-501.868
-461.987
-421.664
-381.397
-342.097
-304.261
-271.96
-236.608
-201.702
-177.842
-155.855
-135.88
-127.986
-120.629
-91.1778
-64.8595
-44.7598
-26.4963
-10.9246
1.48956
11.3827
22.1772
24.6672
24.6775
25.482
24.6989
24.0773
23.1429
22.2405
21.1988
20.1208
18.9394
17.5833
16.1362
14.7983
13.3241
11.613
9.97131
8.24091
5.87068
3.38337
1.5611
-647.611
-642.507
-637.825
-632.65
-627.372
-619.045
-609.014
-599.342
-588.141
-576.932
-566.542
-555.08
-548.771
-544.759
-537.052
-527.59
-517.193
-505.858
-494.951
-483.037
-475.351
-472.481
-473.737
-474.977
-477.238
-479.887
-483.049
-486.246
-558.577
-621.599
-648.132
-663.944
-678.434
-696.787
-719.537
-743.029
-766.058
-790.26
-816.197
-840.088
-866.184
-884.933
-909.064
-908.745
-905.063
-893.468
-877.12
-872.115
-858.478
-836.689
-809.817
-778.211
-743.491
-706.073
-666.334
-625.003
-583.806
-544.036
-504.854
-464.805
-423.871
-382.708
-342.433
-303.564
-270.095
-233.658
-198.111
-173.702
-152.505
-130.841
-126.5
-115.586
-83.8221
-56.9963
-36.791
-18.5977
-3.29323
8.78247
17.9052
28.3805
31.7165
29.4087
30.0551
28.4039
27.4351
25.9791
24.6509
23.2448
21.8252
20.3281
18.7123
16.9903
15.2716
13.4515
11.6564
10.0386
8.25903
5.94964
3.43106
1.42873
-647.555
-642.468
-637.797
-632.662
-627.387
-619.044
-608.999
-599.165
-587.956
-576.783
-566.44
-555.113
-548.708
-544.827
-537.254
-527.59
-516.749
-504.863
-493.23
-480.274
-471.869
-468.049
-469.815
-470.695
-473.196
-476.391
-479.812
-482.858
-548.579
-618.787
-648.277
-664.255
-678.025
-696.407
-719.687
-743.566
-766.993
-791.977
-819.008
-844.444
-872.243
-892.018
-919.669
-916.804
-914.086
-903.075
-888.216
-882.042
-866.898
-844.728
-816.921
-784.299
-748.47
-710.086
-669.555
-627.613
-586.228
-546.739
-507.836
-467.613
-426.061
-383.991
-342.709
-302.704
-267.897
-230.526
-194.474
-169.655
-149.228
-126.816
-125.966
-106.458
-75.3197
-48.4288
-28.2586
-10.1629
4.81569
16.5965
24.9273
34.0481
39.475
34.7233
34.948
32.3242
30.8551
28.8336
27.0588
25.2445
23.4576
21.6551
19.7747
17.7506
15.6633
13.6337
11.7937
10.0945
8.16303
5.7975
3.25299
1.26674
-647.489
-642.427
-637.765
-632.67
-627.396
-619.044
-608.996
-598.994
-587.821
-576.65
-566.354
-555.17
-548.675
-544.906
-537.471
-527.596
-516.284
-503.806
-491.42
-477.432
-468.271
-463.411
-465.808
-466.264
-468.943
-472.633
-476.235
-479.277
-536.627
-613.919
-648.603
-664.634
-677.702
-696.079
-719.917
-744.16
-767.936
-793.674
-821.844
-849.063
-878.6
-900.074
-930.077
-924.541
-923.655
-913.582
-900.929
-892.721
-876.07
-853.49
-824.617
-790.899
-753.849
-714.379
-672.94
-630.254
-588.615
-549.409
-510.789
-470.381
-428.218
-385.239
-342.942
-301.665
-265.311
-227.133
-190.634
-165.454
-145.24
-122.303
-122.548
-93.3089
-65.711
-39.1395
-19.1288
-1.15351
13.4291
24.9516
32.7257
39.0471
47.4633
40.5258
40.0174
36.4386
34.3775
31.8118
29.5528
27.3112
25.137
23.0073
20.8454
18.5467
16.1956
13.9876
12.0395
10.1965
8.11896
5.7471
3.25402
1.2613
-647.416
-642.379
-637.727
-632.671
-627.398
-619.048
-609.01
-598.838
-587.755
-576.547
-566.287
-555.246
-548.675
-544.997
-537.701
-527.604
-515.797
-502.686
-489.526
-474.534
-464.547
-458.762
-461.583
-461.69
-464.48
-468.63
-472.416
-475.689
-523.105
-606.969
-649.055
-664.98
-677.538
-695.819
-720.242
-744.815
-768.872
-795.323
-824.69
-853.931
-885.207
-909.087
-940.058
-932.205
-934.269
-925.006
-913.807
-904.014
-886.039
-862.998
-832.974
-798.066
-759.678
-718.988
-676.512
-632.928
-590.941
-552.004
-513.681
-473.081
-430.335
-386.462
-343.139
-300.424
-262.322
-223.327
-186.387
-160.627
-139.909
-116.482
-113.329
-78.8571
-55.3462
-29.1519
-9.37366
8.46736
22.5833
33.8326
41.6247
44.031
54.708
46.4806
45.1237
40.7779
38.0185
34.9483
32.187
29.5178
26.9601
24.4728
21.9826
19.3908
16.781
14.3961
12.3119
10.3128
8.10309
5.71025
3.24672
1.22724
-647.334
-642.321
-637.685
-632.666
-627.392
-619.052
-609.039
-598.695
-587.766
-576.48
-566.242
-555.337
-548.711
-545.101
-537.942
-527.616
-515.285
-501.509
-487.558
-471.598
-460.676
-454.208
-456.878
-456.953
-459.805
-464.423
-468.425
-472.339
-510.107
-598.474
-648.959
-665.34
-677.753
-695.646
-720.675
-745.533
-769.783
-796.893
-827.526
-859.009
-892.031
-918.867
-949.338
-940.483
-946.184
-937.151
-926.601
-915.982
-896.891
-873.286
-842.065
-805.865
-766.02
-723.963
-680.309
-635.647
-593.19
-554.473
-516.464
-475.688
-432.416
-387.687
-343.334
-299.006
-258.928
-218.837
-181.577
-154.902
-133.165
-110.212
-101.412
-64.9372
-44.5311
-18.5008
1.03058
18.7324
32.3226
43.1816
51.688
50.0957
60.7554
52.4466
50.1776
45.4
41.8448
38.2739
34.9721
31.8413
28.8622
25.992
23.1498
20.2595
17.4255
14.8746
12.6314
10.4645
8.13178
5.71428
3.2648
1.20684
-647.238
-642.255
-637.64
-632.655
-627.379
-619.055
-609.083
-598.562
-587.835
-576.45
-566.224