/*--------------------------------*- C++ -*----------------------------------*\
| =========                 |                                                 |
| \\      /  F ield         | OpenFOAM: The Open Source CFD Toolbox           |
|  \\    /   O peration     | Version:  4.1                                   |
|   \\  /    A nd           | Web:      www.OpenFOAM.org                      |
|    \\/     M anipulation  |                                                 |
\*---------------------------------------------------------------------------*/
FoamFile
{
    version     2.0;
    format      ascii;
    class       surfaceScalarField;
    location    "100";
    object      phi;
}
// * * * * * * * * * * * * * * * * * * * * * * * * * * * * * * * * * * * * * //

dimensions      [0 3 -1 0 0 0 0];

internalField   nonuniform List<scalar> 
52920
(
14.4085
65.6384
-11.1642
25.5895
14.4717
-25.6036
76.1542
-61.6459
112.609
-36.3986
179.004
-66.3726
282.297
-103.264
382.955
-100.639
488.963
-105.986
596.859
-107.874
684.452
-87.569
747.792
-63.3175
850.984
-103.171
979.679
-128.678
967.783
11.9142
783.138
184.662
568.598
214.562
404.656
163.972
231.004
173.677
154.863
76.1732
136.907
18.0019
154.317
-17.3379
361.08
-206.682
538.85
-177.693
441.435
97.4479
276.92
164.54
146.836
130.101
365.63
-218.773
1027.9
-662.249
1428.4
-400.48
1612.35
-183.929
1787.23
-174.856
1864.03
-76.7725
1959.04
-94.9849
2040
-80.9424
2027.88
12.1366
1927.01
100.895
1690.61
236.425
1463.79
226.841
1408.69
55.1284
1432.73
-24.0179
1452.92
-20.1745
1448.22
4.71848
1367.28
80.9611
1248.12
119.177
1086.29
161.861
960.568
125.75
760.844
199.734
504.921
255.947
768.696
-263.775
969.571
-200.863
1270.86
-301.286
1486.26
-215.392
1135.34
350.925
459.482
675.865
-674.063
1133.54
-2547.11
1873.05
-4119.7
1572.58
-4257.76
138.073
-3794.95
-462.824
-3606.4
-188.542
-3553.99
-52.4204
-3474.81
-79.179
-3352.66
-122.164
-3200.95
-151.708
-3049.2
-151.76
-2921.66
-127.538
-2797.57
-124.103
-2648.92
-148.652
-2529.47
-119.457
-2581.87
52.3947
-2756.29
174.411
-2822.09
65.7972
-2847.81
25.7242
-2869.85
22.0414
-2886.79
16.936
-2894.42
7.63184
-2876.67
-17.7595
-2837.49
-39.1723
-2798.53
-38.9628
-2778.18
-20.3449
-2773.54
-4.64347
-2767.83
-5.70937
-2742.72
-25.1111
-2695.8
-46.926
-2634.29
-61.5075
-2560.56
-73.7332
-2461.9
-98.658
-2338.24
-123.657
-2227.67
-110.58
-2166.59
-61.0708
-2139.19
-27.4015
-2104.64
-34.5575
-2074.43
-30.2041
-2036.46
-37.9771
-1974.36
-62.095
-1902.46
-71.9052
-1807.62
-94.841
-1764.09
-43.5273
1.44362
32.3029
111.915
35.0259
22.8795
73.6035
-64.155
129.219
-117.231
164.468
-71.5991
227.301
-129.186
309.015
-184.953
389.199
-180.806
484.261
-201.027
588.68
-212.273
678.22
-177.086
772.677
-157.753
889.439
-219.912
920.958
-160.178
787.664
145.227
602.425
369.919
517.632
299.377
618.245
63.3915
542.102
249.836
263.578
354.714
201.297
80.3102
392.234
-208.209
779.608
-593.95
1012.09
-410.073
973.298
136.277
1096.53
41.3384
565.409
661.245
87.0033
259.667
132.597
-707.827
511.555
-779.423
1061.25
-733.607
1465.63
-579.213
1658.54
-269.651
1831.52
-267.948
1978.31
-227.711
1959.25
31.2225
1817.68
242.479
1605.88
448.247
1406.62
426.133
1355.36
106.404
1382.65
-51.2848
1392.63
-30.1377
1359.51
37.8614
1243.86
196.638
1102.18
260.876
932.159
331.913
764.853
293.091
468.135
496.464
287.159
436.946
684.238
-660.852
554.284
-70.8957
-18.0095
271.01
-271.18
37.7945
-334.879
414.62
-651.858
992.852
-1116.63
1598.3
-1732.35
2488.77
-2761.18
2601.4
-3681.64
1058.53
-3798.24
-346.229
-3557.11
-429.671
-3450.53
-159.014
-3408.07
-121.633
-3308.09
-222.151
-3177.01
-282.785
-3035.63
-293.158
-2905.99
-257.178
-2775.6
-254.507
-2616.63
-307.622
-2483.73
-252.362
-2498.2
66.856
-2639.5
315.705
-2713.49
139.782
-2748.65
60.8862
-2783.47
56.859
-2811.87
45.3384
-2824.31
20.0761
-2814.27
-27.801
-2791.03
-62.4176
-2769.89
-60.1028
-2757.7
-32.5313
-2747
-15.3417
-2729.67
-23.0397
-2699.91
-54.8666
-2649.26
-97.5759
-2579.37
-131.4
-2500.87
-152.229
-2395.63
-203.906
-2256.09
-263.196
-2137.78
-228.887
-2088.54
-110.309
-2074.79
-41.1537
-2048.66
-60.686
-2029.65
-49.2179
-2018.06
-49.5725
-1963.13
-117.018
-1871.68
-163.363
-1777.22
-189.3
-1740.96
-79.7878
2.23551
42.9548
144.732
61.6754
4.17047
104.39
-106.845
155.728
-168.543
191.112
-106.939
249.037
-187.093
315.73
-251.623
386.463
-251.524
479.658
-294.202
581.954
-314.55
664.376
-259.487
741.035
-234.392
811.519
-290.376
785.346
-133.985
627.21
303.381
473.231
523.913
413.955
358.677
497.492
-20.1059
448.049
299.298
250.309
552.47
253.127
77.5149
505.947
-460.987
876.114
-964.051
1077.27
-611.174
1149.88
63.6981
1302.64
-111.404
1078.47
885.434
606.899
731.269
290.01
-390.923
297.524
-786.922
484.648
-920.717
901.609
-996.156
1295.7
-663.719
1618.9
-591.124
1882.68
-491.477
1869.62
44.3086
1700.29
411.83
1526.44
622.118
1351.39
601.213
1302.49
155.321
1340.16
-88.9351
1353.14
-43.1004
1300.23
90.7874
1143.68
353.209
963.761
440.813
770.075
525.624
550.935
512.267
233.578
813.835
64.2345
606.315
-8.92692
-587.692
-320.237
240.431
-595.927
546.706
-736.381
178.27
-743.654
421.891
-819.155
1068.37
-1041.49
1820.63
-1351.56
2798.86
-1994.33
3244.17
-2890.62
1954.83
-3411.65
174.793
-3454.17
-387.141
-3375.72
-237.478
-3340.04
-157.309
-3265.47
-296.732
-3149.46
-398.799
-3019.72
-422.91
-2887.19
-389.711
-2743.82
-397.885
-2573.69
-477.752
-2418.65
-407.416
-2405.47
53.6749
-2544.51
454.746
-2628.71
223.98
-2665.92
98.0925
-2705.63
96.5699
-2740.45
80.1594
-2759.89
39.5127
-2762.25
-25.4421
-2755.59
-69.0783
-2750.36
-65.3309
-2744.52
-38.3723
-2728.33
-31.5374
-2704.18
-47.1868
-2680.22
-78.8235
-2639.23
-138.574
-2559.36
-211.27
-2440.41
-271.18
-2286.89
-357.422
-2143.44
-406.649
-2081.88
-290.449
-2094.4
-97.7909
-2089.99
-45.5587
-2037.07
-113.609
-1985.03
-101.265
-1977.32
-57.2751
-1962.19
-132.151
-1859.94
-265.613
-1733.27
-315.976
-1704.28
-108.78
13.5365
51.8992
165.433
79.5963
-23.5176
121.653
-148.881
170.301
-217.167
205.908
-142.505
258.515
-239.684
315.818
-308.904
384.915
-320.606
478.537
-387.806
572.217
-408.213
635.906
-323.154
684.691
-283.157
713.213
-318.877
668.297
-89.0448
528.273
443.422
399.709
652.493
352.106
406.304
395.072
-63.0299
341.358
353.029
256.085
637.758
406.315
-72.6961
582.553
-637.203
671.93
-1053.4
859.367
-798.57
1052.63
-129.535
1016.76
-75.5176
886.726
1015.48
587.712
1030.32
423.987
-227.176
452.452
-815.368
424.027
-892.275
537.368
-1109.48
827.855
-954.184
1203.72
-966.965
1609.85
-897.589
1725.6
-71.4179
1592.03
545.425
1466.64
747.528
1311.65
756.229
1256.29
210.693
1296.93
-129.558
1314.03
-60.1739
1251.22
153.615
1059.85
544.604
837.236
663.453
607.972
754.919
311.997
808.284
-68.2517
1194.1
-386.946
925.042
-468.764
-505.87
-455.819
227.507
-538.541
629.434
-606.49
246.238
-648.791
464.19
-777.729
1197.31
-1015.38
2058.28
-1259.89
3043.36
-1682.32
3666.59
-2413.62
2686.13
-3048.8
809.961
-3330.21
-105.725
-3347.9
-219.809
-3290.09
-215.111
-3223.64
-363.191
-3119.39
-503.051
-3000.8
-541.507
-2865.62
-524.892
-2702.49
-561.023
-2521.5
-658.746
-2340.27
-588.661
-2300.71
14.1125
-2449.95
603.983
-2550.27
324.3
-2595.4
143.212
-2637.94
139.115
-2675.49
117.712
-2702.47
66.4891
-2719.12
-8.79074
-2728.16
-60.0315
-2736.59
-56.9079
-2736.01
-38.9525
-2713.23
-54.313
-2679.55
-80.8697
-2650.42
-107.945
-2601.28
-187.718
-2500.78
-311.768
-2345.25
-426.711
-2179.5
-523.174
-2092.07
-494.077
-2105.68
-276.846
-2127.34
-76.1241
-2073.05
-99.8552
-1996.76
-189.895
-1943.1
-154.931
-1935.71
-64.6672
-1974.2
-93.6617
-1853.34
-386.471
-1658.8
-510.517
-1649.04
-118.536
53.3367
60.1443
174.84
92.9231
-56.2864
131.817
-187.754
177.122
-262.45
212.289
-177.635
261.685
-289.066
316.119
-363.318
388.158
-392.632
479.591
-479.223
558.008
-486.612
602.014
-367.139
633.08
-314.203
636.273
-322.051
586.276
-39.021
470.182
559.531
355.973
766.717
311.591
450.71
333.115
-84.513
275.93
410.231
313.287
600.418
608.255
-367.637
794.264
-823.192
778.454
-1037.57
865.546
-885.638
1055.73
-319.694
1059.68
-79.4548
1166.83
908.336
1003.19
1193.98
732.943
43.0915
637.497
-719.902
582.08
-836.842
550.142
-1077.53
611.485
-1015.51
824.162
-1179.62
1281.88
-1355.29
1575.07
-364.59
1521.53
598.995
1429.31
839.76
1290.66
894.913
1222.15
279.22
1257.36
-164.754
1275.34
-78.1367
1208.29
220.685
987.867
765.043
728.925
922.417
464.441
1019.43
130.773
1142
-298.751
1623.64
-455.639
1081.96
-314.47
-647.041
-250.422
163.474
-353.029
732.048
-470.876
364.107
-650.743
644.056
-885.58
1432.16
-1106.25
2278.95
-1248.86
3185.98
-1472.26
3890
-2071.38
3285.25
-2735.96
1474.54
-3147.89
306.208
-3309.25
-58.4545
-3287.32
-237.037
-3202.04
-448.491
-3089.65
-615.432
-2981.71
-649.461
-2847.85
-658.752
-2660.74
-748.147
-2466.72
-852.769
-2260.34
-795.049
-2190.39
-55.844
-2348.96
762.556
-2467.85
443.185
-2528.31
203.67
-2574.63
185.442
-2615.16
158.233
-2650.57
101.901
-2682.19
22.8255
-2705.58
-36.6437
-2722.96
-39.5224
-2725.48
-36.4382
-2700.28
-79.5094
-2661.46
-119.689
-2615.86
-153.548
-2530.81
-272.776
-2399.36
-443.214
-2248.97
-577.1
-2138.57
-633.579
-2121.98
-510.666
-2154.59
-244.235
-2132.31
-98.4031
-2056.22
-175.955
-2017.42
-228.687
-1971.12
-201.238
-1897.35
-138.438
-1952.09
-38.9232
-1823.43
-515.136
-1571.3
-762.641
-1574.41
-115.433
146.404
67.2597
172.744
104.376
-93.3954
138.938
-222.297
177.863
-301.354
211.091
-210.828
261.026
-338.987
318.465
-420.737
394.781
-468.936
479.945
-564.371
540.74
-547.391
566.117
-392.495
585.979
-334.043
574.261
-310.31
522.979
12.2901
431.337
651.189
331.054
867.016
291.568
490.221
296.194
-89.1014
230.543
475.899
305.498
525.48
593.82
-655.928
799.13
-1028.48
852.526
-1090.94
880.072
-913.158
1049.73
-489.323
1121.54
-151.246
1143.37
886.504
1090.77
1246.6
946.731
187.17
778.801
-551.946
651.434
-709.453
569.609
-995.682
537.8
-983.68
541.755
-1183.56
907.088
-1720.61
1439.59
-897.074
1526.69
511.921
1420.86
945.609
1292.71
1023.09
1203
368.949
1224.14
-185.88
1238.71
-92.6928
1169.01
290.403
919.268
1014.81
634.515
1207.2
337.979
1316.01
32.2556
1447.78
-351.124
2007.04
-344.793
1075.67
-140.465
-851.363
-105.929
128.953
-248.727
874.848
-483.217
598.616
-719.108
879.945
-923.87
1636.94
-1079.91
2434.98
-1141.22
3247.3
-1206.37
3955.14
-1616.78
3695.66
-2308.99
2166.74
-2832.51
829.731
-3118.98
228.004
-3241.39
-114.634
-3204.28
-485.613
-3079.77
-739.939
-2961.62
-767.624
-2829.98
-790.384
-2620.38
-957.759
-2411.89
-1061.26
-2185.03
-1021.92
-2080.45
-160.432
-2245.53
927.637
-2381.67
579.324
-2460.46
282.452
-2512.18
237.165
-2557.62
203.669
-2601.89
146.18
-2646.87
67.7989
-2681.58
-1.93052
-2701.65
-19.4541
-2703.27
-34.8185
-2679.55
-103.222
-2641.74
-157.501
-2579.06
-216.23
-2456.17
-395.661
-2306.37
-593.019
-2194.8
-688.668
-2154.72
-673.654
-2166.52
-498.87
-2155.96
-254.796
-2067.68
-186.686
-1969.99
-273.642
-1916.94
-281.742
-1817.8
-300.373
-1587.18
-369.059
-1540.9
-85.2079
-1595.43
-460.615
-1624.16
-733.907
-1610.27
-129.324
157.523
75.3474
160.327
115.519
-133.558
146.126
-252.884
176.192
-331.401
204.521
-239.125
256.806
-391.259
320.688
-484.6
400.625
-548.862
476.173
-639.904
520.592
-591.795
531.525
-403.407
546.074
-348.572
532.165
-296.38
478.485
65.9972
399.936
729.752
318.396
948.57
285.978
522.663
266.034
-69.1246
183.937
558.011
296.39
413.048
595.021
-954.533
812.119
-1245.55
881.32
-1160.13
863.554
-895.378
1020.78
-646.532
1166.56
-297.008
1136.66
916.415
1160.85
1222.42
1075.11
272.931
813.618
-290.431
660.661
-556.479
573.307
-908.311
522.975
-933.331
455.749
-1116.32
605.798
-1870.64
1182.82
-1474.08
1478.65
216.117
1408.05
1016.24
1301.49
1129.68
1186.88
483.579
1191.51
-190.495
1201.58
-102.752
1130.92
361.076
852.115
1293.64
553.678
1505.66
222.649
1647.07
-55.9712
1726.45
-353.741
2304.83
-209.924
931.876
-89.2103
-972.079
-136.834
176.59
-270.589
1008.61
-510.617
838.663
-739.931
1109.26
-876.747
1773.77
-964.355
2522.59
-991.551
3274.5
-1006.29
3969.88
-1240.97
3930.34
-1809.82
2735.58
-2373.24
1393.16
-2766.65
621.408
-3052.41
171.127
-3172.54
-365.493
-3070.29
-842.193
-2918.22
-919.705
-2793.81
-914.792
-2574.93
-1176.66
-2355.05
-1281.14
-2113.79
-1263.19
-1971.21
-303.015
-2140.67
1097.1
-2292.35
731
-2392.88
382.98
-2451.85
296.138
-2501.31
253.127
-2553.82
198.687
-2610.01
123.985
-2654.21
42.2766
-2676.57
2.90373
-2677.26
-34.1296
-2652.38
-128.103
-2606.73
-203.157
-2512.78
-310.185
-2360.5
-547.938
-2229.44
-724.075
-2166.01
-752.102
-2154.96
-684.708
-2150.83
-503.001
-2084.09
-321.533
-1943.63
-327.145
-1808.3
-408.973
-1623.92
-466.126
-1185.94
-738.351
-331.735
-1223.27
834.473
-1251.42
61.6373
312.217
-1651.87
979.592
-2331.19
550.002
160.478
83.0329
138.281
125.472
-175.99
153.119
-280.513
173.929
-352.193
195.4
-260.563
250.089
-445.935
320.927
-555.422
402.401
-630.325
466.349
-703.837
496.47
-621.9
498.653
-405.568
513.499
-363.398
504.498
-287.356
446.245
124.278
371.061
804.95
312.953
1006.69
291.91
543.729
245.572
-22.7575
162.37
641.228
347.026
228.413
654.758
-1262.25
819.876
-1410.64
871.05
-1211.28
780.673
-804.983
721.398
-587.234
664.369
-239.963
516.748
1064.04
491.25
1247.93
536.697
227.506
607.571
-361.285
602.572
-551.461
569.299
-875.019
558.441
-922.455
454.064
-1011.92
307.869
-1724.44
757.645
-1923.85
1331.52
-357.746
1386.4
961.383
1274.94
1241.16
1152.04
606.504
1154.58
-193.021
1162.47
-110.628
1092.82
430.747
798.135
1588.35
509.712
1794.11
176.67
1980.15
-74.6097
1977.79
-325.146
2555.39
-52.9468
659.702
-41.4694
-983.551
-285.496
420.631
-474.527
1197.64
-609.509
973.664
-790.559
1290.31
-895.17
1878.39
-958.657
2586.07
-997.885
3313.74
-1011.29
3983.28
-1133.8
4052.85
-1520.35
3122.12
-2009.22
1882.03
-2405.63
1017.8
-2751.79
517.279
-3037.76
-79.535
-3032.59
-847.356
-2860.23
-1092.07
-2735.89
-1039.14
-2520.79
-1391.76
-2295.39
-1506.54
-2047.81
-1510.79
-1863.03
-487.799
-2033.84
1267.9
-2196.57
893.734
-2322.74
509.149
-2395.61
369.008
-2447.25
304.761
-2502.54
253.981
-2565.31
186.754
-2617.68
94.6454
-2643.62
28.848
-2644.2
-33.555
-2621.11
-151.187
-2570.56
-253.709
-2442.12
-438.627
-2272.28
-717.779
-2176.32
-820.032
-2147.17
-781.248
-2134.08
-697.805
-2101.83
-535.243
-1985.96
-437.413
-1808.91
-504.189
-1637.76
-580.124
-1470.21
-633.682
-1360.73
-847.834
-1314.24
-1269.75
-1026.84
-1538.82
-232.227
-482.399
298.124
449.236
704.709
143.414
-106.827
90.5195
106.914
133.57
-219.032
157.383
-304.307
169.808
-364.599
186.487
-277.213
245.008
-504.445
320.807
-631.204
399.848
-709.357
451.263
-755.237
469.462
-640.084
466.762
-402.847
485.503
-382.119
480.381
-282.213
415.665
189.018
343.884
876.745
310.78
1039.81
305.295
549.236
246.901
35.6621
216.709
671.433
462.621
-17.4747
725.719
-1525.33
766.086
-1450.98
741.585
-1186.76
507.862
-571.248
314.292
-393.651
296.961
-222.618
166.032
1194.98
32.3028
1381.67
133.188
126.632
385.572
-613.657
512.662
-678.537
541.664
-904.005
556.351
-937.125
460.769
-916.32
204.886
-1468.54
356.692
-2075.64
1093.83
-1094.87
1370.54
684.708
1215.96
1395.76
1115.03
707.461
1119.73
-197.705
1122.08
-112.972
1053.32
499.521
760.535
1881.16
500.626
2054.04
196.573
2284.24
-43.5373
2217.94
-244.999
2756.86
133.173
281.543
57.7354
-908.114
-297.763
776.149
-531.534
1431.42
-679.387
1121.53
-861.55
1472.47
-1026.3
2043.15
-1133.41
2693.17
-1175.71
3356.05
-1157.15
3964.72
-1200.87
4096.57
-1455.42
3376.66
-1832.89
2259.52
-2172.95
1357.86
-2482.13
826.453
-2821.49
259.824
-2964.97
-703.883
-2815.56
-1241.49
-2666.74
-1187.97
-2460.14
-1598.36
-2235.59
-1731.09
-1993.65
-1752.74
-1761.03
-720.426
-1930.49
1437.37
-2096.15
1059.4
-2244.56
657.555
-2340.35
464.803
-2400.15
364.558
-2453.92
307.749
-2517.71
250.541
-2577.53
154.466
-2609.01
60.323
-2608.16
-34.4074
-2583
-176.344
-2519.18
-317.526
-2368.38
-589.438
-2220.44
-865.712
-2155.55
-884.929
-2129.78
-807.02
-2096.93
-730.656
-2029.72
-602.447
-1887.26
-579.882
-1716.79
-674.658
-1565.95
-730.967
-1421.86
-777.773
-1297.6
-972.092
-1329.53
-1237.82
-1610.29
-1258.07
-1578.92
-513.771
-1435.35
305.668
-1501.87
209.929
-70.9145
96.8008
67.2643
138.337
-260.561
157.708
-323.66
164.607
-371.481
181.306
-293.882
245.023
-568.15
321.918
-708.084
394.296
-781.725
433.681
-794.608
443.867
-650.254
439.015
-397.972
461.504
-404.587
457.228
-277.911
385.215
261.055
318.627
943.346
308.679
1049.77
318.454
539.483
266.278
87.8611
294.061
643.665
507.811
-231.2
681.98
-1699.48
581.582
-1350.54
406.416
-1011.57
262.913
-427.728
315.276
-445.995
380.543
-287.869
292.701
1282.83
167.395
1506.99
227.642
66.4049
370.72
-756.72
474.325
-782.126
503.414
-933.076
523.175
-956.868
497.574
-890.701
264.291
-1235.24
68.2014
-1879.54
688.73
-1715.39
1277.98
95.4743
1216.25
1457.53
1117.56
806.173
1096
-176.128
1081.23
-98.1951
1017.26
563.505
742.903
2155.55
501.242
2295.73
227.622
2557.9
-20.9059
2466.52
-137.275
2873.25
264.716
-120.43
83.0495
-726.445
-281.289
1140.5
-475.177
1625.31
-707.096
1353.47
-999.065
1764.44
-1245.78
2289.88
-1376.94
2824.33
-1407.09
3386.21
-1355.72
3913.34
-1332.19
4073.05
-1471.52
3515.98
-1746.69
2534.68
-2039.99
1651.15
-2297.54
1084
-2603.93
566.203
-2888.34
-419.479
-2796.78
-1333.07
-2589.4
-1395.35
-2390.76
-1797.01
-2175.35
-1946.51
-1952.11
-1975.99
-1667.86
-1004.68
-1839.87
1609.37
-2000.61
1220.14
-2161.17
818.106
-2281.11
584.751
-2358.58
442.024
-2413.61
362.781
-2473.79
310.722
-2536.73
217.408
-2572.31
95.8982
-2570.62
-36.0997
-2546.16
-200.801
-2461.54
-402.144
-2294.45
-756.53
-2188.3
-971.853
-2143.88
-929.351
-2103.18
-847.718
-2051.26
-782.584
-1961.87
-691.831
-1825.29
-716.468
-1688.59
-811.352
-1568.61
-850.948
-1456.63
-889.753
-1378.75
-1049.98
-1412.04
-1204.53
-1624
-1046.11
-1719.17
-418.601
-1597.77
184.265
-1525.18
137.337
-46.7944
100.659
20.3554
138.633
-298.527
154.336
-339.343
159.968
-377.096
181.745
-315.63
250.502
-636.898
324.182
-781.749
387.058
-844.592
416.174
-823.71
421.905
-655.97
415.824
-391.87
439.877
-428.622
432.991
-271.003
354.477
339.589
296.074
1001.76
305.006
1040.86
325.58
518.93
291.854
121.608
358.31
577.222
468.385
-341.247
478.444
-1709.51
198.284
-1070.36
151.942
-965.213
317.233
-593.006
471.928
-600.673
520.827
-336.755
483.866
1319.8
305.457
1685.41
329.062
42.8121
411.29
-838.937
478.478
-849.302
488.129
-942.712
500.932
-969.655
531.173
-920.925
390.205
-1094.26
81.0624
-1570.38
231.916
-1866.24
948.101
-620.694
1238.8
1166.87
1122.64
922.355
1071.97
-125.445
1039.53
-65.7417
991.252
611.791
744.289
2402.54
510.894
2529.14
260.5
2808.32
-66.4778
2793.53
-76.5709
2883.35
372.903
-569.897
116.195
-469.737
-284.276
1541.01
-547.192
1888.23
-925.517
1731.82
-1263.5
2102.42
-1466.48
2492.88
-1553.57
2911.42
-1561.9
3394.56
-1504.75
3856.19
-1446.45
4014.76
-1504.72
3574.24
-1703.15
2733.12
-1952.21
1900.21
-2174.13
1305.93
-2433.41
825.469
-2782.77
-70.1185
-2763.58
-1352.26
-2505.95
-1652.98
-2310.88
-1992.09
-2108.25
-2149.14
-1910.82
-2173.43
-1579.11
-1336.4
-1765.51
1795.78
-1916.9
1371.54
-2080.4
981.601
-2217.2
721.557
-2315.27
540.088
-2379.45
426.96
-2436.75
368.025
-2498.42
279.072
-2534.75
132.228
-2532.68
-38.1638
-2517.84
-215.652
-2420.62
-499.362
-2244.27
-932.889
-2162.47
-1053.65
-2123.08
-968.741
-2065.23
-905.574
-1998.01
-849.801
-1896.58
-793.269
-1773.41
-839.637
-1664.58
-920.181
-1568.64
-946.888
-1481.7
-976.696
-1436.78
-1094.89
-1473.97
-1167.34
-1590.63
-929.462
-1640.44
-368.789
-1586.04
129.86
-1583.17
134.474
12.0718
102.544
-28.5253
135.029
-331.004
149.276
-353.573
157.919
-385.722
187.624
-345.308
259.509
-708.772
326.653
-848.879
378.939
-896.868
399.974
-844.731
403.211
-659.191
395.122
-383.757
418.266
-451.746
406.551
-259.26
324.633
421.528
277.34
1049.07
299.71
1018.5
325.737
492.925
313.347
134.019
372.627
517.957
365.161
-333.756
256.427
-1600.74
-66.5079
-747.397
106.494
-1138.19
381.529
-868.02
473.659
-692.783
584.443
-447.522
565.169
1339.08
313.945
1936.64
340.401
16.375
428.177
-926.697
496.204
-917.313
515.081
-961.571
536.943
-991.499
597.268
-981.233
575.808
-1072.78
336.684
-1331.25
105.765
-1635.31
599.626
-1114.55
1111.7
654.817
1046.46
987.623
1020.51
-99.4796
994.229
-39.4535
975.142
630.894
753.397
2624.31
532.784
2749.78
299.268
3041.87
-135.375
3228.21
67.182
2680.81
547.416
-1050.12
11.5667
66.1119
-682.233
2234.85
-968.536
2174.54
-1245.8
2009.1
-1426.21
2282.84
-1550.96
2617.63
-1629.26
2989.72
-1638.83
3404.14
-1580.24
3797.59
-1513.4
3947.92
-1540.36
3601.19
-1686.58
2879.34
-1891.99
2105.61
-2092.56
1506.49
-2308.22
1041.12
-2636.54
258.207
-2691.29
-1297.54
-2423.96
-1920.31
-2225.8
-2190.26
-2026.47
-2348.48
-1853.37
-2346.54
-1471.15
-1718.62
-1694.39
2019.01
-1847.99
1525.14
-2004.77
1138.38
-2152.38
869.166
-2266.39
654.099
-2344.82
505.393
-2403.59
426.789
-2462.23
337.71
-2497.65
167.65
-2494.44
-41.3683
-2484.51
-225.586
-2373.55
-610.324
-2210.68
-1095.76
-2139.44
-1124.89
-2090.72
-1017.46
-2020.16
-976.134
-1942.41
-927.548
-1839.03
-896.646
-1730.71
-947.957
-1639.89
-1011.01
-1558.88
-1027.89
-1489.1
-1046.48
-1460.75
-1123.24
-1490.08
-1138.01
-1551.81
-867.735
-1584.27
-336.323
-1568.43
114.015
-1587.94
153.983
80.3451
102.264
-76.6147
130.096
-358.827
146.561
-370.021
161.414
-400.558
198.202
-382.072
269.489
-780.05
328.21
-907.588
370.127
-938.776
384.752
-859.343
385.647
-660.071
375.091
-373.18
395.534
-472.171
377.207
-240.908
297.024
501.729
263.256
1082.85
293.854
987.922
321.38
465.419
318.313
137.106
406.369
429.916
322.478
-249.841
120.478
-1398.69
-156.996
-469.908
191.586
-1486.75
430.315
-1106.73
440.679
-703.133
608.814
-615.643
567.177
1380.72
230.771
2273.05
285.003
-37.8468
424.542
-1066.23
524.182
-1016.94
578.638
-1016.01
624.618
-1037.46
696.616
-1053.21
739.457
-1115.61
628.609
-1220.38
361.792
-1368.47
400.415
-1153.16
793.67
261.583
943.178
838.135
955.099
-111.391
940.79
-25.1336
962.71
608.986
767.444
2819.6
561.118
2956.12
340.379
3262.64
-119.357
3687.97
288.513
2272.95
650.407
-1412.01
-269.745
986.265
-1047.83
3012.98
-1207.7
2334.42
-1374.65
2176.06
-1525.52
2433.71
-1631.53
2723.65
-1694.22
3052.4
-1696.28
3406.21
-1640.78
3742.09
-1573.85
3881
-1577.73
3605.07
-1681.49
2983.1
-1849.73
2273.86
-2032.73
1689.49
-2207.78
1216.17
-2487.49
537.913
-2606.74
-1178.29
-2345.92
-2181.13
-2140.75
-2395.44
-1932.9
-2556.33
-1799.1
-2480.35
-1360.78
-2156.95
-1631.52
2289.75
-1789.4
1683.02
-1928.29
1277.27
-2085.14
1026.02
-2211.81
780.762
-2306.03
599.614
-2371.27
492.033
-2428.09
394.529
-2463.17
202.725
-2459.76
-44.776
-2441.7
-243.651
-2306.24
-745.783
-2178.41
-1223.59
-2116.9
-1186.4
-2053.42
-1080.94
-1977
-1052.56
-1894.28
-1010.27
-1795.57
-995.353
-1701.23
-1042.3
-1622.59
-1089.65
-1550.39
-1100.09
-1488.03
-1108.84
-1460.3
-1150.98
-1483.06
-1115.24
-1545.88
-804.916
-1593.97
-288.241
-1573.56
93.602
-1586.89
167.311
151.901
101.139
-122.703
126.904
-384.585
149.898
-392.998
172.859
-423.503
213.075
-422.264
278.808
-845.774
328.065
-956.833
360.402
-971.103
369.891
-868.818
367.818
-657.982
354.786
-360.124
371.287
-488.652
345.669
-215.258
273.143
574.274
254.211
1101.8
289.225
952.926
316.02
438.646
307.484
145.662
440.69
296.726
388.695
-197.828
35.8764
-1045.85
-183.803
-250.211
254.572
-1925.08
468.202
-1320.34
444.758
-679.671
643.131
-813.997
567.573
1456.29
143.764
2696.86
227.508
-121.575
419.665
-1258.37
544.479
-1141.74
625.817
-1097.33
685.973
-1097.6
744.498
-1111.72
775.489
-1146.58
730.167
-1175.04
576.7
-1215
481.517
-1057.96
688.434
54.6792
872.392
654.195
888.623
-127.609
880.09
-16.5894
949.878
539.211
780.264
2989.24
586.103
3150.31
377.709
3471.06
-39.6379
4105.35
518.387
1714.93
485.906
-1379.52
-661.009
2133.17
-1133.28
3485.27
-1314.87
2516.02
-1492.1
2353.31
-1612.56
2554.17
-1692.24
2803.34
-1734.66
3094.81
-1730.29
3401.85
-1680.28
3692.08
-1617.7
3818.43
-1607.56
3594.92
-1680.69
3056.23
-1818.58
2411.73
-1982.64
1853.56
-2130.23
1363.75
-2354.99
762.67
-2509.45
-1023.85
-2265.16
-2425.42
-2056.37
-2604.24
-1842.25
-2770.45
-1805.43
-2517.18
-1332.31
-2630.08
-1510.81
2468.26
-1677.41
1849.63
-1834.69
1434.55
-2003.57
1194.9
-2147.1
924.287
-2260.38
712.899
-2338.39
570.036
-2397.78
453.921
-2434.61
239.558
-2436.9
-42.4796
-2412.9
-267.655
-2249.58
-909.105
-2147.37
-1325.8
-2088.92
-1244.85
-2013.26
-1156.6
-1934.68
-1131.14
-1851.81
-1093.14
-1761.07
-1086.09
-1679.3
-1124.07
-1612.23
-1156.72
-1551.68
-1160.64
-1497.97
-1162.55
-1466.53
-1182.42
-1470.14
-1111.63
-1497.22
-777.839
-1504.57
-280.89
-1478.09
67.1182
-1502.88
192.102
219.003
100.045
-167.084
127.715
-412.246
159.052
-424.318
188.606
-453.042
227.847
-461.484
285.023
-902.942
325.627
-997.424
350.19
-995.657
356.428
-875.043
350.738
-652.278
334.259
-343.623
345.954
-500.33
314.441
-183.717
254.522
634.209
250.011
1106.32
287.319
915.634
311.623
414.362
292.468
164.837
396.335
192.876
386.496
-187.97
21.794
-681.128
-181.986
-46.4185
276.043
-2383.04
492.382
-1536.66
503.657
-690.934
713.924
-1024.25
619.508
1550.71
143.416
3172.96
235.499
-213.65
445.524
-1468.39
563.501
-1259.71
641.298
-1175.11
695.978
-1152.26
737.633
-1153.36
755.097
-1164.03
727.9
-1147.83
626.599
-1113.68
549.503
-980.851
697.523
-93.3266
849.834
501.899
841.154
-118.92
829.441
-4.86635
944.338
424.324
791.804
3141.79
606.706
3335.42
412.422
3665.36
69.0559
4448.73
705.197
1078.79
102.113
-776.427
-1116.94
3352.23
-1256.83
3625.18
-1410.7
2669.88
-1573.16
2515.79
-1668.52
2649.53
-1728.3
2863.13
-1756.2
3122.71
-1747.93
3393.59
-1703.36
3647.5
-1646.63
3761.71
-1629.17
3577.46
-1681.02
3108.08
-1794.21
2524.92
-1938.6
1997.95
-2073.97
1499.11
-2256.44
945.14
-2413.47
-866.822
-2181.1
-2657.78
-1973.42
-2811.93
-1757.61
-2986.26
-1716.41
-2558.39
-1299.54
-3046.96
-1287.32
2456.03
-1492.82
2055.13
-1702.92
1644.65
-1896.56
1388.54
-2066.21
1093.93
-2203.62
850.306
-2301.5
667.918
-2370.73
523.15
-2414.1
282.921
-2428.25
-28.3249
-2402.73
-293.187
-2207.37
-1104.46
-2113.84
-1419.33
-2054.85
-1303.84
-1971.69
-1239.76
-1893.5
-1209.34
-1813.33
-1173.32
-1731.19
-1168.22
-1659.62
-1195.64
-1600.61
-1215.74
-1546.94
-1214.31
-1497.37
-1212.11
-1465.08
-1214.72
-1465.33
-1111.38
-1478.13
-765.044
-1461.51
-297.507
-1444.56
50.1689
-1480.82
228.361
277.013
100.563
-210.606
133.966
-445.642
169.039
-459.376
198.683
-482.672
234.737
-497.516
285.475
-953.673
320.783
-1032.72
340.278
-1015.14
344.85
-879.601
335.022
-642.433
314.282
-322.856
320.842
-506.871
285.569
-148.408
241.476
678.321
249.546
1098.27
288.3
876.899
308.625
394.058
281.446
192.035
348.459
125.88
334.733
-174.226
-0.207272
-346.172
-154.826
108.214
243.282
-2781.08
522.519
-1815.86
627.744
-796.143
855.447
-1251.93
779.996
1626.16
294.955
3658
351.9
-270.582
521.554
-1638.02
603.878
-1342.02
652.364
-1223.58
689.973
-1189.85
721.146
-1184.51
736.476
-1179.34
722.283
-1133.62
653.589
-1044.97
588.836
-916.087
707.269
-211.748
851.451
357.731
827.287
-94.7449
813.288
9.14327
950.98
286.643
801.813
3290.98
620.669
3516.58
441.112
3844.95
179.858
4710.02
599.441
659.217
-765.387
588.413
-1548.89
4135.73
-1317.58
3393.89
-1467.61
2819.92
-1615.15
2663.35
-1697.82
2732.21
-1746.83
2912.15
-1766.34
3142.21
-1755.79
3383.04
-1715.73
3607.44
-1664.97
3710.95
-1644.26
3556.75
-1681.02
3144.84
-1773.94
2617.83
-1900.46
2124.47
-2029.52
1628.16
-2182.7
1098.31
-2327.29
-722.238
-2102.04
-2883.04
-1899.88
-3014.1
-1681.51
-3204.64
-1408.15
-2831.76
-1120.48
-3334.64
-1095.02
2430.58
-1321.15
2281.26
-1558.93
1882.43
-1775.43
1605.04
-1972.27
1290.78
-2134.73
1012.77
-2256.74
789.919
-2343.4
609.81
-2398.49
338.017
-2419.38
-7.43829
-2384.05
-328.512
-2168.42
-1320.09
-2079.1
-1508.65
-2015.16
-1367.77
-1929.88
-1325.05
-1854.44
-1284.77
-1778.91
-1248.85
-1704.97
-1242.16
-1641.39
-1259.23
-1588.02
-1269.1
-1537.98
-1264.35
-1488.64
-1261.45
-1454.06
-1249.29
-1455.86
-1109.58
-1469.2
-751.708
-1442.65
-324.054
-1425.21
32.722
-1460.12
263.271
322.382
102.672
-255.56
142.819
-485.781
174.033
-490.575
197.147
-505.773
231.52
-531.869
281.348
-1003.49
314.711
-1066.07
330.9
-1031.32
334.32
-883.007
320.431
-628.531
295.412
-297.813
296.856
-508.299
259.406
-110.924
232.554
705.189
250.911
1079.93
290.842
836.986
306.356
378.563
272.658
225.751
301.435
97.1207
263.797
-136.571
-39.2712
-43.0924
-122.703
191.657
122.937
-3026.68
557.365
-2250.25
823.966
-1062.73
1129.03
-1556.98
1136.31
1618.89
748.392
4045.92
678.91
-201.093
648.894
-1608
676.581
-1369.69
685.299
-1232.28
700.553
-1205.09
722.482
-1206.43
734.927
-1191.77
724.472
-1123.15
670.877
-991.358
613.725
-858.919
710.973
-308.983
850.636
218.079
835.312
-79.4127
828.999
15.4656
958.123
157.526
799.485
3449.63
618.129
3697.95
458.962
4004.13
281.767
4887.24
585.714
355.273
-766.331
1940.48
-1272.14
4641.55
-1345.18
3466.95
-1500.02
2974.75
-1632.18
2795.53
-1710.99
2811.01
-1754.91
2956.08
-1769.82
3157.12
-1758.11
3371.35
-1721.84
3571.17
-1676.36
3665.47
-1654.19
3534.58
-1679.71
3170.37
-1755.83
2693.94
-1866.72
2235.37
-1988.97
1750.42
-2117.87
1227.22
-2248.58
-591.537
-2033.87
-3097.75
-1840.8
-3207.17
-1619.41
-3426.02
-1264.85
-3186.33
-1051.92
-3547.57
-1038.7
2417.36
-1237.49
2480.05
-1452.14
2097.07
-1669.14
1822.04
-1879.4
1501.04
-2060.02
1193.39
-2204.47
934.368
-2311.82
717.157
-2380.95
407.147
-2397.14
8.7517
-2333.16
-392.496
-2123.96
-1529.29
-2044.07
-1588.54
-1971.31
-1440.54
-1888.59
-1407.77
-1817.26
-1356.09
-1747.29
-1318.82
-1680.68
-1308.78
-1623.7
-1316.21
-1575.73
-1317.08
-1530.39
-1309.69
-1484.39
-1307.45
-1452.61
-1281.07
-1457.96
-1104.24
-1468.84
-740.829
-1436.18
-356.711
-1427.33
23.8694
-1461.45
297.389
351.367
103.811
-300.999
146.246
-528.209
171.685
-516
189.407
-523.481
225.016
-567.458
276.792
-1055.26
308.698
-1097.97
321.796
-1044.41
324.126
-885.323
306.457
-610.846
277.643
-268.972
274.587
-505.224
235.948
-72.244
225.949
715.207
252.256
1053.64
292.84
796.423
303.838
367.586
265.676
263.931
252.769
110.045
188.546
-72.3302
-75.8127
221.278
-118.831
234.687
60.6762
-3206.15
561.873
-2751.39
997.727
-1498.56
1547.12
-2106.36
1808.17
1357.85
1477.81
4376.28
1007.19
269.538
736.307
-1337.1
737.455
-1370.82
733.637
-1228.44
732.4
-1203.83
740.48
-1214.49
744.332
-1195.61