/*--------------------------------*- C++ -*----------------------------------*\
| =========                 |                                                 |
| \\      /  F ield         | OpenFOAM: The Open Source CFD Toolbox           |
|  \\    /   O peration     | Version:  4.1                                   |
|   \\  /    A nd           | Web:      www.OpenFOAM.org                      |
|    \\/     M anipulation  |                                                 |
\*---------------------------------------------------------------------------*/
FoamFile
{
    version     2.0;
    format      ascii;
    class       volVectorField;
    location    "100";
    object      U;
}
// * * * * * * * * * * * * * * * * * * * * * * * * * * * * * * * * * * * * * //

dimensions      [0 1 -1 0 0 0 0];

internalField   nonuniform List<vector> 
26785
(
(-4.04875e-16 0.0320872 -0.406241)
(-1.82762e-15 0.0099285 -0.661647)
(5.15112e-16 -0.00917928 -0.370437)
(7.0095e-14 -0.0226622 0.188234)
(-2.81925e-15 -0.0141635 0.560506)
(3.73887e-14 -0.0265441 1.02849)
(-3.03032e-16 -0.0392242 1.73868)
(2.01895e-14 -0.0362626 2.44411)
(1.71292e-14 -0.0350143 3.07876)
(1.06195e-13 -0.0316336 3.68354)
(3.55076e-14 -0.0218305 4.20075)
(1.04545e-14 -0.0070831 4.54852)
(8.33255e-15 -0.0250132 4.73628)
(2.12158e-14 -0.0607256 5.40827)
(2.09616e-14 -0.0240892 6.03355)
(8.55749e-15 0.0592923 5.3733)
(6.73548e-15 0.101968 3.80077)
(1.19065e-14 0.0776549 2.85611)
(4.59981e-16 0.0513547 2.27129)
(3.91565e-14 0.0108173 1.45007)
(2.09813e-14 0.0295702 0.902584)
(3.41172e-14 0.0294828 0.308853)
(1.40305e-13 -0.00625311 0.61984)
(4.20312e-14 -0.0136038 1.41161)
(8.1572e-14 0.0212099 0.884097)
(7.73415e-14 0.0468629 -0.172577)
(1.01054e-13 -0.0208977 -1.10121)
(1.26462e-13 -0.202044 -0.577772)
(1.4281e-13 -0.353788 0.664908)
(2.25927e-13 -0.260351 2.56294)
(1.30456e-13 -0.151822 3.40109)
(5.58212e-14 -0.0648163 4.71877)
(7.42579e-14 -0.0148411 5.39549)
(4.55894e-14 -0.0293952 5.50228)
(1.23092e-13 -0.0293932 5.79944)
(3.31809e-14 -0.00199753 6.04851)
(2.15934e-14 0.0328873 5.9349)
(1.69854e-14 0.077549 5.32261)
(1.4205e-14 0.0688648 4.53859)
(1.82135e-14 0.00550311 4.15007)
(7.62793e-15 -0.0355986 4.29743)
(3.27456e-14 -0.0464429 4.54875)
(1.60409e-14 -0.0400954 4.73609)
(3.52473e-14 -0.00847622 4.76644)
(2.83601e-14 0.0153298 4.58304)
(5.55951e-14 0.036777 4.20911)
(5.15344e-14 0.0227348 3.86204)
(6.18935e-14 0.0310468 3.48011)
(6.00424e-14 0.0735013 2.67004)
(6.37319e-14 -0.0264349 2.2429)
(8.80032e-14 -0.108085 2.33667)
(7.07015e-14 -0.426798 2.6371)
(5.39727e-14 -0.105397 4.31587)
(4.75239e-14 0.312036 4.46803)
(3.35557e-14 0.385021 3.23717)
(1.89757e-14 0.462883 1.84777)
(3.69639e-14 0.685774 -0.732449)
(-1.14417e-13 0.601125 -4.66134)
(-3.87554e-13 0.0671701 -6.6837)
(-4.54452e-13 -0.130795 -5.98043)
(-5.60346e-13 -0.0366596 -5.80877)
(-6.29858e-13 0.0069714 -5.84203)
(-6.86493e-13 -0.00548108 -5.91733)
(-7.20875e-13 -0.0220241 -5.85453)
(-7.5212e-13 -0.0353349 -5.69783)
(-7.2444e-13 -0.0375062 -5.48147)
(-6.41784e-13 -0.0317276 -5.26072)
(-4.83349e-13 -0.0314156 -5.07835)
(-2.3172e-13 -0.0373948 -4.8934)
(1.25677e-13 -0.028431 -4.68589)
(5.84657e-13 0.0181062 -4.65908)
(1.07332e-12 0.0611449 -4.89053)
(1.62728e-12 0.0383091 -5.21246)
(2.20082e-12 0.0248392 -5.37813)
(2.74944e-12 0.0178815 -5.47936)
(3.21701e-12 0.0127226 -5.56086)
(3.56035e-12 0.00818626 -5.63003)
(3.69297e-12 -0.00423658 -5.66126)
(3.6194e-12 -0.0166908 -5.62149)
(3.35964e-12 -0.0188803 -5.54581)
(2.98114e-12 -0.01109 -5.49243)
(2.56875e-12 -0.00425963 -5.48646)
(2.21596e-12 -0.00476835 -5.4969)
(2.00868e-12 -0.0121457 -5.4761)
(1.91202e-12 -0.0195948 -5.39879)
(1.86963e-12 -0.0261702 -5.26833)
(1.81086e-12 -0.036716 -5.12031)
(1.67281e-12 -0.052548 -4.94266)
(1.46489e-12 -0.0634585 -4.69943)
(1.23465e-12 -0.0584413 -4.41368)
(1.03667e-12 -0.0422083 -4.19957)
(9.17444e-13 -0.0271637 -4.08649)
(8.94069e-13 -0.0234433 -3.97434)
(9.14843e-13 -0.0208609 -3.8984)
(9.56117e-13 -0.0236946 -3.87583)
(1.00464e-12 -0.0271949 -3.81153)
(1.01353e-12 -0.0292084 -3.61409)
(9.81088e-13 -0.0472269 -3.41296)
(9.37862e-13 -0.0326406 -3.28118)
(9.11657e-13 -0.0126928 -3.09598)
(2.00043e-15 0.0793932 -0.332954)
(9.04512e-14 0.0136907 -0.258583)
(-1.29341e-14 -0.0337054 0.131379)
(-5.11718e-15 -0.0628078 0.650256)
(-3.31418e-14 -0.0388549 0.91619)
(3.12933e-14 -0.0727656 1.39106)
(-7.56665e-14 -0.100517 1.96587)
(-1.98111e-15 -0.0932202 2.49878)
(2.55506e-14 -0.0956827 3.03577)
(3.53715e-15 -0.0921325 3.60407)
(5.98368e-15 -0.0687397 4.12738)
(8.48915e-15 -0.0503293 4.49131)
(8.4081e-15 -0.0936374 4.99421)
(7.70726e-15 -0.109597 5.50419)
(2.58722e-14 0.0427614 5.31814)
(5.012e-15 0.238574 4.26573)
(-8.75083e-15 0.251751 3.05218)
(8.31261e-15 0.132303 2.96174)
(1.25886e-14 0.171107 3.80223)
(-1.49538e-14 0.212541 2.01435)
(6.58653e-14 0.131717 0.890259)
(-8.88077e-14 0.0591343 0.957399)
(1.953e-13 -0.0193636 1.98745)
(4.38031e-14 0.0204516 2.97426)
(6.4241e-14 0.152736 1.97443)
(1.03078e-13 0.13152 2.59626)
(1.01332e-13 0.243583 1.19763)
(1.50817e-13 -0.119756 -0.318167)
(1.84279e-13 -0.540759 -1.06256)
(2.0099e-13 -0.583489 -0.188505)
(1.72929e-13 -0.519745 1.22711)
(1.94979e-13 -0.344614 2.97298)
(1.58673e-13 -0.0967862 4.32524)
(1.37738e-13 -0.0993877 4.91802)
(1.17918e-13 -0.136341 5.53311)
(9.01721e-14 -0.0368599 5.89672)
(5.58643e-14 0.102938 5.6177)
(3.25579e-14 0.229379 4.97186)
(2.73983e-14 0.200077 4.35803)
(2.52915e-14 0.0268345 3.99046)
(2.3663e-14 -0.0702733 4.1511)
(-1.17607e-14 -0.0796467 4.3845)
(4.38038e-14 -0.0559629 4.50136)
(1.69479e-14 0.0239281 4.43585)
(6.21728e-14 0.0696887 4.19582)
(6.48499e-14 0.116521 3.78647)
(1.19565e-13 0.0822148 3.46297)
(1.07833e-13 0.14065 2.83853)
(1.26448e-13 0.198288 1.79016)
(1.31508e-13 -0.384893 1.63023)
(3.53708e-14 -0.590109 2.27362)
(7.09026e-14 -0.295599 0.464297)
(9.4608e-14 0.0409168 -0.317114)
(1.08456e-13 0.468528 0.566664)
(5.55678e-14 0.694678 0.352499)
(4.54067e-14 0.98565 -0.283989)
(4.77532e-14 1.4909 -1.05677)
(-8.13538e-14 1.5082 -2.32721)
(-2.9556e-13 0.587181 -4.7353)
(-2.88126e-13 -0.132058 -5.94194)
(-3.56959e-13 -0.096032 -5.88868)
(-4.34109e-13 0.00224446 -5.62191)
(-5.5822e-13 -0.0176806 -5.76499)
(-6.6329e-13 -0.0639298 -5.72808)
(-7.28864e-13 -0.0949063 -5.58715)
(-7.72288e-13 -0.104142 -5.40622)
(-7.70901e-13 -0.0879233 -5.18167)
(-7.01895e-13 -0.0855271 -4.98745)
(-5.2238e-13 -0.101704 -4.78103)
(-2.91423e-13 -0.0728643 -4.57674)
(1.35119e-13 0.0578623 -4.55969)
(6.84728e-13 0.178246 -4.70045)
(1.24828e-12 0.116793 -5.04357)
(1.87716e-12 0.0774428 -5.20445)
(2.50956e-12 0.0651332 -5.30656)
(3.06913e-12 0.0543584 -5.41595)
(3.44516e-12 0.0388284 -5.49316)
(3.6109e-12 0.00697397 -5.52708)
(3.51882e-12 -0.0174333 -5.50957)
(3.21122e-12 -0.0159055 -5.47301)
(2.79826e-12 0.00397897 -5.45121)
(2.37965e-12 0.0153608 -5.44557)
(2.04894e-12 0.00697339 -5.43223)
(1.88386e-12 -0.0174078 -5.39199)
(1.84265e-12 -0.0442322 -5.32068)
(1.8029e-12 -0.0627801 -5.17457)
(1.70917e-12 -0.0751494 -5.01476)
(1.57889e-12 -0.101623 -4.83238)
(1.53811e-12 -0.132385 -4.56609)
(1.66314e-12 -0.121714 -4.24543)
(1.81483e-12 -0.0705513 -4.04586)
(1.84114e-12 -0.038554 -3.96915)
(1.8222e-12 -0.048 -3.86576)
(1.85363e-12 -0.037784 -3.8049)
(1.93456e-12 -0.0392278 -3.80778)
(2.03956e-12 -0.0713626 -3.81662)
(2.06479e-12 -0.0875616 -3.57224)
(2.0466e-12 -0.118303 -3.34263)
(2.0206e-12 -0.0696093 -3.24363)
(1.9996e-12 -0.013943 -3.0537)
(1.85292e-16 0.116782 -0.305327)
(-6.87026e-14 0.00558547 -0.0135016)
(6.3227e-14 -0.0615057 0.408854)
(-5.3078e-14 -0.0988834 0.880763)
(6.37441e-15 -0.062779 1.10058)
(2.65108e-14 -0.114231 1.5738)
(-4.00666e-14 -0.148522 2.03932)
(-3.46863e-15 -0.140106 2.46951)
(-7.42995e-15 -0.153558 2.97837)
(-1.02442e-14 -0.154345 3.54817)
(-7.95524e-15 -0.11826 4.05326)
(-5.84311e-15 -0.105857 4.36418)
(-5.76352e-15 -0.151233 4.7371)
(-3.78167e-15 -0.094604 4.92234)
(5.51495e-15 0.164392 4.48211)
(1.92101e-14 0.372654 3.40916)
(-2.52869e-14 0.286443 2.63815)
(1.7199e-14 0.0538094 2.55056)
(-2.76742e-14 0.224387 3.14615)
(1.92126e-14 0.40334 1.68829)
(1.89963e-14 0.193265 0.95886)
(-1.10865e-13 -0.113716 1.32889)
(2.7628e-14 -0.304091 2.75822)
(1.38174e-13 0.0158817 3.15847)
(4.71191e-14 0.212768 2.74559)
(1.20192e-13 0.0710274 3.74596)
(1.17485e-13 0.469853 1.83781)
(1.45768e-13 0.167258 1.92598)
(1.80023e-13 -0.534602 -0.0362707)
(2.0389e-13 -0.712252 -0.0354324)
(2.12157e-13 -0.784028 0.0497151)
(1.96547e-13 -0.719644 0.915265)
(2.6566e-13 -0.459143 2.82536)
(2.43443e-13 -0.329733 4.03333)
(1.90108e-13 -0.247502 5.05734)
(1.54637e-13 -0.0192044 5.64195)
(9.89542e-14 0.196591 5.21075)
(6.16451e-14 0.349322 4.61788)
(4.11698e-14 0.298489 4.18448)
(1.45392e-14 0.0256922 3.82177)
(-7.69531e-15 -0.132278 4.00146)
(-5.4029e-15 -0.134953 4.26154)
(1.53021e-14 -0.0790008 4.3541)
(4.57015e-14 0.0593082 4.20207)
(7.52787e-14 0.124403 3.8709)
(9.2944e-14 0.192475 3.37034)
(9.00813e-14 0.167816 3.05506)
(8.22629e-14 0.301956 2.18123)
(6.01741e-14 0.214133 1.26604)
(1.09644e-14 -0.800435 0.69161)
(1.08925e-14 -0.312701 -0.763285)
(2.25689e-14 0.255999 -1.2123)
(2.92518e-14 0.264666 -1.12152)
(2.17476e-14 0.50234 -0.587884)
(7.32072e-15 0.847609 -0.343775)
(3.70609e-14 1.24905 -0.533809)
(2.4776e-14 1.84105 -0.978306)
(-8.49023e-14 2.0936 -1.53638)
(-1.67312e-13 1.21168 -3.40948)
(-1.00588e-13 0.148803 -5.09447)
(2.00514e-14 -0.106886 -5.78568)
(4.38258e-14 -0.0206627 -5.55923)
(1.0959e-14 -0.00489071 -5.6041)
(-6.35232e-14 -0.0930195 -5.62534)
(-1.65824e-13 -0.146652 -5.49208)
(-2.86409e-13 -0.164874 -5.3418)
(-3.66493e-13 -0.14982 -5.1272)
(-3.99744e-13 -0.150379 -4.90401)
(-4.58569e-13 -0.175832 -4.65409)
(-4.86715e-13 -0.12321 -4.45348)
(-3.00483e-13 0.0895537 -4.41595)
(1.7153e-13 0.289285 -4.52394)
(7.26129e-13 0.185813 -4.91452)
(1.36349e-12 0.115642 -5.06622)
(2.04569e-12 0.105962 -5.15718)
(2.63071e-12 0.0905475 -5.27861)
(3.05661e-12 0.0588598 -5.3615)
(3.25029e-12 0.00890238 -5.41236)
(3.19117e-12 -0.0245033 -5.42194)
(2.91951e-12 -0.0238021 -5.42024)
(2.50188e-12 -0.00501825 -5.42523)
(2.01784e-12 -0.000413771 -5.4179)
(1.5508e-12 -0.0167422 -5.38688)
(1.15802e-12 -0.0488956 -5.33945)
(8.72987e-13 -0.0939114 -5.29829)
(6.47996e-13 -0.13281 -5.16103)
(4.54159e-13 -0.155891 -4.9564)
(3.76859e-13 -0.206612 -4.66812)
(6.30535e-13 -0.265184 -4.33116)
(1.30577e-12 -0.23234 -4.07292)
(1.98378e-12 -0.124001 -4.02475)
(2.19173e-12 -0.0683426 -4.01836)
(2.11193e-12 -0.0875266 -3.8695)
(2.08587e-12 -0.06963 -3.74937)
(2.11154e-12 -0.0540036 -3.69919)
(2.06427e-12 -0.12512 -3.79704)
(2.01395e-12 -0.186281 -3.59188)
(2.03163e-12 -0.201971 -3.26046)
(2.08812e-12 -0.107931 -3.17585)
(2.12892e-12 -0.0371293 -3.00488)
(-1.30866e-15 0.14228 -0.248158)
(-5.87734e-14 -0.00872725 0.170131)
(-4.08839e-14 -0.088412 0.57291)
(1.70968e-14 -0.13137 1.00667)
(8.61686e-15 -0.0851555 1.20753)
(-2.64127e-14 -0.150297 1.66905)
(-5.18143e-15 -0.188153 2.04675)
(4.30613e-15 -0.184441 2.43028)
(-2.04232e-14 -0.212907 2.95279)
(-9.92194e-15 -0.214713 3.51047)
(1.18879e-15 -0.158465 3.93635)
(1.9117e-15 -0.133867 4.13072)
(4.92026e-16 -0.172458 4.33563)
(-2.66609e-14 -0.0645672 4.29611)
(2.88876e-15 0.275652 3.89674)
(-3.52921e-15 0.46658 2.92078)
(-1.62512e-14 0.300477 2.39316)
(-4.21058e-14 0.000727392 2.29774)
(-3.00565e-15 0.28753 2.43456)
(-4.24669e-15 0.541164 1.35672)
(2.02335e-15 0.195482 1.29758)
(-1.1382e-14 -0.0741919 2.36066)
(2.80486e-14 -0.318418 2.64385)
(2.33154e-14 -0.144185 2.58041)
(3.11244e-14 0.186116 3.21002)
(7.28175e-14 0.202259 3.38367)
(9.33716e-14 0.694956 1.50285)
(1.28409e-13 0.265939 1.66046)
(1.64765e-13 -0.545097 0.289356)
(1.94964e-13 -0.721104 0.562449)
(1.79145e-13 -0.767099 0.538069)
(1.8311e-13 -0.857776 0.312647)
(2.08171e-13 -0.676213 1.10114)
(2.12898e-13 -0.635809 2.12325)
(2.2446e-13 -0.536205 3.51173)
(9.30941e-14 -0.113408 4.96124)
(1.65943e-13 0.256921 4.77674)
(6.73313e-14 0.440149 4.33381)
(2.08357e-14 0.387974 4.06509)
(8.787e-14 0.0383324 3.68947)
(1.6649e-14 -0.177737 3.84839)
(-2.12447e-14 -0.167271 4.12902)
(2.65099e-15 -0.0680264 4.21925)
(3.9377e-14 0.134496 4.02411)
(1.41938e-14 0.211887 3.61418)
(2.98103e-14 0.286912 2.99525)
(-2.19405e-14 0.28809 2.65637)
(-7.52658e-14 0.502686 1.51019)
(-5.57198e-14 0.283203 0.668636)
(-6.83954e-14 -0.601883 -1.17217)
(-5.85138e-14 -0.0191741 -1.40876)
(-5.63407e-16 0.38807 -1.0409)
(-5.35173e-14 0.327711 -0.616422)
(-9.22605e-14 0.508903 -0.212038)
(-8.68302e-14 0.935903 -0.229477)
(-2.52676e-14 1.45528 -0.575933)
(1.47393e-14 2.08703 -1.09821)
(-8.89265e-14 2.47712 -1.44905)
(-1.23976e-13 1.73935 -2.73773)
(3.70397e-14 0.546739 -4.35006)
(3.70662e-13 0.0193317 -5.43425)
(5.99403e-13 -0.036869 -5.64696)
(7.09802e-13 -0.0155733 -5.54102)
(6.74828e-13 -0.108431 -5.5227)
(5.456e-13 -0.187333 -5.40939)
(3.70449e-13 -0.213046 -5.26632)
(2.32357e-13 -0.205982 -5.07799)
(3.12303e-14 -0.219036 -4.81928)
(-2.30338e-13 -0.254002 -4.51962)
(-4.80057e-13 -0.181333 -4.32888)
(-5.62827e-13 0.115459 -4.24003)
(-2.99659e-13 0.408632 -4.33008)
(2.48142e-13 0.262054 -4.77306)
(9.16771e-13 0.156619 -4.94508)
(1.52727e-12 0.15174 -5.03083)
(2.10056e-12 0.133354 -5.15527)
(2.5736e-12 0.0914647 -5.24127)
(2.82388e-12 0.0334669 -5.31526)
(2.87702e-12 -0.00334982 -5.35272)
(2.73485e-12 -0.00207086 -5.3811)
(2.42613e-12 0.0116709 -5.4084)
(1.95769e-12 0.00438643 -5.39958)
(1.36563e-12 -0.0169974 -5.34733)
(7.24939e-13 -0.0447168 -5.28662)
(1.33118e-13 -0.102777 -5.23854)
(-3.26783e-13 -0.182216 -5.08312)
(-5.99329e-13 -0.253757 -4.82047)
(-5.74287e-13 -0.33011 -4.45091)
(-4.63009e-14 -0.347103 -4.15339)
(1.03654e-12 -0.216205 -4.06716)
(2.02356e-12 -0.0421117 -4.12215)
(2.2373e-12 -0.0161084 -4.04249)
(1.97409e-12 -0.0989462 -3.79027)
(1.79426e-12 -0.121271 -3.68189)
(1.80712e-12 -0.104417 -3.61282)
(1.79221e-12 -0.15822 -3.76183)
(1.76677e-12 -0.241689 -3.66138)
(1.75564e-12 -0.259459 -3.13295)
(1.71538e-12 -0.093226 -3.05541)
(1.70014e-12 -0.00242627 -2.9569)
(-9.04623e-16 0.156092 -0.166133)
(-5.52367e-14 -0.0265589 0.317388)
(-2.31876e-16 -0.113581 0.680511)
(1.08865e-14 -0.162084 1.07356)
(1.00091e-14 -0.107246 1.25529)
(9.27411e-15 -0.182861 1.70669)
(-1.89657e-14 -0.223858 2.03294)
(8.98159e-15 -0.229681 2.41964)
(-1.59642e-14 -0.271789 2.96334)
(-1.83289e-14 -0.266561 3.47167)
(-3.86259e-15 -0.184446 3.77769)
(9.85187e-16 -0.148341 3.88702)
(8.57606e-15 -0.174061 4.00346)
(-3.62313e-14 -0.0361483 3.8463)
(-4.98518e-15 0.371805 3.52039)
(1.1623e-14 0.548187 2.64603)
(-1.14538e-14 0.318224 2.22017)
(-1.22457e-14 -0.0164684 2.11168)
(-1.12624e-14 0.357751 2.00726)
(-1.33022e-14 0.581345 1.15915)
(-1.6388e-14 0.115491 2.03791)
(-3.97522e-14 -0.104351 3.48633)
(3.25609e-14 -0.307764 3.43327)
(4.56575e-14 -0.235563 2.95191)
(3.90504e-14 0.0978289 3.29133)
(5.46035e-14 0.25113 3.57237)
(7.36954e-14 0.784718 2.39769)
(4.79271e-14 0.710115 3.26179)
(1.36833e-13 -0.463101 1.45485)
(1.70899e-13 -0.787804 1.12506)
(1.7331e-13 -0.747228 1.02621)
(1.66232e-13 -0.847775 0.838529)
(1.70781e-13 -0.807702 0.86089)
(1.79193e-13 -0.90122 1.29841)
(2.15056e-13 -0.900598 2.13506)
(1.80438e-13 -0.269968 4.1665)
(1.29956e-13 0.27771 4.46385)
(8.14337e-14 0.491164 4.14352)
(5.231e-14 0.453849 4.00421)
(5.49685e-14 0.0481838 3.61175)
(9.14582e-14 -0.229212 3.71264)
(8.9396e-14 -0.211063 3.99572)
(8.34537e-14 -0.0652976 4.08829)
(3.46867e-15 0.21438 3.88048)
(-2.27797e-14 0.3111 3.41817)
(-4.45274e-14 0.390706 2.70294)
(-5.75045e-14 0.4323 2.31354)
(-7.20888e-14 0.734738 1.08068)
(-6.58834e-14 0.467805 0.107245)
(-2.13214e-14 -0.624529 -0.986812)
(-2.65725e-14 -0.146979 -0.684189)
(-1.71794e-14 0.348621 -0.458129)
(-4.23542e-14 0.313305 -0.0148282)
(-7.02823e-14 0.566485 0.00566407)
(-8.53322e-14 1.09612 -0.476893)
(-7.13905e-14 1.66205 -0.940478)
(-2.05341e-14 2.27253 -1.35109)
(-8.60149e-14 2.71444 -1.43152)
(-1.10076e-13 2.18036 -2.09927)
(5.33426e-14 0.978516 -3.60355)
(4.00543e-13 0.285273 -4.78944)
(6.45449e-13 0.0441947 -5.48235)
(7.03185e-13 -0.0450824 -5.58362)
(5.38134e-13 -0.14568 -5.51222)
(3.49146e-13 -0.226673 -5.34162)
(1.84733e-13 -0.255051 -5.1802)
(-8.95715e-14 -0.263151 -5.01711)
(-3.35988e-13 -0.297703 -4.73942)
(-5.1623e-13 -0.337671 -4.38232)
(-5.45112e-13 -0.249584 -4.21222)
(-5.85681e-13 0.129467 -4.05673)
(-5.619e-13 0.533168 -4.11826)
(-1.77405e-13 0.348533 -4.60211)
(4.66375e-13 0.203153 -4.82299)
(1.03718e-12 0.194213 -4.91113)
(1.5537e-12 0.171165 -5.03845)
(1.97165e-12 0.123163 -5.13147)
(2.19239e-12 0.0596668 -5.22916)
(2.22162e-12 0.0155475 -5.29688)
(2.06243e-12 0.0113613 -5.34786)
(1.80453e-12 0.0119197 -5.38647)
(1.39912e-12 -0.0179749 -5.37851)
(8.37413e-13 -0.0534452 -5.32026)
(2.11477e-13 -0.0882585 -5.24922)
(-4.24683e-13 -0.166915 -5.14689)
(-8.88425e-13 -0.278487 -4.91742)
(-1.10174e-12 -0.380175 -4.61231)
(-1.02479e-12 -0.446723 -4.30125)
(-4.35452e-13 -0.392189 -4.15017)
(8.01412e-13 -0.210624 -4.1799)
(2.05011e-12 -0.102016 -4.18864)
(2.44184e-12 -0.205159 -4.00941)
(2.19259e-12 -0.331821 -3.79406)
(1.8812e-12 -0.320053 -3.75157)
(1.8183e-12 -0.178331 -3.60114)
(1.93445e-12 -0.0653199 -3.65472)
(2.02945e-12 -0.344152 -3.70964)
(2.02729e-12 -0.562004 -2.96799)
(1.9653e-12 -0.167479 -2.89625)
(1.90516e-12 -0.00634872 -2.90852)
(-7.4694e-16 0.1606 -0.0929831)
(-5.49086e-14 -0.0465491 0.441423)
(-4.03721e-15 -0.135267 0.769937)
(-3.63753e-14 -0.189372 1.10649)
(-3.73388e-15 -0.12893 1.24428)
(-2.20811e-14 -0.214856 1.69817)
(-1.32526e-14 -0.260323 2.01688)
(-7.61392e-16 -0.277983 2.44012)
(3.03573e-15 -0.327853 2.98986)
(1.59658e-14 -0.306817 3.41699)
(1.67921e-14 -0.197319 3.6073)
(3.28044e-14 -0.156269 3.63948)
(3.22246e-14 -0.168286 3.72763)
(-5.69928e-15 -0.0084158 3.50144)
(-9.91824e-15 0.455406 3.2439)
(1.17324e-15 0.622621 2.47645)
(-7.39027e-15 0.339594 2.11541)
(2.23751e-14 -0.0144979 1.99371)
(-5.22549e-15 0.425196 1.72852)
(-2.4732e-14 0.540855 1.04141)
(-2.63287e-14 -0.131427 2.18604)
(-1.44771e-14 -0.292743 3.27743)
(2.69243e-14 -0.295272 3.69746)
(4.17528e-14 -0.227418 3.37228)
(7.116e-14 0.0473523 3.19248)
(4.74088e-14 0.233049 3.67409)
(5.77671e-14 0.811516 2.85462)
(8.50031e-14 0.725789 3.31858)
(1.21752e-13 -0.376098 2.01989)
(1.8052e-13 -0.716702 1.6068)
(1.41018e-13 -0.7139 1.26246)
(1.54609e-13 -0.812401 0.974306)
(1.26755e-13 -0.781703 0.862447)
(1.33763e-13 -0.922909 0.934237)
(1.47696e-13 -1.1799 0.826536)
(1.58139e-13 -0.570044 3.17879)
(1.57554e-13 0.219618 4.44828)
(8.55876e-14 0.529695 4.09887)
(4.41195e-14 0.511733 4.02507)
(7.01851e-14 0.0721125 3.60229)
(1.77557e-13 -0.264383 3.60198)
(2.10552e-13 -0.242753 3.87134)
(1.50211e-13 -0.051994 3.96262)
(1.31954e-13 0.311103 3.75197)
(1.66574e-14 0.427159 3.2543)
(-9.75203e-16 0.505005 2.49034)
(1.26534e-14 0.5808 2.03487)
(-6.46422e-15 0.950277 0.90628)
(2.03887e-14 0.520937 -0.0454769)
(5.32899e-14 -0.795409 -0.489346)
(2.84933e-14 -0.257157 -0.206969)
(-3.36047e-15 0.344904 -0.00516397)
(-4.6317e-14 0.400059 0.203544)
(-7.85063e-14 0.737714 -0.217091)
(-7.87459e-14 1.29842 -0.670844)
(-7.22751e-14 1.82816 -1.06331)
(-4.27907e-14 2.36865 -1.29327)
(-9.14704e-14 2.81093 -1.20998)
(-1.20954e-13 2.50129 -1.36458)
(-2.57792e-14 1.41594 -2.53448)
(2.59136e-13 0.625563 -3.96706)
(3.63346e-13 0.254153 -4.85569)
(1.29125e-13 0.0168406 -5.41788)
(-4.10773e-13 -0.174591 -5.53551)
(-7.3434e-13 -0.283269 -5.35146)
(-8.53759e-13 -0.300859 -5.11337)
(-9.15127e-13 -0.314864 -4.9425)
(-9.64521e-13 -0.381435 -4.67102)
(-8.75019e-13 -0.423521 -4.2475)
(-6.15783e-13 -0.325735 -4.10131)
(-5.26462e-13 0.130303 -3.8788)
(-6.04109e-13 0.662241 -3.90147)
(-4.70817e-13 0.446998 -4.41455)
(-2.43747e-14 0.261632 -4.69391)
(4.87449e-13 0.240229 -4.78951)
(9.75943e-13 0.212546 -4.92329)
(1.29916e-12 0.162375 -5.02909)
(1.40468e-12 0.0989413 -5.14687)
(1.2469e-12 0.0492708 -5.24262)
(9.16558e-13 0.0379229 -5.30717)
(5.57885e-13 0.0264842 -5.34161)
(1.85889e-13 -0.0204957 -5.3346)
(-2.08785e-13 -0.0635187 -5.28753)
(-6.4268e-13 -0.11006 -5.2133)
(-1.01321e-12 -0.226716 -5.04951)
(-1.19728e-12 -0.375479 -4.74366)
(-1.1894e-12 -0.476251 -4.44053)
(-1.08564e-12 -0.495374 -4.27112)
(-7.61122e-13 -0.376794 -4.2378)
(1.11487e-15 -0.176891 -4.25683)
(9.6866e-13 -0.095301 -4.12989)
(1.62456e-12 -0.1571 -3.86973)
(1.9878e-12 -0.123633 -3.66403)
(2.10409e-12 0.0266271 -3.50496)
(1.97899e-12 0.130928 -3.23123)
(1.94121e-12 0.0184278 -3.03237)
(1.87129e-12 -0.721074 -3.03173)
(2.02229e-12 -0.838303 -2.81676)
(2.12491e-12 -0.219619 -3.18852)
(2.14749e-12 0.0323532 -2.79307)
(5.54289e-15 0.154921 0.00285371)
(-1.91829e-15 -0.0685825 0.555037)
(-4.19569e-15 -0.153061 0.857875)
(-7.05121e-15 -0.210344 1.13725)
(-1.23846e-14 -0.14925 1.19675)
(3.01007e-15 -0.249557 1.65171)
(-7.46641e-15 -0.301309 1.9925)
(1.2208e-14 -0.329158 2.4693)
(4.21988e-14 -0.378038 3.00341)
(3.11263e-14 -0.335109 3.33328)
(2.56166e-14 -0.200128 3.4381)
(5.53397e-14 -0.160949 3.41113)
(2.82363e-14 -0.161709 3.50915)
(-3.6808e-15 0.0236081 3.26465)
(-1.13402e-14 0.529384 3.0053)
(1.72023e-14 0.686231 2.35172)
(-2.3269e-15 0.360931 2.07607)
(-3.63179e-14 0.0020436 1.92721)
(-8.58682e-15 0.495466 1.46444)
(-2.91935e-14 0.491649 0.902214)
(3.70325e-14 -0.317479 2.20946)
(-5.37523e-15 -0.406407 3.34471)
(3.46835e-14 -0.303358 3.81337)
(6.30091e-14 -0.173898 3.51124)
(4.74932e-14 -0.070012 3.10209)
(6.13e-14 0.206072 3.76518)
(7.59687e-14 0.780308 3.09094)
(1.17803e-13 0.917218 3.22518)
(1.20052e-13 -0.163809 2.30581)
(1.56626e-13 -0.534636 1.65543)
(1.08864e-13 -0.61174 1.26969)
(9.47657e-14 -0.768609 0.980561)
(8.32841e-14 -0.758636 0.882441)
(8.55745e-14 -0.894283 0.856029)
(9.00711e-14 -1.38245 0.473571)
(1.27534e-13 -0.999157 1.75219)
(1.49737e-13 -0.0445948 4.02987)
(7.95109e-14 0.497295 4.01262)
(4.21826e-14 0.552902 4.06961)
(9.27859e-14 0.121607 3.60643)
(2.11028e-13 -0.285797 3.489)
(2.42874e-13 -0.272296 3.74688)
(2.81288e-13 -0.0398909 3.83711)
(1.92861e-13 0.416972 3.62698)
(1.38557e-13 0.556781 3.11315)
(1.26722e-13 0.63375 2.32554)
(1.38132e-13 0.737907 1.82453)
(8.56113e-14 1.15388 0.673568)
(9.68744e-14 0.450432 0.0501783)
(1.13329e-13 -0.917497 -0.198422)
(2.74479e-14 -0.265797 -0.20589)
(-7.74329e-14 0.415912 0.00562444)
(-1.09434e-13 0.594464 0.204227)
(-1.44837e-13 0.943918 -0.404339)
(-1.04789e-13 1.44642 -0.678129)
(-7.08388e-14 1.92798 -0.935541)
(-5.18597e-14 2.40816 -1.00325)
(-1.04678e-13 2.83644 -0.939444)
(-1.31685e-13 2.69986 -0.889094)
(-1.04388e-13 1.7959 -1.62102)
(1.02443e-13 0.981812 -3.00508)
(1.51832e-13 0.533288 -4.04929)
(-3.368e-13 0.207021 -4.8792)
(-1.10862e-12 -0.123031 -5.3835)
(-1.42944e-12 -0.347197 -5.40112)
(-1.33586e-12 -0.370131 -5.07846)
(-1.08864e-12 -0.367667 -4.84397)
(-8.57509e-13 -0.471277 -4.59487)
(-6.43547e-13 -0.516874 -4.12002)
(-4.89733e-13 -0.413748 -3.98351)
(-4.7162e-13 0.1137 -3.70669)
(-5.2704e-13 0.795232 -3.68089)
(-5.98015e-13 0.557636 -4.21578)
(-4.09704e-13 0.331041 -4.55722)
(2.19271e-15 0.287011 -4.67337)
(3.99102e-13 0.255638 -4.80899)
(6.28665e-13 0.205743 -4.9284)
(5.93764e-13 0.143048 -5.06307)
(2.82606e-13 0.084067 -5.18236)
(-1.31349e-13 0.0575474 -5.25849)
(-4.6837e-13 0.0294797 -5.28985)
(-7.32089e-13 -0.0398548 -5.2842)
(-9.76436e-13 -0.10264 -5.23922)
(-1.15129e-12 -0.174667 -5.13432)
(-1.15726e-12 -0.330417 -4.89181)
(-9.80942e-13 -0.484936 -4.55651)
(-7.84278e-13 -0.541981 -4.34531)
(-7.14105e-13 -0.512786 -4.26285)
(-7.36728e-13 -0.385473 -4.25076)
(-6.69332e-13 -0.232097 -4.19596)
(-3.74383e-13 -0.223942 -3.95323)
(-1.57387e-14 -0.32331 -3.63267)
(2.28087e-13 -0.407434 -3.35728)
(3.31019e-13 -0.593484 -2.79096)
(3.48869e-13 -0.832079 -1.73306)
(4.53488e-13 -0.56338 -0.677703)
(5.77109e-13 0.139391 0.856439)
(1.62011e-12 -0.0686103 -2.04747)
(1.79001e-12 -0.051402 -4.29407)
(1.77093e-12 0.116213 -3.98998)
(-6.91635e-14 0.142352 0.0970021)
(8.28591e-15 -0.0922394 0.654625)
(-3.79244e-14 -0.168383 0.936432)
(-3.45306e-14 -0.224112 1.17117)
(-8.55694e-15 -0.165716 1.13427)
(-3.43401e-15 -0.286849 1.58472)
(2.3633e-15 -0.34837 1.95599)
(1.55102e-14 -0.382799 2.48685)
(2.79393e-15 -0.421008 2.98328)
(6.86758e-15 -0.353041 3.21706)
(1.48608e-14 -0.19659 3.25869)
(2.43413e-14 -0.167162 3.21619)
(1.17544e-14 -0.156661 3.33292)
(-6.42559e-15 0.0648486 3.0994)
(-1.00399e-14 0.598041 2.78065)
(-4.47441e-15 0.735382 2.24465)
(5.87638e-15 0.380937 2.08635)
(-1.32993e-14 0.0426643 1.90731)
(-1.97286e-14 0.574443 1.24327)
(-8.59885e-15 0.351702 0.93548)
(-1.09636e-14 -0.550013 2.54662)
(-1.23746e-14 -0.514299 3.56359)
(3.55854e-15 -0.315227 3.78117)
(1.39759e-14 -0.145027 3.44175)
(4.91917e-14 -0.110003 2.49294)
(7.45618e-14 0.166323 2.04098)
(8.39662e-14 0.930225 0.548081)
(1.03048e-13 0.806896 1.1578)
(8.51157e-14 -0.210574 0.222813)
(8.06208e-14 -0.46344 0.804148)
(6.89692e-14 -0.561486 1.02179)
(6.27199e-14 -0.739252 0.928075)
(4.63129e-14 -0.746044 0.928719)
(4.52243e-14 -0.830593 1.0343)
(4.39833e-14 -1.35152 0.351157)
(8.06926e-14 -1.28338 0.0740347)
(1.19133e-13 -0.266097 3.01817)
(7.84268e-14 0.435059 3.91034)
(6.26169e-14 0.582319 3.96038)
(1.30875e-13 0.177195 3.4973)
(2.32358e-13 -0.301596 3.34957)
(2.78805e-13 -0.295729 3.61695)
(3.16163e-13 -0.0258635 3.70862)
(2.79133e-13 0.530852 3.50398)
(2.5501e-13 0.684162 3.02036)
(2.45057e-13 0.76964 2.21285)
(2.37278e-13 0.879741 1.79522)
(2.1011e-13 1.3255 0.418634)
(1.529e-13 0.298271 0.272601)
(1.19812e-13 -0.944582 0.157358)
(3.5842e-14 -0.134651 -0.256195)
(-8.51959e-14 0.583238 -0.462832)
(-1.4293e-13 0.763064 -0.0639353)
(-2.00042e-13 1.11003 -0.556939)
(-1.37998e-13 1.52974 -0.781999)
(-6.09496e-14 1.98387 -0.942224)
(-3.49727e-14 2.44417 -0.999221)
(-1.19773e-13 2.86254 -1.01655)
(-1.67697e-13 2.81921 -0.899259)
(-1.88113e-13 2.08059 -1.3073)
(-1.67944e-14 1.29308 -2.40739)
(-2.86233e-15 0.799759 -3.46643)
(-5.36762e-13 0.46102 -4.23885)
(-1.19259e-12 0.0414994 -4.98417)
(-1.19212e-12 -0.358287 -5.35381)
(-7.93922e-13 -0.452371 -5.08612)
(-4.57867e-13 -0.434138 -4.72246)
(-1.85562e-13 -0.566069 -4.49563)
(-7.77306e-14 -0.619364 -4.00175)
(-2.24825e-13 -0.514207 -3.85889)
(-3.5076e-13 0.0785009 -3.54642)
(-3.90409e-13 0.930088 -3.4561)
(-5.22241e-13 0.679702 -4.00401)
(-5.98495e-13 0.418401 -4.40146)
(-3.92297e-13 0.339436 -4.56359)
(-6.54157e-14 0.299674 -4.70368)
(6.08257e-14 0.253899 -4.82541)
(-5.99682e-14 0.194425 -4.96606)
(-3.95296e-13 0.126275 -5.10225)
(-7.64998e-13 0.0824676 -5.19224)
(-9.99695e-13 0.0387894 -5.22443)
(-1.1058e-12 -0.0482248 -5.22243)
(-1.10629e-12 -0.129669 -5.18912)
(-9.55544e-13 -0.240686 -5.05171)
(-6.29943e-13 -0.435147 -4.72774)
(-2.69506e-13 -0.560387 -4.40124)
(-2.78481e-14 -0.571976 -4.31109)
(9.90672e-14 -0.522114 -4.23535)
(1.54261e-13 -0.397667 -4.2099)
(3.19835e-13 -0.288068 -4.07128)
(6.88856e-13 -0.312459 -3.73773)
(9.97525e-13 -0.373298 -3.37785)
(1.05201e-12 -0.444634 -3.03435)
(9.64097e-13 -0.714644 -2.60925)
(8.54617e-13 -1.17362 -2.52791)
(7.29162e-13 -1.35262 -2.72023)
(7.03971e-13 -0.310632 -1.61441)
(1.23785e-12 0.83316 -0.259913)
(1.38862e-12 0.515139 -0.45387)
(1.21202e-12 0.0337119 0.855751)
(-1.39461e-13 0.124227 0.189169)
(6.47367e-15 -0.116198 0.745071)
(-3.73658e-14 -0.181622 0.990851)
(-1.17298e-16 -0.231742 1.18548)
(3.6271e-14 -0.178209 1.06179)
(1.56903e-14 -0.326149 1.53074)
(5.31283e-15 -0.400182 1.92878)
(1.58778e-14 -0.436676 2.49199)
(6.33855e-15 -0.45604 2.92635)
(-1.06918e-14 -0.362222 3.0796)
(1.36911e-14 -0.189295 3.07)
(1.37699e-15 -0.176305 3.04361)
(-4.31504e-15 -0.154775 3.18107)
(-5.76492e-15 0.111215 2.9466)
(-5.41366e-15 0.661763 2.56748)
(8.0341e-15 0.767875 2.14992)
(5.91741e-15 0.397033 2.11946)
(1.12576e-14 0.10183 1.93788)
(-3.12583e-15 0.637195 1.18613)
(-3.89855e-14 0.216722 1.49022)
(-2.74354e-14 -0.706164 3.05277)
(-1.12299e-14 -0.56984 3.65278)
(-3.10418e-14 -0.39871 3.36171)
(4.52956e-14 -0.149963 2.70421)
(2.86196e-14 0.0618539 0.966812)
(5.61568e-14 0.170563 0.692735)
(6.61482e-14 0.836991 -0.629912)
(8.93886e-14 0.645075 -0.335492)
(5.44201e-14 -0.291262 -1.13933)
(5.29e-14 -0.597149 0.026322)
(6.48888e-14 -0.63138 0.697401)
(4.16945e-14 -0.756143 0.841412)
(5.50032e-14 -0.756473 0.897545)
(4.04519e-14 -0.765691 1.05224)
(6.60836e-15 -1.19658 0.359954)
(5.43673e-14 -1.55736 -0.50898)
(9.18867e-14 -0.756987 1.40984)
(1.03437e-13 0.206293 3.82423)
(1.13347e-13 0.567054 3.66512)
(1.66645e-13 0.199697 3.34583)
(1.99197e-13 -0.331764 3.22289)
(2.272e-13 -0.319053 3.48676)
(3.00868e-13 -0.0141341 3.5752)
(2.97484e-13 0.65689 3.38593)
(3.08772e-13 0.802636 2.97065)
(2.95889e-13 0.90161 2.16415)
(2.76583e-13 1.01863 1.87123)
(2.51456e-13 1.46367 0.203819)
(1.67295e-13 0.0700893 0.688689)
(8.84881e-14 -0.93759 0.567387)
(4.61381e-14 0.00766966 -0.0649701)
(-5.09741e-15 0.724594 -0.445724)
(-1.24486e-13 0.901066 -0.265623)
(-2.24313e-13 1.23889 -0.645815)
(-1.48248e-13 1.61504 -1.02694)
(-4.0508e-14 2.05301 -1.31545)
(-4.87167e-14 2.49666 -1.43579)
(-1.59514e-13 2.88282 -1.4063)
(-2.07203e-13 2.87931 -1.2003)
(-2.17651e-13 2.28278 -1.40262)
(-8.83178e-14 1.54993 -2.25335)
(-1.42366e-13 1.02319 -3.16157)
(-6.21911e-13 0.683644 -3.85254)
(-1.01742e-12 0.266426 -4.5117)
(-5.7273e-13 -0.283328 -5.14153)
(7.21877e-14 -0.525743 -5.1453)
(3.77909e-13 -0.518146 -4.58383)
(5.09022e-13 -0.660204 -4.36963)
(4.39735e-13 -0.724536 -3.88501)
(6.139e-14 -0.619729 -3.73846)
(-2.31142e-13 0.0230261 -3.416)
(-2.56532e-13 1.06468 -3.23844)
(-3.53308e-13 0.809699 -3.79177)
(-6.00948e-13 0.526113 -4.22272)
(-6.32248e-13 0.405085 -4.44176)
(-4.67075e-13 0.344435 -4.61358)
(-3.86048e-13 0.300353 -4.73412)
(-4.95072e-13 0.247638 -4.86637)
(-7.75847e-13 0.173002 -5.01211)
(-1.00261e-12 0.108074 -5.12123)
(-1.09824e-12 0.0414704 -5.15826)
(-1.03648e-12 -0.0671168 -5.15375)
(-7.84657e-13 -0.174055 -5.11932)
(-3.74656e-13 -0.34051 -4.93038)
(8.66209e-14 -0.557841 -4.59088)
(4.40323e-13 -0.62029 -4.34781)
(7.38841e-13 -0.585235 -4.29737)
(9.90301e-13 -0.536147 -4.19455)
(1.196e-12 -0.436828 -4.12496)
(1.45427e-12 -0.401424 -3.90685)
(1.75306e-12 -0.477225 -3.55562)
(1.85936e-12 -0.533779 -3.23398)
(1.68609e-12 -0.557532 -2.92793)
(1.43708e-12 -0.697778 -2.57574)
(1.27001e-12 -0.976273 -2.40383)