/*--------------------------------*- C++ -*----------------------------------*\
| =========                 |                                                 |
| \\      /  F ield         | OpenFOAM: The Open Source CFD Toolbox           |
|  \\    /   O peration     | Version:  4.1                                   |
|   \\  /    A nd           | Web:      www.OpenFOAM.org                      |
|    \\/     M anipulation  |                                                 |
\*---------------------------------------------------------------------------*/
FoamFile
{
    version     2.0;
    format      ascii;
    class       volScalarField;
    location    "900";
    object      p;
}
// * * * * * * * * * * * * * * * * * * * * * * * * * * * * * * * * * * * * * //

dimensions      [0 2 -2 0 0 0 0];

internalField   nonuniform List<scalar> 
26785
(
81.2725
87.9738
93.3662
97.8254
101.828
105.391
108.63
111.775
114.985
118.208
121.254
123.772
125.477
126.647
127.333
127.356
127.245
126.989
126.348
125.262
123.804
122.036
119.976
117.634
115.057
112.335
109.527
106.589
103.35
99.5492
95.055
90.0662
85.1123
80.9398
78.1668
77.1449
78.3413
82.2739
89.1418
98.8435
110.331
122.125
133.51
144.829
157.002
170.29
183.519
195.106
204.204
210.794
215.287
218.232
220.151
221.434
222.3
222.777
222.708
221.85
219.993
216.965
212.585
206.64
198.914
189.249
177.636
164.31
149.803
134.881
120.331
106.649
93.8536
81.5743
69.2576
56.3476
42.5035
27.8199
12.8344
-1.71535
-15.1449
-26.9409
-36.7889
-44.5116
-49.987
-53.1045
-53.7069
-51.7549
-47.6592
-42.261
-36.4324
-30.7767
-25.6031
-21.0221
-17.0292
-13.5814
-10.5862
-8.03129
-5.6903
-3.90269
-1.53834
-1.54959
81.2915
87.9702
93.3597
97.8202
101.824
105.387
108.625
111.769
114.979
118.206
121.256
123.777
125.474
126.634
127.328
127.357
127.248
126.983
126.329
125.234
123.771
121.999
119.935
117.589
115.007
112.282
109.472
106.534
103.295
99.4879
94.9815
89.9763
85.0067
80.8258
78.0508
77.0211
78.2027
82.1246
88.9924
98.7357
110.288
122.114
133.481
144.748
156.877
170.179
183.466
195.11
204.242
210.843
215.331
218.264
220.172
221.452
222.324
222.819
222.77
221.93
220.086
217.067
212.69
206.736
198.99
189.292
177.629
164.238
149.658
134.674
120.099
106.435
93.6879
81.4686
69.2051
56.3198
42.4565
27.7177
12.6665
-1.93734
-15.4022
-27.2164
-37.0747
-44.813
-50.3153
-53.4775
-54.1239
-52.1706
-48.0104
-42.5153
-36.5948
-30.8688
-25.6473
-21.0361
-17.0254
-13.5679
-10.5687
-8.01329
-5.67834
-3.89266
-1.5588
-1.52163
81.2993
87.9563
93.344
97.8082
101.815
105.377
108.613
111.755
114.967
118.199
121.261
123.787
125.47
126.609
127.312
127.357
127.246
126.96
126.281
125.17
123.697
121.918
119.848
117.494
114.905
112.174
109.362
106.424
103.184
99.3677
94.8409
89.8086
84.8133
80.6207
77.8451
76.8022
77.9546
81.8522
88.7115
98.5259
110.202
122.096
133.427
144.587
156.629
169.956
183.36
195.119
204.318
210.94
215.417
218.325
220.211
221.485
222.37
222.895
222.884
222.077
220.255
217.246
212.864
206.897
199.122
189.367
177.61
164.09
149.369
134.27
119.651
106.025
93.3733
81.269
69.1075
56.272
42.3777
27.5401
12.3702
-2.33297
-15.8647
-27.7148
-37.5939
-45.3786
-50.9627
-54.2316
-54.9729
-53.0201
-48.7295
-43.0365
-36.9285
-31.0594
-25.7405
-21.0673
-17.0193
-13.5408
-10.5324
-7.97484
-5.65143
-3.86874
-1.59968
-1.46183
81.2991
87.9406
93.3243
97.7921
101.802
105.363
108.595
111.734
114.948
118.187
121.266
123.801
125.464
126.572
127.281
127.354
127.233
126.915
126.201
125.07
123.584
121.795
119.717
117.355
114.755
112.016
109.2
106.261
103.019
99.1917
94.6402
89.5754
84.5496
80.345
77.5727
76.5132
77.6223
81.4802
88.3172
98.2191
110.064
122.071
133.395
144.454
156.388
169.722
183.249
195.146
204.43
211.078
215.538
218.409
220.263
221.526
222.43
222.995
223.036
222.278
220.485
217.484
213.097
207.111
199.295
189.465
177.588
163.9
148.989
133.736
119.059
105.49
92.9656
81.0138
68.9882
56.2218
42.2905
27.327
12.0059
-2.82256
-16.4384
-28.3331
-38.2332
-46.0769
-51.7945
-55.2364
-56.1468
-54.2347
-49.7792
-43.8061
-37.4262
-31.348
-25.8861
-21.1221
-17.0195
-13.5101
-10.4873
-7.92467
-5.61397
-3.8321
-1.64045
-1.38399
81.2881
87.9182
93.2988
97.7719
101.786
105.346
108.572
111.706
114.921
118.17
121.27
123.815
125.451
126.522
127.231
127.341
127.201
126.843
126.091
124.935
123.434
121.634
119.547
117.174
114.563
111.813
108.991
106.049
102.803
98.9621
94.3841
89.2852
84.2279
80.0142
77.2517
76.1741
77.2262
81.027
87.825
97.8248
109.872
122.027
133.373
144.348
156.182
169.522
183.172
195.211
204.583
211.255
215.688
218.509
220.32
221.57
222.498
223.112
223.215
222.518
220.752
217.753
213.362
207.367
199.522
189.619
177.603
163.706
148.552
133.096
118.343
104.844
92.4777
80.7125
68.8545
56.175
42.1997
27.0828
11.5812
-3.39173
-17.0985
-29.0319
-38.9311
-46.8021
-52.675
-56.3435
-57.5119
-55.7235
-51.1098
-44.8005
-38.0793
-31.7355
-26.0914
-21.2112
-17.0382
-13.4881
-10.4452
-7.87339
-5.57324
-3.78867
-1.66922
-1.30856
81.287
87.8911
93.2679
97.7486
101.768
105.326
108.545
111.671
114.886
118.145
121.268
123.822
125.426
126.455
127.16
127.307
127.147
126.744
125.951
124.768
123.249
121.438
119.342
116.958
114.333
111.57
108.737
105.788
102.535
98.6789
94.0749
88.9442
83.8583
79.6409
76.8969
75.8018
76.784
80.5092
87.2496
97.3527
109.624
121.96
133.363
144.284
156.044
169.4
183.166
195.335
204.784
211.47
215.865
218.621
220.377
221.611
222.566
223.238
223.413
222.777
221.03
218.043
213.669
207.687
199.826
189.847
177.667
163.518
148.066
132.359
117.518
104.106
91.9301
80.3856
68.7265
56.1513
42.1232
26.8241
11.1126
-4.02397
-17.8297
-29.7969
-39.6725
-47.5151
-53.5011
-57.4065
-58.8901
-57.3349
-52.6227
-45.9636
-38.8597
-32.2109
-26.3556
-21.3396
-17.0836
-13.4845
-10.4157
-7.83024
-5.53662
-3.74589
-1.68624
-1.24323
81.2994
87.8634
93.2342
97.724
101.75
105.305
108.513
111.628
114.842
118.11
121.254
123.817
125.383
126.37
127.066
127.246
127.063
126.619
125.784
124.573
123.035
121.211
119.105
116.708
114.067
111.288
108.441
105.48
102.216
98.3431
93.7156
88.5586
83.45
79.2364
76.5212
75.4108
76.3107
79.9416
86.6045
96.8138
109.326
121.863
133.351
144.254
155.981
169.377
183.251
195.531
205.038
211.723
216.063
218.738
220.428
221.644
222.629
223.37
223.621
223.033
221.31
218.358
214.028
208.081
200.216
190.158
177.795
163.354
147.55
131.548
116.606
103.303
91.3438
80.0457
68.6097
56.1521
42.0631
26.5578
10.6136
-4.70201
-18.6161
-30.6162
-40.4532
-48.2196
-54.2366
-58.3628
-60.1587
-58.9266
-54.2091
-47.2269
-39.7298
-32.7572
-26.6741
-21.5099
-17.1616
-13.5063
-10.4061
-7.80224
-5.51027
-3.71053
-1.6989
-1.18779
81.2976
87.8315
93.1975
97.6984
101.732
105.282
108.477
111.578
114.788
118.06
121.223
123.79
125.318
126.262
126.943
127.149
126.945
126.465
125.592
124.351
122.792
120.955
118.838
116.428
113.769
110.971
108.105
105.127
101.847
97.9569
93.3106
88.1356
83.0126
78.8115
76.1369
75.0147
75.8207
79.3385
85.904
96.2189
108.983
121.733
133.332
144.256
155.996
169.462
183.441
195.807
205.347
212.011
216.278
218.856
220.469
221.665
222.683
223.502
223.827
223.274
221.596
218.707
214.447
208.554
200.696
190.558
177.994
163.224
147.018
130.678
115.631
102.46
90.7414
79.7053
68.505
56.171
42.0133
26.2842
10.0923
-5.41219
-19.4443
-31.4819
-41.2731
-48.9294
-54.8873
-59.1857
-61.2506
-60.384
-55.7587
-48.5108
-40.6408
-33.3486
-27.0359
-21.7197
-17.2745
-13.5581
-10.4215
-7.79459
-5.49915
-3.68752
-1.7147
-1.13883
81.2843
87.8012
93.1603
97.6729
101.715
105.259
108.437
111.52
114.721
117.992
121.169
123.735
125.231
126.124
126.788
127.011
126.787
126.28
125.375
124.105
122.524
120.671
118.542
116.118
113.44
110.619
107.73
104.73
101.431
97.5238
92.8655
87.6831
82.5558
78.3766
75.7549
74.6262
75.3274
78.7134
85.1628
95.5808
108.603
121.571
133.299
144.282
156.088
169.659
183.739
196.164
205.711
212.332
216.508
218.97
220.494
221.665
222.726
223.627
224.016
223.503
221.897
219.098
214.928
209.104
201.26
191.036
178.249
163.111
146.455
129.741
114.594
101.589
90.1342
79.3705
68.4115
56.2011
41.967
26.0016
9.55533
-6.14095
-20.2995
-32.3832
-42.1288
-49.6588
-55.4877
-59.8765
-62.1574
-61.6459
-57.1834
-49.7394
-41.5412
-33.9549
-27.4259
-21.9632
-17.4218
-13.642
-10.465
-7.8107
-5.50667
-3.67998
-1.73895
-1.09404
81.2591
87.7708
93.1222
97.6481
101.7
105.236
108.393
111.454
114.642
117.902
121.088
123.646
125.116
125.954
126.596
126.829
126.588
126.061
125.133
123.836
122.231
120.362
118.219
115.779
113.081
110.235
107.319
104.293
100.971
97.0485
92.3861
87.209
82.0888
77.9407
75.3845
74.2566
74.8437
78.08
84.3978
94.9138
108.194
121.378
133.249
144.329
156.255
169.968
184.143
196.599
206.124
212.682
216.748
219.077
220.502
221.64
222.764
223.733
224.176
223.73
222.224
219.532
215.465
209.715
201.877
191.547
178.513
162.977
145.826
128.702
113.474
100.685
89.5263
79.0459
68.3307
56.2414
41.9248
25.7189
9.02354
-6.85874
-21.1518
-33.2972
-43.0079
-50.4106
-56.0668
-60.4523
-62.9026
-62.696
-58.4228
-50.8475
-42.3815
-34.5446
-27.8263
-22.2318
-17.6002
-13.7575
-10.5376
-7.85235
-5.53495
-3.68985
-1.77481
-1.05308
81.2362
87.7406
93.0829
97.6237
101.685
105.211
108.345
111.379
114.546
117.788
120.978
123.527
124.965
125.752
126.363
126.6
126.35
125.807
124.862
123.544
121.916
120.028
117.871
115.414
112.693
109.82
106.876
103.82
100.472
96.5357
91.8784
86.7205
81.6194
77.5111
75.0327
73.9151
74.3806
77.4513
83.6278
94.2346
107.766
121.157
133.179
144.394
156.496
170.382
184.644
197.104
206.581
213.055
216.994
219.178
220.493
221.593
222.786
223.806
224.316
223.968
222.58
220.002
216.036
210.345
202.485
192.034
178.747
162.789
145.094
127.529
112.257
99.7533
88.9275
78.7396
68.2668
56.2927
41.89
25.4528
8.53138
-7.52033
-21.9559
-34.1868
-43.8865
-51.1765
-56.6398
-60.9342
-63.5081
-63.5412
-59.4414
-51.7846
-43.1188
-35.088
-28.2189
-22.5148
-17.8038
-13.9017
-10.6378
-7.91862
-5.58353
-3.7167
-1.82251
-1.01637
81.2173
87.7123
93.0432
97.6002
101.671
105.186
108.292
111.293
114.433
117.65
120.835
123.383
124.776
125.522
126.092
126.327
126.074
125.519
124.561
123.229
121.581
119.672
117.497
115.023
112.279
109.378
106.402
103.314
99.938
95.9902
91.3478
86.2236
81.1537
77.0925
74.7037
73.6083
73.9467
76.8382
82.8727
93.5622
107.33
120.912
133.089
144.476
156.807
170.892
185.229
197.666
207.071
213.444
217.24
219.271
220.472
221.55
222.778
223.846
224.447
224.22
222.954
220.483
216.598
210.93
203.034
192.473
178.935
162.531
144.246
126.218
110.955
98.8179
88.361
78.4675
68.2258
56.3489
41.8508
25.2078
8.10607
-8.0835
-22.665
-35.0088
-44.7324
-51.9406
-57.2085
-61.3409
-63.9766
-64.1879
-60.2189
-52.5143
-43.7187
-35.559
-28.5854
-22.8004
-18.0251
-14.0697
-10.7625
-8.00766
-5.65133
-3.75987
-1.8816
-0.985151
81.1849
87.6837
93.0026
97.5774
101.658
105.16
108.234
111.196
114.299
117.49
120.664
123.207
124.551
125.265
125.784
126.014
125.764
125.202
124.23
122.887
121.224
119.294
117.101
114.607
111.84
108.91
105.902
102.779
99.3732
95.4167
90.7985
85.7223
80.6954
76.6869
74.3989
73.3404
73.5479
76.2483
82.1515
92.9163
106.897
120.651
132.984
144.578
157.186
171.487
185.882
198.269
207.584
213.841
217.483
219.343
220.428
221.523
222.747
223.884
224.585
224.481
223.33
220.943
217.094
211.429
203.513
192.856
179.069
162.202
143.287
124.777
109.595
97.9193
87.8663
78.2556
68.2101
56.3796
41.7664
24.9676
7.75709
-8.52212
-23.2423
-35.7228
-45.5106
-52.6815
-57.7677
-61.6875
-64.3035
-64.6336
-60.7433
-53.0132
-44.1572
-35.9377
-28.9107
-23.077
-18.2549
-14.2542
-10.906
-8.11484
-5.73456
-3.81633
-1.94967
-0.960748
81.1411
87.6581
92.9617
97.5552
101.646
105.133
108.17
111.085
114.148
117.311
120.479
122.994
124.298
124.985
125.445
125.668
125.426
124.859
123.874
122.517
120.842
118.897
116.684
114.17
111.379
108.42
105.377
102.218
98.7818
94.8191
90.234
85.2196
80.2468
76.2955
74.1181
73.1156
73.1886
75.6845
81.4817
92.3175
106.481
120.379
132.869
144.704
157.629
172.148
186.579
198.895
208.106
214.232
217.715
219.386
220.359
221.439
222.681
223.938
224.729
224.742
223.695
221.341
217.501
211.854
203.926
193.18
179.153
161.811
142.223
123.227
108.225
97.1256
87.507
78.1387
68.2087
56.3321
41.5972
24.7208
7.48713
-8.8244
-23.6646
-36.2962
-46.1881
-53.3766
-58.3108
-61.9873
-64.4967
-64.8715
-61.0062
-53.2683
-44.4195
-36.2093
-29.1811
-23.3327
-18.4835
-14.4474
-11.0617
-8.23491
-5.82903
-3.883
-2.02395
-0.943665
81.0842
87.6333
92.9201
97.5337
101.634
105.105
108.099
110.96
113.981
117.112
120.287
122.745
124.022
124.685
125.083
125.298
125.069
124.497
123.498
122.123
120.434
118.478
116.248
113.713
110.898
107.91
104.833
101.636
98.1676
94.201
89.6569
84.7174
79.8094
75.9187
73.8575
72.9345
72.8721
75.1467
80.8775
91.7861
106.092
120.106
132.753
144.859
158.126
172.851
187.298
199.525
208.623
214.614
217.939
219.434
220.306
221.286
222.585
223.995
224.859
224.98
223.973
221.623
217.828
212.207
204.271
193.448
179.189
161.362
141.069
121.615
106.936
96.5389
87.3545
78.1373
68.1901
56.1763
41.3474
24.4766
7.29943
-8.98718
-23.9153
-36.6967
-46.7272
-54.0011
-58.8292
-62.2498
-64.5805
-64.9067
-61.0059
-53.2778
-44.502
-36.367
-29.3878
-23.5578
-18.7015
-14.6408
-11.2226
-8.3617
-5.92904
-3.95437
-2.09955
-0.935016
81.0283
87.6074
92.8763
97.5122
101.623
105.074
108.019
110.822
113.804
116.91
120.082
122.467
123.728
124.37
124.708
124.914
124.7
124.122
123.106
121.71
120.001
118.033
115.792
113.238
110.399
107.382
104.27
101.034
97.5344
93.5655
89.0693
84.217
79.3852
75.5561
73.6126
72.7919
72.6115
74.6424
80.3502
91.3423
105.745
119.844
132.649
145.049
158.668
173.579
188.021
200.14
209.111
214.965
218.135
219.492
220.226
221.097
222.513
224.06
224.928
225.077
224.093
221.778
218.02
212.439
204.521
193.648
179.178
160.869
139.865
120.027
105.852
96.2467
87.4166
78.2126
68.1188
55.9274
41.0481
24.25
7.19356
-9.01285
-23.9781
-36.8832
-47.0778
-54.5182
-59.3112
-62.4771
-64.5853
-64.7593
-60.7512
-53.0502
-44.4091
-36.4087
-29.5236
-23.7428
-18.8985
-14.8245
-11.3799
-8.48808
-6.02953
-4.0281
-2.17375
-0.936483
80.9797
87.5826
92.831
97.491
101.611
105.039
107.928
110.672
113.617
116.721
119.855
122.17
123.422
124.044
124.329
124.528
124.327
123.74
122.706
121.283
119.549
117.564
115.313
112.746
109.886
106.841
103.694
100.418
96.8861
92.9165
88.4747
83.7222
78.9791
75.2117
73.3928
72.678
72.443
74.1908
79.9012
91.0048
105.448
119.607
132.572
145.3
159.296
174.398
188.807
200.785
209.598
215.271
218.279
219.546
220.092
220.891
222.468
224.102
224.969
225.085
224.132
221.841
218.108
212.546
204.639
193.737
179.101
160.347
138.67
118.573
105.077
96.2384
87.5955
78.2874
67.9721
55.6068
40.7243
24.0506
7.16384
-8.91139
-23.8492
-36.8283
-47.1923
-54.8532
-59.714
-62.647
-64.5354
-64.4617
-60.2572
-52.6044
-44.1542
-36.3383
-29.5849
-23.8796
-19.065
-14.9894
-11.5253
-8.60631
-6.12155
-4.09107
-2.23296
-0.948036
80.9215
87.5561
92.7832
97.4701
101.599
105
107.826
110.517
113.428
116.544
119.61
121.86
123.105
123.714
123.954
124.147
123.957
123.358
122.301
120.849
119.084
117.074
114.81
112.233
109.357
106.287
103.106
99.7916
96.2273
92.2587
87.8778
83.2378
78.5961
74.8933
73.2113
72.5463
72.3259
73.7819
79.4974
90.766
105.215
119.409
132.56
145.727
160.159
175.403
189.716
201.51
210.088
215.513
218.382
219.545
219.924
220.74
222.439
224.152
225.052
225.044
224.15
221.899
218.184
212.626
204.704
193.742
178.939
159.8
137.551
117.371
104.662
96.4121
87.7719
78.2991
67.7432
55.2436
40.4047
23.8961
7.21362
-8.69712
-23.5592
-36.5618
-47.0631
-54.9502
-59.9953
-62.728
-64.4463
-64.0584
-59.5569
-51.9795
-43.7609
-36.1634
-29.5696
-23.9618
-19.1933
-15.127
-11.65
-8.70751
-6.19925
-4.14665
-2.27345
-0.969345
80.8551
87.53
92.7329
97.4488
101.586
104.953
107.714
110.356
113.257
116.366
119.352
121.545
122.784
123.384
123.591
123.777
123.594
122.98
121.898
120.412
118.61
116.57
114.286
111.698
108.81
105.72
102.508
99.1557
95.5608
91.5948
87.2782
82.7587
78.2236
74.5904
73.0449
72.3301
72.1528
73.3961
79.124
90.6494
105.052
119.285
132.753
146.448
161.246
176.545
190.714
202.273
210.511
215.691
218.398
219.473
219.785
220.644
222.425
224.278
225.204
225.036
224.169
221.936
218.23
212.676
204.757
193.757
178.79
159.277
136.577
116.545
104.626
96.6818
87.8931
78.2136
67.4669
54.8905
40.1334
23.8214
7.36677
-8.36683
-23.1231
-36.0929
-46.66
-54.7861
-60.1167
-62.6984
-64.1544
-63.4894
-58.6665
-51.2149
-43.2701
-35.9187
-29.501
-24.0018
-19.2891
-15.2428
-11.7644
-8.80599
-6.27412
-4.17261
-2.27648
-1.01568
80.7782
87.5028
92.68
97.4272
101.568
104.897
107.596
110.193
113.106
116.182
119.087
121.227
122.461
123.059
123.242
123.421
123.241
122.61
121.499
119.976
118.134
116.058
113.748
111.142
108.241
105.135
101.898
98.5103
94.8862
90.9232
86.6714
82.2728
77.8408
74.2893
72.8656
72.0975
72.088
73.349
78.8496
90.657
105.039
119.382
133.233
147.403
162.48
177.784
191.774
203.011
210.808
215.734
218.323
219.342
219.697
220.497
222.468
224.587
225.368
225.071
224.193
221.962
218.252
212.693
204.776
193.77
178.721
158.933
135.879
116.137
104.843
96.9884
88.0204
78.1083
67.1818
54.5575
39.9136
23.827
7.6033
-7.95882
-22.5563
-35.368
-45.8254
-53.9904
-59.6005
-62.5166
-63.6949
-62.3914
-57.4018
-50.25
-42.6784
-35.6261
-29.4143
-24.0435
-19.4015
-15.3845
-11.9069
-8.92648
-6.37146
-4.22684
-2.30929
-1.07857
80.7045
87.4713
92.6224
97.4037
101.545
104.832
107.474
110.044
112.963
115.992
118.82
120.91
122.141
122.742
122.909
123.08
122.899
122.248
121.107
119.544
117.659
115.543
113.2
110.57
107.651
104.528
101.268
97.854
94.2075
90.2512
86.0678
81.794
77.4766
74.0461
72.7189
71.903
71.9415
73.598
78.9759
90.8886
105.225
119.724
133.948
148.527
163.825
179.1
192.859
203.655
210.977
215.645
218.169
219.162
219.525
220.347
222.68
224.926
225.515
225.143
224.228
221.983
218.258
212.689
204.78
193.791
178.726
158.797
135.523
116.057
105.164
97.3099
88.1883
78.0505
66.9334
54.2355
39.6991
23.8669
7.90703
-7.45116
-21.8274
-34.3828
-44.6182
-52.7029
-58.4086
-61.5055
-62.3993
-60.7108
-55.8371
-49.1303
-42.0141
-35.3158
-29.3469
-24.1252
-19.563
-15.5802
-12.1132
-9.12433
-6.55791
-4.33297
-2.19984
-1.07025
80.6452
87.4385
92.5606
97.3769
101.513
104.759
107.347
109.915
112.823
115.8
118.554
120.597
121.825
122.435
122.592
122.753
122.567
121.895
120.723
119.119
117.189
115.029
112.648
109.987
107.043
103.898
100.615
97.1773
93.515
89.5688
85.4569
81.313
77.1342
73.8687
72.5911
71.7206
71.701
73.992
79.4
91.3284
105.637
120.293
134.851
149.784
165.256
180.462
193.908
204.155
211.027
215.477
217.946
218.932
219.288
220.249
223.065
225.165
225.659
225.235
224.276
222.006
218.254
212.669
204.772
193.83
178.825
158.891
135.532
116.262
105.556
97.6365
88.3754
78.0188
66.7114
53.9432
39.5232
23.9594
8.27462
-6.85573
-20.9623
-33.2126
-43.2134
-51.196
-56.8807
-59.9245
-60.6264
-58.7736
-54.1557
-47.9382
-41.3025
-34.9805
-29.2737
-24.2201
-19.7587
-15.8272
-12.3705
-9.33908
-6.67667
-4.2765
-1.9112
-1.00726
80.5799
87.4019
92.4944
97.345
101.47
104.678
107.227
109.798
112.68
115.606
118.289
120.29
121.516
122.139
122.292
122.442
122.247
121.553
120.347
118.701
116.724
114.518
112.096
109.398
106.423
103.25
99.939
96.4766
92.7983
88.8629
84.8235
80.8104
76.7988
73.7453
72.498
71.6014
71.4995
74.408
80.1027
91.999
106.273
121.059
135.907
151.144
166.744
181.816
194.853
204.478
210.959
215.251
217.693
218.697
219.042
220.255
223.448
225.367
225.824
225.345
224.343
222.039
218.252
212.648
204.766
193.893
179.021
159.225
135.922
116.743
106.022
97.9686
88.5897
78.0267
66.5312
53.694
39.3917
24.096
8.69315
-6.177
-19.9568
-31.8654
-41.6476
-49.5382
-55.1363
-58.0796
-58.6696
-56.7735
-52.4628
-46.7278
-40.5639
-34.6219
-29.1898
-24.3165
-19.9542
-16.0543
-12.5933
-9.56026
-6.90144
-4.51344
-2.32914
-1.26991
80.5085
87.3628
92.4226
97.3055
101.416
104.587
107.119
109.685
112.537
115.413
118.029
119.99
121.216
121.854
122.007
122.144
121.938
121.22
119.98
118.291
116.267
114.014
111.546
108.806
105.793
102.586
99.2439
95.7559
92.0621
88.1384
84.1713
80.2878
76.4708
73.656
72.4361
71.6073
71.5542
74.894
81.046
92.8841
107.1
121.985
137.085
152.577
168.245
183.1
195.643
204.643
210.798
214.986
217.435
218.467
218.832
220.376
223.759
225.597
226.026
225.484
224.436
222.09
218.263
212.636
204.772
193.992
179.317
159.794
136.685
117.503
106.586
98.3152
88.8329
78.078
66.403
53.5028
39.3164
24.2793
9.15683
-5.43623
-18.8653
-30.4125
-39.9697
-47.747
-53.2025
-56.0514
-56.6016
-54.7721
-50.7997
-45.5342
-39.83
-34.265
-29.1039
-24.4028
-20.1433
-16.3164
-12.9292
-9.95556
-7.29063
-4.96125
-3.17559
-1.69318
80.4293
87.3204
92.3441
97.2562
101.352
104.493
107.016
109.572
112.394
115.22
117.774
119.698
120.924
121.581
121.738
121.86
121.64
120.897
119.622
117.889
115.818
113.517
111.001
108.213
105.156
101.909
98.5321
95.0176
91.3096
87.3999
83.5032
79.7463
76.1456
73.5839
72.4034
71.682
71.8755
75.525
82.1568
93.9262
108.072
123.038
138.355
154.047
169.713
184.265
196.257
204.701
210.575
214.707
217.186
218.242
218.711
220.701
224.047
225.862
226.276
225.672
224.563
222.17
218.297
212.644
204.801
194.132
179.711
160.581
137.807
118.549
107.27
98.6887
89.1089
78.1806
66.3376
53.3784
39.2998
24.5082
9.66998
-4.62262
-17.6978
-28.9136
-38.2606
-45.886
-51.155
-53.9141
-54.4779
-52.7916
-49.1733
-44.3631
-39.1024
-33.9014
-29.0072
-24.4931
-20.3667
-16.6337
-13.3116
-10.3625
-7.65882
-5.38454
-3.90871
-2.10691
80.3543
87.2696
92.2551
97.1958
101.275
104.401
106.911
109.458
112.25
115.028
117.524
119.416
120.643
121.32
121.483
121.589
121.354
120.584
119.272
117.495
115.376
113.028
110.462
107.622
104.515
101.223
97.8065
94.2642
90.5437
86.6512
82.8225
79.1892
75.8178
73.5098
72.4073
71.8187
72.407
76.2706
83.3571
95.0693
109.152
124.188
139.685
155.513
171.106
185.282
196.693
204.687
210.329
214.443
216.959
218.039
218.721
221.22
224.388
226.171
226.579
225.923
224.733
222.287
218.365
212.684
204.864
194.318
180.191
161.556
139.256
119.892
108.107
99.1113
89.4213
78.3392
66.3412
53.3257
39.3429
24.778
10.2213
-3.74871
-16.4547
-27.3606
-36.5302
-43.9839
-49.044
-51.7351
-52.3392
-50.8343
-47.5711
-43.1981
-38.3595
-33.5059
-28.8701
-24.5399
-20.5428
-16.9
-13.6438
-10.7259
-8.00271
-5.78377
-4.49985
-2.47059
80.299
87.2124
92.1538
97.1241
101.187
104.305
106.801
109.342
112.106
114.838
117.28
119.143
120.37
121.07
121.243
121.33
121.078
120.281
118.932
117.11
114.943
112.547
109.93
107.034
103.873
100.529
97.0698
93.4984
89.7675
85.8956
82.1325
78.6201
75.4815
73.4177
72.4326
71.9787
73.0895
77.0919
84.5952
96.2749
110.309
125.405
141.037
156.934
172.395
186.144
196.966
204.609
210.086
214.209
216.771
217.894
218.847
221.809
224.798
226.534
226.941
226.235
224.956
222.45
218.477
212.767
204.968
194.552
180.743
162.676
140.983
121.544
109.13
99.6177
89.7748
78.5572
66.4171
53.3477
39.4475
25.0887
10.8054
-2.83274
-15.1633
-25.7668
-34.7683
-42.0289
-46.8798
-49.5351
-50.1995
-48.899
-45.9859
-42.0275
-37.5818
-33.0498
-28.6581
-24.5131
-20.6577
-17.1209
-13.9417
-11.0611
-8.32984
-6.16261
-5.0148
-2.79224
80.2398
87.1464
92.0398
97.0415
101.097
104.199
106.687
109.225
111.961
114.65
117.042
118.879
120.107
120.83
121.016
121.083
120.812
119.989
118.601
116.733
114.519
112.075
109.405
106.451
103.231
99.8314
96.325
92.7228
88.9834
85.1363
81.4367
78.0432
75.134
73.3016
72.4653
72.1205
73.8484
77.9825
85.8426
97.516
111.515
126.656
142.373
158.279
173.565
186.866
197.12
204.472
209.853
214.016
216.637
217.838
219.072
222.371
225.27
226.965
227.367
226.607
225.236
222.668
218.642
212.9
205.12
194.831
181.349
163.892
142.923
123.502
110.373
100.251
90.1771
78.835
66.5655
53.4478
39.6182
25.4397
11.4122
-1.89063
-13.841
-24.1494
-32.9804
-40.0107
-44.6769
-47.3275
-48.0794
-46.9999
-44.4246
-40.8492
-36.7644
-32.538
-28.3958
-24.4511
-20.7488
-17.3214
-14.2156
-11.3691
-8.63444
-6.50708
-5.46309
-3.07401
80.1744
87.0706
91.9134
96.947
101.005
104.082
106.57
109.106
111.815
114.463
116.81
118.625
119.853
120.601
120.801
120.848
120.558
119.706
118.279
116.366
114.105
111.613
108.888
105.874
102.591
99.1321
95.5753
91.9406
88.1944
84.3759
80.7387
77.4623
74.7744
73.1636
72.4907
72.2528
74.5719
78.9245
87.0808
98.7684
112.739
127.903
143.661
159.53
174.612
187.472
197.202
204.296
209.645
213.873
216.57
217.884
219.41
222.932
225.798
227.479
227.86
227.033
225.579
222.949
218.869
213.092
205.324
195.153
181.987
165.15
144.989
125.727
111.869
101.058
90.6452
79.1718
66.7871
53.6329
39.8697
25.845
12.0407
-0.948421
-12.5371
-22.5715
-31.2227
-37.9809
-42.4964
-45.1631
-46.0212
-45.1619
-42.8984
-39.6729
-35.9288
-32.0085
-28.1251
-24.3849
-20.8325
-17.508
-14.4676
-11.6505
-8.91464
-6.80869
-5.83633
-3.31236
80.1007
86.9841
91.7764
96.8438
100.905
103.956
106.449
108.985
111.669
114.278
116.585
118.38
119.607
120.381
120.598
120.624
120.313
119.433
117.968
116.009
113.701
111.161
108.381
105.304
101.956
98.4343
94.8243
91.1549
87.4029
83.6164
80.0418
76.8816
74.4036
73.0065
72.4926
72.4529
75.2074
79.8825
88.2932
100.007
113.949
129.113
144.877
160.676
175.537
187.976
197.245
204.126
209.479
213.789
216.575
218.035
219.867
223.544
226.392
228.091
228.421
227.503
225.988
223.298
219.165
213.347
205.582
195.513
182.638
166.4
147.084
128.14
113.622
102.072
91.2089
79.5701
67.0835
53.911
40.2207
26.3353
12.7277
0.0190038
-11.2586
-21.0727
-29.5396
-36.006
-40.4049
-43.0905
-44.052
-43.395
-41.4162
-38.5207
-35.1123
-31.5001
-27.8732
-24.3282
-20.9149
-17.6841
-14.7
-11.9069
-9.1703
-7.06309
-6.12278
-3.50478
80.0275
86.8809
91.63
96.7404
100.791
103.823
106.325
108.861
111.521
114.096
116.367
118.143
119.37
120.17
120.406
120.409
120.079
119.17
117.666
115.662
113.309
110.719
107.883
104.742
101.327
97.7408
94.0752
90.3693
86.6117
82.8594
79.3485
76.3045
74.0254
72.8343
72.4422
72.7559
75.779
80.8297
89.4621
101.204
115.113
130.262
146.009
161.717
176.339
188.381
197.277
203.995
209.369
213.768
216.658
218.289
220.436
224.223
227.066
228.802
229.048
228.023
226.466
223.722
219.533
213.669
205.893
195.902
183.283
167.595
149.114
130.62
115.593
103.303
91.9028
80.0405
67.458
54.2856
40.6808
26.9359
13.5223
1.07652
-9.94366
-19.6017
-27.8798
-34.0732
-38.3954
-41.0964
-42.156
-41.6925
-39.9916
-37.4254
-34.3528
-31.0414
-27.6556
-24.2886
-21.0008
-17.8538
-14.9169
-12.1413
-9.40365
-7.26869
-6.30157
-3.64782
79.9737
86.7636
91.4754
96.6403
100.664
103.685
106.197
108.735
111.374
113.916
116.154
117.915
119.141
119.968
120.224
120.205
119.855
118.917
117.375
115.327
112.928
110.29
107.397
104.191
100.707
97.0544
93.3316
89.5871
85.8231
82.1056
78.6602
75.7331
73.6412
72.6472
72.3197
73.1449
76.3113
81.744
90.5688
102.337
116.209
131.333
147.051
162.654
177.018
188.689
197.304
203.904
209.318
213.814
216.819
218.638
221.103
224.968
227.829
229.586
229.731
228.616
227.018
224.224
219.976
214.058
206.255
196.316
183.907
168.706
151
133.036
117.685
104.722
92.7475
80.6011
67.9147
54.7514
41.2406
27.649
14.4523
2.27802
-8.51663
-18.059
-26.1377
-32.1161
-36.4036
-39.1374
-40.3146
-40.0639
-38.6567
-36.4257
-33.6801
-30.649
-27.4805
-24.2723
-21.0966
-18.0234
-15.1234
-12.3558
-9.61566
-7.42277
-6.33724
-3.73332
79.9111
86.6333
91.3157
96.5383
100.526
103.546
106.067
108.607
111.226
113.739
115.947
117.694
118.919
119.774
120.052
120.01
119.64
118.675
117.095
115.003
112.56
109.874
106.922
103.65
100.097
96.3773
92.5962
88.8115
85.0393
81.3556
77.9777
75.1677
73.2518
72.4423
72.1385
73.5651
76.8232
82.6059
91.5948
103.383
117.221
132.317
148
163.486
177.579
188.91
197.324
203.841
209.329
213.931
217.058
219.073
221.854
225.775
228.691
230.434
230.463
229.296
227.649
224.807
220.498
214.516
206.669
196.752
184.507
169.716
152.697
135.278
119.773
106.256
93.7312
81.2642
68.4552
55.2944
41.8731
28.4443
15.4924
3.60529
-6.98049
-16.4189
-24.2848
-30.1177
-34.4154
-37.2246
-38.5608
-38.556
-37.4573
-35.5542
-33.1116
-30.3309
-27.3541
-24.2862
-21.2089
-18.198
-15.3234
-12.5552
-9.81227
-7.52863
-6.20897
-3.76413
79.8333
86.4923
91.1562
96.4291
100.381
103.404
105.934
108.477
111.078
113.564
115.746
117.481
118.704
119.587
119.888
119.824
119.434
118.442
116.825
114.692
112.205
109.47
106.46
103.121
99.4989
95.7115
91.8714
88.0449
84.2622
80.6099
77.3006
74.6077
72.859
72.2085
71.9589
73.9246
77.3166
83.3967
92.5241
104.331
118.138
133.211
148.854
164.216
178.035
189.068
197.336
203.809
209.402
214.122
217.376
219.588
222.673
226.639
229.656
231.351
231.237
230.06
228.364
225.476
221.103
215.049
207.142
197.218
185.089
170.632
154.195
137.284
121.747
107.813
94.8096
82.0224
69.0732
55.895
42.5449
29.2758
16.5799
4.97769
-5.42285
-14.7614
-22.4115
-28.1626
-32.5128
-35.44
-36.9697
-37.227
-36.4298
-34.8285
-32.6545
-30.0922
-27.283
-24.3379
-21.3457
-18.3865
-15.5288
-12.7535
-9.99963
-7.59185
-5.96179
-3.75443
79.7399
86.3429
91.0029
96.3103
100.23
103.261
105.798
108.345
110.93
113.391
115.55
117.275
118.496
119.408
119.732
119.646
119.238
118.22
116.568
114.394
111.864
109.081
106.011
102.605
98.9132
95.0583
91.1589
87.2893
83.4932
79.869
76.6276
74.0509
72.4664
71.9303
71.8464
74.1722
77.7703
84.0999
93.3453
105.171
118.958
134.009
149.61
164.846
178.402
189.188
197.341
203.813
209.54
214.388
217.774
220.176
223.545
227.555
230.715
232.336
232.061
230.908
229.168
226.236
221.798
215.666
207.686
197.73
185.674
171.476
155.513
139.043
123.547
109.318
95.9275
82.8503
69.7531
56.5336
43.229
30.1056
17.657
6.31274
-3.94619
-13.1893
-20.6403
-26.3703
-30.8004
-33.8686
-35.6012
-36.1114
-35.5892
-34.254
-32.3132
-29.9409
-27.2782
-24.44
-21.5192
-18.5986
-15.7465
-12.9541
-10.1709
-7.6337
-5.74795
-3.73796
79.6378
86.1838
90.8563
96.1822
100.078
103.116
105.661
108.211
110.783
113.22
115.359
117.075
118.295
119.236
119.584
119.477
119.051
118.008
116.322
114.11
111.539
108.706
105.576
102.103
98.3409
94.4187
90.4599
86.546
82.7337
79.1332
75.9569
73.4947
72.0738
71.5883
71.8162
74.3203
78.1631
84.7027
94.0521
105.901
119.678
134.711
150.266
165.377
178.693
189.284
197.348
203.859
209.743
214.733
218.256
220.835
224.455
228.518
231.857
233.388
232.953
231.84
230.067
227.094
222.592
216.379
208.317
198.311
186.291
172.288
156.697
140.589
125.162
110.731
97.042
83.7174
70.4736
57.1915
43.907
30.9113
18.6901
7.55837
-2.61812
-11.7596
-19.055
-24.8142
-29.337
-32.5511
-34.478
-35.2187
-34.9397
-33.8361
-32.0973
-29.8888