/*--------------------------------*- C++ -*----------------------------------*\
| =========                 |                                                 |
| \\      /  F ield         | OpenFOAM: The Open Source CFD Toolbox           |
|  \\    /   O peration     | Version:  4.1                                   |
|   \\  /    A nd           | Web:      www.OpenFOAM.org                      |
|    \\/     M anipulation  |                                                 |
\*---------------------------------------------------------------------------*/
FoamFile
{
    version     2.0;
    format      ascii;
    class       surfaceScalarField;
    location    "900";
    object      phi;
}
// * * * * * * * * * * * * * * * * * * * * * * * * * * * * * * * * * * * * * //

dimensions      [0 3 -1 0 0 0 0];

internalField   nonuniform List<scalar> 
52920
(
1245.87
97.0382
1156.68
89.188
1070.47
86.2042
988.432
82.0339
913.101
75.3228
845.605
67.4907
785.185
60.4128
728.979
56.1996
674.778
54.193
621.675
53.0944
572.934
48.7297
528.654
44.2686
451.606
77.0354
306.011
145.583
158.805
147.19
92.3936
66.379
161.111
-68.7385
302.708
-141.612
484.189
-181.492
694.705
-210.525
928.788
-234.09
1183.26
-254.474
1455.83
-272.583
1743.96
-288.132
2045.31
-301.353
2359.7
-314.398
2690.16
-330.457
3042.19
-352.031
3420.98
-378.798
3825.76
-404.779
4246.39
-420.638
4665.07
-418.677
5060.93
-395.862
5416.68
-355.751
5719.78
-303.106
5957.51
-237.728
6118.82
-161.309
6200.95
-82.1398
6215.33
-14.3826
6198.5
16.8288
6194.03
4.47072
6216.08
-22.0489
6232.23
-16.1519
6177.62
54.6086
6005.47
172.146
5728.57
276.899
5399.97
328.594
5070.69
329.286
4771.33
299.35
4514.62
256.713
4302.56
212.052
4132.44
170.122
3999.85
132.587
3901.59
98.2577
3840.4
61.1935
3826.49
13.9079
3869.84
-43.3511
3972.72
-102.883
4130.78
-158.063
4340.38
-209.6
4603.2
-262.826
4924.63
-321.432
5307.99
-383.353
5749.53
-441.543
6237.16
-487.632
6752.44
-515.277
7274.63
-522.198
7785.76
-511.128
8275.74
-489.982
8744.82
-469.08
9202.19
-457.369
9662.59
-460.398
10140.9
-478.282
10643.8
-502.91
11163.3
-519.556
11678.2
-514.908
12162.2
-483.906
12591.5
-429.393
12949.4
-357.887
13225.5
-276.106
13413.7
-188.213
13507.8
-94.0523
13497.6
10.2049
13369.6
127.947
13118.6
251.077
12761.2
357.364
12335.6
425.584
11885.1
450.571
11444
441.1
11034.1
409.875
10666.5
367.627
10344.7
321.748
10067.9
276.766
9832.78
235.151
9634.43
198.355
9467.44
166.989
9323.96
143.478
9197.07
126.896
9071.38
125.682
131.805
1239.73
189.123
1155.32
173.6
1073.9
167.613
996.494
159.439
925.465
146.344
861.581
131.37
803.521
118.466
748.035
111.679
693.099
109.121
638.534
107.65
587.834
99.4197
537.56
94.531
445.906
168.678
286.78
304.698
134.614
299.341
77.0236
123.933
163.229
-154.962
325.924
-304.318
526.933
-382.51
753.588
-437.188
1000.62
-481.126
1265.22
-519.082
1545.3
-552.67
1838.4
-581.234
2142.31
-605.266
2456.94
-629.039
2785.3
-658.818
3132.73
-699.459
3504.11
-750.184
3898.41
-799.081
4305.54
-827.767
4708.14
-821.284
5086.3
-774.023
5424
-693.452
5710.31
-589.415
5934.28
-461.699
6086.31
-313.35
6163.23
-159.061
6171.99
-23.1407
6143.31
45.5048
6120.78
27.0031
6128.18
-29.4573
6143.89
-31.8558
6100.18
98.3144
5936.57
335.752
5658.14
555.326
5320.61
666.12
4981.12
668.781
4674.33
606.137
4414.17
516.872
4202.18
424.04
4034.42
337.875
3905.19
261.818
3810.01
193.431
3750.39
120.816
3735.1
29.1985
3770.24
-78.4966
3853.87
-186.512
3986.95
-291.147
4184.82
-407.468
4466.75
-544.761
4837.63
-692.311
5283.78
-829.506
5782.17
-939.932
6309.3
-1014.76
6844.31
-1050.29
7369.39
-1047.29
7871.1
-1012.83
8343.46
-962.346
8789.66
-915.279
9220.61
-888.322
9652.21
-891.99
10100.7
-926.825
10575.1
-977.29
11069.8
-1014.19
11565.4
-1010.57
12037.1
-955.573
12461.6
-853.926
12821.6
-717.81
13106
-560.566
13308.3
-390.545
13418.9
-204.605
13421.2
7.90353
13296.9
252.244
13039.4
508.582
12668.4
728.366
12227.6
866.33
11765.2
912.976
11317.8
888.5
10907.2
820.473
10543.5
731.407
10228.9
636.341
9961.46
544.182
9737.04
459.565
9550.31
385.089
9395.77
321.532
9265.48
273.759
9153.03
239.35
9042.45
236.267
251.793
1228.18
277.408
1147.93
253.852
1072.01
243.529
1001.34
230.103
938.024
209.656
882.45
186.939
832.642
168.267
784.299
160.018
734.043
159.37
680.107
161.579
622.751
156.766
550.536
166.737
423
296.205
241.483
486.207
87.4254
453.387
49.4559
161.864
154.17
-259.689
322.224
-472.381
523.813
-584.106
748.142
-661.523
989.716
-722.705
1245.83
-775.203
1514.59
-821.432
1793.71
-860.359
2081.15
-892.712
2377.02
-924.906
2684.62
-966.427
3009.93
-1024.77
3358.7
-1098.95
3730.63
-1171.01
4115.92
-1213.06
4497.23
-1202.59
4854.67
-1131.47
5172.8
-1011.58
5441.79
-858.412
5651.58
-671.494
5792.84
-454.608
5861.08
-227.303
5858.47
-20.5295
5808.81
95.1566
5751.21
84.6038
5719.97
1.78772
5722.5
-34.3897
5708.96
111.846
5601.21
443.505
5375.79
780.739
5076
965.907
4760.79
983.993
4470.29
896.632
4222.5
764.668
4020.98
625.556
3862.18
496.673
3739.8
384.195
3649.58
283.652
3593.24
177.154
3574.38
48.0561
3590.9
-95.025
3649.61
-245.22
3781.79
-423.33
4019.97
-645.654
4361.36
-886.151
4772.7
-1103.65
5220.41
-1277.21
5685.16
-1404.68
6157.48
-1487.08
6629.29
-1522.09
7090.14
-1508.14
7529.19
-1451.88
7940.6
-1373.76
8326.85
-1301.53
8698.09
-1259.56
9070.34
-1264.24
9462
-1318.49
9885.68
-1400.97
10339.6
-1468.12
10807.6
-1478.56
11267.3
-1415.24
11697.7
-1284.39
12082.8
-1102.85
12411.6
-889.438
12677.4
-656.264
12868.1
-395.365
12957.4
-81.3298
12910.2
299.442
12706.3
712.409
12363.4
1071.31
11933.3
1296.37
11474.2
1372.12
11028.8
1333.91
10621.3
1227.98
10261.9
1090.82
9952.28
945.934
9689.68
806.777
9469.24
680.007
9285.28
569.049
9132.58
474.237
9004.63
401.702
8896.62
347.365
8798
334.888
357.827
1216.75
360.863
1141.69
328.911
1072.28
312.936
1009.57
292.809
955.424
263.798
909.737
232.622
869.633
208.364
829.571
200.074
784.63
204.304
730.19
216.012
659.354
227.594
550.076
276.006
375.198
471.074
175.556
685.84
31.2556
597.676
15.9692
177.107
126.535
-370.267
286.978
-632.832
479.282
-776.417
692.081
-874.328
919.584
-950.214
1159.42
-1015.04
1410.04
-1072.05
1669.37
-1119.7
1935.52
-1158.87
2208.84
-1198.23
2493.24
-1250.82
2795.68
-1327.21
3123.05
-1426.33
3475.52
-1523.48
3842.87
-1580.41
4206.91
-1566.64
4547.26
-1471.82
4848.93
-1313.26
5103.4
-1112.88
5301.41
-869.5
5433.77
-586.973
5494.7
-288.238
5482.42
-8.24881
5416.89
160.684
5332.3
169.197
5264
70.0778
5235.29
-5.68169
5220.31
126.825
5146.04
517.774
4970.78
956.003
4719.74
1216.94
4444.75
1258.98
4185.74
1155.64
3962.62
987.784
3780.76
807.418
3637.05
640.374
3525.54
495.709
3443.96
365.229
3392.38
228.73
3365.1
75.3346
3362.44
-92.3739
3422.42
-305.194
3596.14
-597.052
3883.36
-932.882
4235.55
-1238.34
4610.57
-1478.67
4995.36
-1662.01
5392.68
-1802
5804.29
-1898.69
6223.75
-1941.55
6637.44
-1921.84
7030.14
-1844.59
7392.87
-1736.49
7726.66
-1635.32
8041.42
-1574.32
8354.4
-1577.22
8686.94
-1651.02
9054.87
-1768.9
9457.82
-1871.07
9879.48
-1900.22
10298.5
-1834.25
10697.5
-1683.44
11065.9
-1471.17
11399
-1222.58
11698
-955.276
11961.2
-658.522
12162.2
-282.392
12243.6
218.055
12149.6
806.377
11879.2
1341.74
11489
1686.55
11050.3
1810.83
10616.1
1768.18
10215.4
1628.62
9860.43
1445.81
9553.12
1253.24
9290.53
1069.37
9067.61
902.919
8878.69
757.976
8718.79
634.134
8583.09
537.406
8468.05
462.398
8370.68
432.264
455.517
1207.95
438.508
1139.26
397.603
1077.44
374.757
1023.53
346.716
978.975
308.344
942.961
268.631
911.546
239.773
878.088
233.527
836.394
245.992
777.76
274.64
684.3
321.046
525.557
434.743
304.104
692.52
98.0433
891.895
-24.0113
719.722
-19.5378
172.598
84.626
-474.438
232.835
-781.047
411.786
-955.374
609.117
-1071.66
819.373
-1160.47
1040.73
-1236.41
1272.01
-1303.33
1511.23
-1358.92
1756.43
-1404.07
2008.11
-1449.92
2270.76
-1513.47
2552.32
-1608.78
2860.52
-1734.53
3195.53
-1858.49
3546.31
-1931.2
3893.86
-1914.19
4217.5
-1795.46
4503.09
-1598.85
4743.7
-1353.5
4930.93
-1056.73
5055.69
-711.735
5110.86
-343.412
5090.75
11.8641
5013.43
237.999
4910.51
272.11
4814.83
165.76
4754.85
54.2954
4722
159.669
4656.76
583.015
4513.31
1099.45
4304.03
1426.22
4070.71
1492.3
3848.47
1377.89
3656.14
1180.11
3499.28
964.277
3374.62
765.025
3277.44
592.888
3207.34
435.325
3158.91
277.159
3121.06
113.184
3115.53
-86.8473
3210.34
-400
3433.79
-820.502
3733.89
-1232.99
4052.79
-1557.24
4374.46
-1800.33
4708.3
-1995.85
5064.12
-2157.83
5441.77
-2276.33
5830.81
-2330.6
6214.29
-2305.31
6574.35
-2204.65
6900.61
-2062.75
7193.61
-1928.32
7463.08
-1843.79
7727.06
-1841.21
8009.62
-1933.58
8329.64
-2088.92
8686.76
-2228.19
9061.43
-2274.89
9429.22
-2202.04
9772.85
-2027.07
10085
-1783.28
10367.3
-1504.9
10631.1
-1219.12
10894.2
-921.604
11155.5
-543.737
11357.8
15.8186
11401
763.161
11239.4
1503.37
10919.1
2006.84
10521.9
2208.06
10112.4
2177.64
9727.05
2013.96
9381.19
1791.66
9078.36
1556.08
8816.3
1331.43
8590.46
1128.76
8395.57
952.857
8227.02
802.686
8081.05
683.382
7954.58
588.869
7849.23
537.615
553.077
1204.49
507.144
1144.54
457.542
1091.7
427.597
1046.96
391.452
1011.4
343.896
983.467
296.561
958.179
265.056
928.065
263.636
885.633
288.418
816.086
344.181
688.478
448.648
472.908
650.306
215.792
949.629
19.1701
1088.51
-74.0395
812.922
-55.0685
153.59
34.662
-564.178
168.856
-915.248
332.753
-1119.28
513.671
-1252.59
706.801
-1353.61
910.887
-1440.5
1125
-1517.45
1347.02
-1580.94
1574.56
-1631.62
1807.9
-1683.26
2051.64
-1757.21
2314.11
-1871.25
2603.47
-2023.89
2919.84
-2174.86
3251.9
-2263.27
3580.53
-2242.82
3885.3
-2100.24
4153.3
-1866.85
4379.43
-1579.62
4556.06
-1233.36
4673.95
-829.625
4724.53
-394.003
4697.85
38.5441
4611.13
324.714
4495.62
387.624
4380.77
280.61
4294.76
140.3
4239.03
215.393
4167.79
654.257
4039.88
1227.35
3861.69
1604.41
3665.76
1688.23
3480.19
1563.45
3320.54
1339.76
3190.96
1093.86
3087.55
868.424
3007.36
673.084
2949.57
493.11
2900.8
325.924
2856.53
157.453
2874.5
-104.822
3025.87
-551.371
3283.46
-1078.09
3567.04
-1516.56
3842.46
-1832.67
4118.91
-2076.78
4412.79
-2289.73
4731.78
-2476.81
5073.91
-2618.47
5429.49
-2686.17
5782.27
-2658.09
6113.2
-2535.59
6410.11
-2359.65
6671.85
-2190.06
6906.12
-2078.06
7130.41
-2065.5
7372.35
-2175.52
7656.63
-2373.2
7984.49
-2556.05
8331.4
-2621.8
8666.09
-2536.73
8966.98
-2327.96
9225.68
-2041.98
9445.63
-1724.84
9642.84
-1416.34
9848.81
-1127.57
10095.1
-790.051
10357.6
-246.623
10519.5
601.241
10476.5
1546.35
10244.1
2239.21
9905.56
2546.63
9534.93
2548.27
9175.58
2373.31
8846.85
2120.4
8554.39
1848.54
8297.3
1588.51
8072.03
1354.04
7874.17
1150.71
7699.66
977.195
7545.45
837.592
7408.67
725.655
7291.92
654.359
655.888
1207.71
568.641
1155.79
509.458
1111.58
471.804
1075.2
427.828
1046.95
372.147
1024.5
319.002
1002.3
287.252
972.676
293.26
925.982
335.107
838.058
432.101
665.831
620.869
394.418
921.714
119.819
1224.22
-53.9946
1262.32
-123.963
882.884
-97.8831
127.486
-19.05
-643.017
101.557
-1035.86
250.079
-1267.8
415.296
-1417.81
592.903
-1531.22
782.099
-1629.7
982.12
-1717.47
1190.47
-1789.29
1404.03
-1845.19
1622.32
-1901.55
1849.31
-1984.21
2093.02
-2114.96
2361.8
-2292.67
2656.35
-2469.42
2966.06
-2572.97
3272.43
-2549.19
3555.67
-2383.48
3804.27
-2115.46
4015.13
-1790.48
4181.33
-1399.56
4293.15
-941.449
4340.31
-441.163
4308.13
70.7247
4213.64
419.199
4088.94
512.324
3961.11
408.436
3855.27
246.136
3776.39
294.266
3690.66
739.993
3566.85
1351.15
3410.67
1760.59
3246.97
1851.94
3096.01
1714.41
2968.79
1466.97
2866.99
1195.65
2786.14
949.277
2724.78
734.436
2677.7
540.185
2625.01
378.612
2587.91
194.549
2659.43
-176.342
2870.41
-762.352
3133.71
-1341.39
3379.3
-1762.16
3605.51
-2058.88
3832.65
-2303.92
4075.19
-2532.27
4341.12
-2742.74
4634.73
-2912.09
4952.55
-3003.99
5278.7
-2984.25
5588.86
-2845.75
5865.59
-2636.38
6104.52
-2428.99
6310.89
-2284.43
6502.66
-2257.27
6714.21
-2387.07
6978.93
-2637.92
7298.49
-2875.61
7639.69
-2963
7962.08
-2859.13
8239.27
-2605.14
8461.19
-2263.9
8630.87
-1894.53
8764.27
-1549.73
8896.54
-1259.84
9080.08
-973.59
9335.76
-502.305
9570.07
366.933
9630.07
1486.35
9487.31
2381.97
9215.71
2818.24
8893.71
2870.27
8569.62
2697.4
8265.98
2424.04
7990.55
2123.97
7743.97
1835.09
7523.97
1574.05
7327.27
1347.4
7150.65
1153.82
6991.69
996.546
6847.96
869.388
6721.08
781.242
765.47
1214.1
623.201
1169.11
554.445
1131.79
509.121
1101.62
457.996
1078.16
395.591
1058.55
338.608
1037.1
308.701
1006.11
324.24
951.768
389.448
837.598
546.266
614.127
844.334
297.18
1238.66
26.0365
1495.36
-118.45
1406.8
-174.024
938.45
-146.974
100.412
-73.7859
-716.213
35.0453
-1144.7
168.699
-1401.46
319.32
-1568.44
482.968
-1694.87
659.139
-1805.87
847.209
-1905.55
1044.29
-1986.37
1246.37
-2047.27
1451.79
-2106.97
1663.21
-2195.63
1887.72
-2339.47
2133.91
-2538.87
2403.69
-2739.2
2687.92
-2857.2
2969.3
-2830.58
3228.74
-2642.92
3456.19
-2342.91
3650.84
-1985.14
3806.62
-1555.35
3913.16
-1047.99
3958.23
-486.229
3921.81
107.14
3821.14
519.868
3689.89
643.565
3553.59
544.736
3433.08
366.648
3332.41
394.934
3227.64
844.752
3100.77
1478.02
2960.36
1901
2824.7
1987.59
2706.01
1833.1
2610.15
1562.83
2535.89
1269.92
2478.71
1006.45
2436.86
776.29
2396.33
580.71
2341.34
433.595
2338.26
197.626
2483.31
-321.387
2730.75
-1009.8
2966.1
-1576.74
3157.17
-1953.22
3322.6
-2224.31
3481.26
-2462.59
3649.68
-2700.7
3850.13
-2943.19
4101.63
-3163.59
4402.74
-3305.1
4726.91
-3308.41
5035.77
-3154.61
5304.45
-2905.06
5527.74
-2652.28
5711.88
-2468.57
5878.93
-2424.32
6072.32
-2580.46
6332.14
-2897.73
6655.68
-3199.15
6999.01
-3306.34
7314.85
-3174.97
7575.28
-2865.57
7770.01
-2458.63
7901.16
-2025.68
7982.54
-1631.11
8046.31
-1323.61
8151.24
-1078.53
8353.79
-704.849
8607.6
113.122
8738.53
1355.42
8673.23
2447.26
8467.58
3023.9
8198.27
3139.57
7915.26
2980.41
7642.74
2696.56
7389.92
2376.79
7158.84
2066.17
6948.55
1784.34
6757.03
1538.92
6582.06
1328.79
6421.97
1156.64
6275
1016.36
6141.35
914.896
880.794
1222.07
671.629
1182.73
593.791
1150.32
541.52
1124.04
484.278
1103.04
416.585
1084.2
357.45
1061.94
330.956
1027.72
358.451
960.442
456.726
811.236
695.468
535.069
1120.5
191.475
1582.25
-58.6296
1745.46
-176.077
1524.24
-222.949
985.317
-196.824
74.2742
-127.977
-785.064
-28.8723
-1243.81
91.4095
-1521.75
228.181
-1705.21
378.703
-1845.4
542.644
-1969.82
719.598
-2082.5
906.438
-2173.22
1098.31
-2239.14
1292.12
-2300.79
1488.79
-2392.3
1694.08
-2544.76
1916.63
-2761.42
2159.79
-2982.37
2416.55
-3113.96
2671.16
-3085.19
2905.1
-2876.86
3109.7
-2547.51
3286.76
-2162.2
3431.31
-1699.9
3532.53
-1149.21
3576.45
-530.152
3537.26
146.325
3432.33
624.79
3297.02
778.876
3155.86
685.895
3024.68
497.821
2903.6
516.017
2777.47
970.88
2643.71
1611.77
2515.59
2029.12
2405.29
2097.89
2316.94
1921.45
2251.17
1628.6
2204.31
1316.78
2172.07
1038.68
2148.11
800.254
2109.2
619.617
2065.36
477.431
2128.94
134.038
2341.8
-534.245
2584.06
-1252.06
2763.6
-1756.28
2883.68
-2073.3
2964.98
-2305.61
3029.65
-2527.25
3118.96
-2790.01
3281.84
-3106.08
3539.09
-3420.84
3868.53
-3634.54
4219.96
-3659.85
4540.63
-3475.27
4804.52
-3168.95
5012.4
-2860.16
5175.79
-2631.96
5321.55
-2570.09
5498.27
-2757.17
5747.35
-3146.81
6062.33
-3514.14
6395.27
-3639.27
6698.23
-3477.93
6943.78
-3111.12
7119.86
-2634.71
7225.26
-2131.08
7269.76
-1675.61
7279.94
-1333.79
7312.39
-1110.98
7441.62
-834.085
7670.56
-115.815
7834.06
1191.92
7825.03
2456.29
7677.09
3171.84
7459.45
3357.21
7219.86
3220.01
6982.07
2934.35
6755.79
2603.06
6544.08
2277.88
6347.19
1981.23
6164.35
1721.76
5994.44
1498.69
5836.55
1314.53
5689.73
1163.18
5553.03
1051.6
999.822
1230.65
714.915
1195.73
628.71
1166.69
570.562
1142.56
508.399
1122.34
436.803
1102.93
376.856
1078.82
355.051
1038.52
398.753
950.345
544.894
757.556
888.253
433.137
1444.91
86.5809
1928.8
-130.472
1962.51
-228.92
1622.69
-270.17
1026.56
-245.121
49.2076
-180.724
-849.467
-89.4449
-1335.09
19.4919
-1630.69
142.952
-1828.68
280.5
-1982.95
432.224
-2121.55
598.027
-2248.31
774.769
-2349.96
956.851
-2421.23
1139.68
-2483.63
1322.34
-2574.96
1509.02
-2731.44
1707.88
-2960.28
1923.6
-3198.1
2151.9
-3342.27
2379.07
-3312.36
2586.8
-3084.6
2767.37
-2728.08
2925.2
-2320.03
3056.63
-1831.32
3150.83
-1243.42
3193.17
-572.499
3152.25
187.243
3045.37
731.672
2908.69
915.552
2765.86
828.721
2626.88
636.792
2486.12
656.779
2337.64
1119.36
2195.93
1753.48
2079.07
2145.97
1992.84
2184.12
1933.42
1980.87
1896.57
1665.44
1877.62
1335.72
1871.73
1044.57
1860.67
811.305
1818.25
662.035
1808.97
486.712
1960.54
-17.5356
2212.13
-785.842
2408.19
-1448.13
2509.1
-1857.2
2532.01
-2096.21
2501.85
-2275.45
2476.93
-2502.33
2540.53
-2853.6
2739.34
-3304.89
3055.22
-3736.72
3433.2
-4012.52
3810.8
-4037.44
4134.23
-3798.71
4384.68
-3419.41
4572.83
-3048.31
4714.55
-2773.67
4834.83
-2690.37
4977.78
-2900.13
5185.89
-3354.92
5461.66
-3789.91
5765.19
-3942.8
6050.89
-3763.64
6289.1
-3349.33
6461.52
-2807.13
6559.61
-2229.17
6586.98
-1702.99
6563.74
-1310.55
6541.39
-1088.63
6600.18
-892.869
6778.45
-294.086
6939.64
1030.73
6962
2433.94
6859.23
3274.61
6688.77
3527.67
6492.26
3416.52
6290.77
3135.83
6093.44
2800.4
5903.82
2467.5
5723.2
2161.85
5551.94
1893.02
5390.02
1660.62
5237.26
1467.29
5093.49
1306.94
4956.99
1188.1
1120.48
1239.73
753.42
1208.06
660.378
1180.85
597.776
1157.24
532.006
1136.25
457.786
1115.21
397.893
1088.19
382.071
1037.35
449.583
918.671
663.574
676.541
1130.38
314.703
1806.75
-12.68
2256.18
-191.083
2140.91
-278.041
1709.64
-314.519
1063.03
-290.063
24.7435
-230.449
-909.084
-146.266
-1419.28
-46.8552
-1730.1
64.3633
-1939.9
188.749
-2107.34
327.892
-2260.69
482.103
-2402.53
648.386
-2516.25
820.505
-2593.35
992.445
-2655.57
1161.72
-2744.23
1330.86
-2900.58
1506.81
-3136.24
1695.31
-3386.6
1895.4
-3542.36
2095.76
-3512.72
2277.78
-3266.62
2433.96
-2884.26
2571.07
-2457.15
2686.59
-1946.84
2770.3
-1327.13
2808.49
-610.695
2765.53
230.205
2658.88
838.314
2523.64
1050.79
2381.9
970.46
2236.68
782.003
2076.11
817.349
1905.52
1289.94
1757.23
1901.77
1652.55
2250.65
1590.15
2246.52
1558.65
2012.36
1550.06
1674.03
1560.77
1325.01
1580.56
1024.78
1575.61
816.244
1543.08
694.563
1610.67
419.122
1838.18
-245.047
2070.19
-1017.86
2183.64
-1561.58
2176.47
-1850.03
2072.02
-1991.76
1941.47
-2144.9
1904.67
-2465.54
2035.92
-2984.85
2314.93
-3583.9
2681.45
-4103.25
3081.4
-4412.47
3462.59
-4418.63
3774.17
-4110.29
4002.98
-3648.21
4168.67
-3214
4287.28
-2892.28
4371.43
-2774.52
4453.49
-2982.19
4587.29
-3488.72
4800.87
-4003.5
5066.46
-4208.39
5337.06
-4034.24
5577.85
-3590.12
5762.11
-2991.39
5871.45
-2338.51
5901.24
-1732.78
5864.37
-1273.68
5806.93
-1031.19
5810.96
-896.901
5932.44
-415.564
6067.11
896.061
6097.79
2403.25
6026.55
3345.86
5897.17
3657.04
5741.82
3571.87
5576.79
3300.86
5409.57
2967.63
5243.79
2633.28
5081.5
2324.14
4924.09
2050.43
4772.52
1812.19
4627.33
1612.48
4489
1445.27
4355.28
1321.82
1241.05
1245.37
788.252
1216.34
689.401
1190.21
623.906
1166.14
556.072
1143.41
480.512
1120.11
421.181
1088.56
413.621
1020.75
517.389
862.057
822.26
569.791
1422.64
189.558
2186.98
-101.402
2547.13
-243.77
2283.27
-323.153
1789.02
-354.156
1094.03
-329.506
0.0791146
-275.249
-963.347
-198.458
-1496.08
-107.502
-1821.07
-7.15741
-2040.25
104.138
-2218.64
230.137
-2386.7
372.103
-2544.5
527.241
-2671.39
688.837
-2754.95
849.697
-2816.43
1006.14
-2900.68
1159.12
-3053.57
1313.79
-3290.91
1476.57
-3549.38
1650.05
-3715.83
1825.37
-3688.05
1983.02
-3424.27
2114.98
-3016.22
2229.98
-2572.15
2326.47
-2043.34
2395.25
-1395.91
2424.65
-640.102
2377.27
277.576
2272.38
943.207
2141.17
1181.99
2002.67
1108.96
1851.3
933.368
1670.03
998.616
1479.03
1480.94
1327.71
2053.08
1237.53
2340.83
1199.39
2284.66
1195.18
2016.56
1215.21
1654
1257.41
1282.8
1298.6
983.589
1299.06
815.781
1309.03
684.595
1473.38
254.762
1729.38
-501.043
1886.82
-1175.3
1883.93
-1558.7
1734.7
-1700.8
1514.8
-1771.87
1382.48
-2012.58
1444.03
-2527.1
1669.47
-3210.29
1986.29
-3900.72
2355.2
-4472.15
2750.67
-4807.95
3125.34
-4793.3
3418.84
-4403.79
3618.66
-3848.03
3754.67
-3350.02
3841.43
-2979.04
3874.2
-2807.29
3878.96
-2986.95
3934.5
-3544.26
4091.96
-4160.96
4322.92
-4439.36
4576.96
-4288.27
4820.75
-3833.91
5023.02
-3193.66
5154.82
-2470.31
5200.65
-1778.61
5163.87
-1236.9
5085.32
-952.644
5049.81
-861.392
5121.24
-486.987
5218.03
799.268
5239.79
2381.49
5188.31
3397.34
5094.08
3751.28
4977.38
3688.56
4848.11
3430.13
4711.32
3104.41
4570.33
2774.27
4427.75
2466.72
4285.84
2192.34
4146.46
1951.58
4010.77
1748.17
3879.74
1576.3
3750.64
1450.92
1360.39
1247.09
821.15
1219.35
717.147
1193.26
649.988
1167.96
581.369
1143.05
505.415
1117.16
447.072
1077.97
452.809
984.453
610.902
778.219
1028.49
440.669
1760.19
65.7564
2561.89
-177.093
2789.98
-290.982
2397.16
-363.121
1861.16
-387.165
1118.07
-361.466
-25.6265
-312.997
-1011.82
-244.408
-1564.67
-162.202
-1903.27
-71.6706
-2130.78
27.3437
-2317.66
139.656
-2499.01
268.544
-2673.39
411.648
-2814.5
562.029
-2905.33
711.635
-2966.04
855.809
-3044.85
994.099
-3191.86
1129.64
-3426.45
1269.11
-3688.85
1418.29
-3865.02
1570.85
-3840.61
1705.99
-3559.41
1813.91
-3124.14
1904.83
-2663.06
1978.92
-2117.43
2028.79
-1445.79
2044.19
-655.502
1988.47
333.286
1886.17
1045.51
1761.26
1306.9
1627.26
1242.96
1468.15
1092.47
1265.02
1201.74
1057.19
1688.77
908.166
2202.1
835.443
2413.55
822.342
2297.76
844.476
1994.43
894.632
1603.84
970.271
1207.16
1027.09
926.763
1042.36
800.507
1128.56
598.389
1367.93
15.3867
1593.29
-726.402
1634.89
-1216.91
1477.51
-1401.32
1191.72
-1415
971.702
-1551.85
967.224
-2008.11
1134.64
-2694.51
1380.2
-3455.86
1676
-4196.52
2026.74
-4822.88
2416.93
-5198.14
2785.2
-5161.58
3052.03
-4670.62
3204.89
-4000.89
3288.61
-3433.74
3321.66
-3012.09
3295.31
-2780.94
3248.7
-2940.34
3273.5
-3569.06
3403.71
-4291.17
3596.91
-4632.55
3816.3
-4507.66
4048.46
-4066.07
4264.1
-3409.3
4422.19
-2628.4
4492.7
-1849.12
4464.49
-1208.68
4370.98
-859.137
4302.48
-792.892
4332.14
-516.652
4387.72
743.687
4390.25
2378.96
4350.65
3436.95
4287.08
3814.84
4206.7
3768.95
4112.03
3524.8
4005.35
3211.09
3889.43
2890.19
3767.3
2588.85
3641.98
2317.66
3516.1
2077.46
3391.4
1872.86
3269.14
1698.56
3145.93
1574.13
1478
1245.51
853.164
1217.89
744.762
1190.75
677.13
1163.45
608.665
1136.13
532.73
1106.69
476.51
1054.07
505.418
924.559
740.413
667.008
1286.04
295.693
2131.5
-50.3683
2907.95
-239.935
2979.54
-333.46
2490.68
-396.542
1924.23
-412.008
1133.53
-384.499
-53.1479
-341.941
-1054.38
-282.216
-1624.4
-209.644
-1975.85
-128.997
-2211.43
-41.4782
-2405.18
57.1744
-2597.67
172.032
-2788.25
302.087
-2944.55
440.533
-3043.78
578.819
-3104.33
711.275
-3177.31
836.083
-3316.67
954.446
-3544.82
1072.77
-3807.18
1199.43
-3991.68
1331.22
-3972.4
1446.41
-3674.59
1531.01
-3208.75
1594.96
-2727.02
1642.32
-2164.79
1670.43
-1473.9
1667.74
-652.817
1599.65
401.365
1500.95
1144.2
1384.31
1423.53
1254.88
1372.38
1084.76
1262.59
859.011
1427.49
640.041
1907.74
499.686
2342.45
447.476
2465.75
459.422
2285.81
507.458
1946.39
593.615
1517.68
702.667
1098.1
774.101
855.325
841.654
732.948
1029.52
410.519
1281.81
-236.911
1403.77
-848.367
1284.66
-1097.8
962.872
-1079.53
666.014
-1118.15
603.22
-1489.06
717.082
-2121.97
886.93
-2864.36
1092.8
-3661.73
1357.98
-4461.7
1696.26
-5161.16
2083.23
-5585.11
2438.03
-5516.38
2659.31
-4891.9
2733.77
-4075.35
2727.66
-3427.63
2685.58
-2970.01
2631.81
-2727.17
2619.1
-2927.64
2684.29
-3634.24
2799.63
-4406.52
2931.22
-4764.14
3085.92
-4662.36
3283.49
-4263.64
3500.81
-3626.63
3684.78
-2812.37
3788.65
-1952.99
3780.02
-1200.06
3677.21
-756.326
3576.42
-692.102
3563.64
-503.869
3571.74
735.581
3549.03
2401.67
3517.56
3468.42
3482.21
3850.19
3436.28
3814.88
3374.92
3586.17
3297.63
3288.38
3206.62
2981.2
3105.25
2690.23
2997.2
2425.71
2885.8
2188.86
2773.25
1985.41
2660.87
1810.93
2544.33
1690.67
1594.03
1241.15
884.671
1213.13
772.784
1184.24
706.021
1154.48
638.424
1124.47
562.732
1088.77
512.206
1013.65
580.537
838.253
915.807
530.692
1593.6
146.628
2515.56
-151.089
3205.66
-291.957
3120.41
-370.668
2569.39
-422.233
1975.8
-427.882
1139.17
-398.051
-82.9832
-361.127
-1091.31
-310.394
-1675.13
-248.224
-2038.02
-178.389
-2281.27
-102.291
-2481.28
-16.899
-2683.06
83.2367
-2888.39
199.102
-3060.42
324.795
-3169.48
451.67
-3231.21
572.927
-3298.57
685.109
-3428.86
787.436
-3647.15
885.589
-3905.34
989.975
-4096.07
1101.86
-4084.29
1200.22
-3772.94
1264.14
-3272.68
1299.43
-2762.32
1315.99
-2181.34
1319.92
-1477.84
1294.95
-627.856
1210.62
485.691
1117.61
1237.21
1011.03
1530.11
884.099
1499.31
698.633
1448.05
453.395
1672.72
232.988
2128.14
107.951
2467.48
78.3755
2495.32
115.28
2248.91
196.202
1865.46
318.348
1395.53
448.699
967.745
553.021
750.998
700.405
585.555
945.524
165.396
1149.89
-441.286
1127.72
-826.197
821.391
-791.475
456.641
-714.79
349.257
-1010.78
417.506
-1557.31
511.29
-2215.76
630.463
-2983.54
800.195
-3831.46
1044.1
-4705.6
1369.75
-5486.82
1745.96
-5961.32
2073.49
-5843.92
2226.06
-5044.47
2186.82
-4036.11
2062.1
-3302.91
1968.02
-2875.94
1977.17
-2736.32
2085.39
-3035.86
2208.66
-3757.5
2285.41
-4483.27
2333.64
-4812.37
2404.88
-4733.59
2542.84
-4401.6
2737.47
-3821.25
2936.13
-3011.03
3082.1
-2098.97
3114.18
-1232.13
3019.36
-661.513
2892.01
-564.756
2825.94
-437.797
2769.59
791.928
2715.98
2455.28
2692.3
3492.11
2684.65
3857.83
2671.86
3827.67
2642.36
3615.66
2593.34
3337.4
2526.51
3048.03
2445.51
2771.22
2354.67
2516.54
2257.95
2285.58
2158.07
2085.3
2056.37
1912.64
1947.22
1799.82
1709.35
1230.76
915.507
1202.56
800.977
1172.12
736.462
1140.36
670.18
1107.6
595.483
1060.9
558.898
952.288
689.148
724.619
1143.47
374.055
1944.16
2.81594
2886.8
-233.231
3441.7
-335.41
3222.59
-401.574
2635.55
-439.591
2013.81
-434.957
1134.53
-402.644
-115.309
-370.651
-1123.31
-328.366
-1717.42
-276.664
-2089.73
-218.469
-2339.47
-154.751
-2545
-82.6422
-2755.18
2.65365
-2973.69
103.234
-3161.01
215.173
-3281.42
330.346
-3346.39
440.883
-3409.11
541.137
-3529.11
627.949
-3733.96
705.847
-3983.24
786.822
-4177.05
877.7
-4175.17
961.339
-3856.59
1009.22
-3320.56
1019.2
-2772.3
1007.9
-2170.05
988.07
-1458.01
931.821
-571.613
823.446
594.059
737.678
1322.98
641.377
1626.4
515.182
1625.5
311.881
1651.35
45.7646
1938.83
-173.214
2347.11
-276.287
2570.55
-279.257
2498.28
-217.09
2186.74
-108.117
1756.48
34.895
1252.52
203.873
798.759
397.359
557.506
630.368
352.535
858.896
-63.1372
943.606
-526.001
749.515
-632.11
334.224
-376.198
162.597
-543.176
186.139
-1034.33
223.362
-1594.54
281.642
-2274.04
372.1
-3073.99
516.749
-3976.11
737.623
-4926.48
1043.03
-5792.22
1398.47
-6316.76
1685.63
-6131.08
1751.71
-5110.55
1582.44
-3866.84
1371.6
-3092.07
1324.72
-2829.05
1472.03
-2883.63
1680.33
-3244.16
1806.97
-3884.15
1827.69
-4503.99
1805.14
-4789.82
1798.69
-4727.15
1853.19
-4456.1
1981.25
-3949.31
2157.69
-3187.47
2340.18
-2281.46
2438.44
-1330.39
2383.73
-606.795
2259.61
-440.644
2128.79
-306.977
1979.18
941.54
1891.03
2543.42
1877.93
3505.21
1898.71
3837.06
1917.75
3808.63
1918.39
3615.02
1896.33
3359.46
1853.06
3091.3
1792.51
2831.78
1719.57
2589.48
1638.77
2366.39
1553.05
2171.02
1463.16
2002.52
1361.13
1901.86
1827.03
1216.79
947.719
1186.85
830.919
1153.96
769.348
1120.14
704.003
1083.34
632.28
1018.29
623.943
865.751
841.683
585.248
1423.97
208.924
2320.48
-124.755
3220.48
-297.574
3614.52
-371.735
3296.75
-425.31
2689.12
-448.766
2037.26
-434.377
1120.14
-399.828
-149.862
-371.714
-1151.43
-336.681
-1752.46
-294.671
-2131.74
-248.172
-2385.97
-197.822
-2595.35
-140.06
-2812.94
-69.8824
-3043.87
14.8977
-3245.79
112.005
-3378.53
214.902
-3449.28
315.022
-3509.23
404.121
-3618.22
476.06
-3805.9
533.571
-4040.75
589.616
-4233.09
656.515
-4242.07
725.023
-3925.1
761.315
-3356.86
752.721
-2763.71
728.88
-2146.21
697.85
-1426.99
595.187
-468.958
444.533
744.706
362.952
1404.55
280.212
1709.14
145.456
1760.25
-92.1687
1888.97
-361.833
2208.49
-544.441
2529.72
-615.469
2641.58
-597.294
2480.1
-519.868
2109.31
-402.569
1639.18
-227.329
1077.27
28.6141
542.806
302.17
283.941
546.178
108.513
713.129
-230.093
626.869
-439.749
264.815
-270.062
-73.8068
-37.5886
-81.6873
-535.305
-75.8172
-1040.2
-42.3061
-1628.05
15.2821
-2331.63
103.012
-3161.72
235.953
-4109.06
434.615
-5125.14
713.685
-6071.29
1039.51
-6642.59
1278
-6369.56
1256.91
-5089.46
995.075
-3605.01
814.071
-2911.07
898.222
-2913.2
1125.64
-3111.04
1325.75
-3444.28
1413.25
-3971.65
1397.91
-4488.65
1339.98
-4731.89
1280.49
-4667.67
1248.27
-4423.88
1273.83
-3974.87
1372.82
-3286.46
1545.07
-2453.72
1703.24
-1488.56
1714.36
-617.912
1643.91
-370.198
1452.43
-115.493
1192.68
1201.29
1076.8
2659.3
1080.54
3501.47
1130.9
3786.7
1180.47
3759.06
1209.56
3585.93
1213.01
3356
1192.11
3112.2
1151.01
2872.88
1094.96
2645.52
1028.82
2432.53
955.946
2243.89
877.372
2081.09
785.87
1993.36
1949.08
1200.35
981.424
1167.94
863.324
1131.71
805.572
1094.84
740.878
1049.82
677.291
956.064
717.694
752.089
1045.65
424.412
1751.65
47.8428
2697.05
-228.744
3497.06
-347.387
3733.16
-401.525
3350.88
-441.553
2729.15
-450.666
2046.37
-427.995
1097.46
-391.83
-186.039
-366.394
-1176.87
-336.968
-1781.89
-303.127
-2165.59
-267.434
-2421.67
-230.682
-2632.11
-188.572
-2855.06
-134.65
-3097.79
-66.0519
-3314.39
15.6025
-3460.19
105.407
-3539.09
195.021
-3598.85
273.755
-3696.95
332.046
-3864.2
369.861
-4078.57
400.086
-4263.32
439.614
-4281.6
490.49
-3975.97
518.105
-3384.47
491.544
-2737.15
465.315
-2119.98
440.522
-1402.2
284.521
-312.967
83.969
945.249
4.06056
1484.45
-81.1242
1794.32
-246.049
1925.17
-499.916
2142.83
-743.703
2452.28
-892.619
2678.63
-942.175
2691.13
-919.279
2457.2
-836.838
2026.86
-665.808
1468.15
-390.089
801.55
-96.7561
249.459
192.329
-5.15979
420.766
-119.937
462.143
-271.477
184.405
-162.025
-206.423
120.76
-390.739
146.719
-297.753
-628.301
-272.901
-1065.06
-249.064
-1651.89
-212.795
-2367.91
-153.231
-3221.29
-48.5309
-4213.76
126.367
-5300.04
380.527
-6325.45
671.446
-6933.51
861.292
-6559.41
781.052
-5009.22
522.722
-3346.68
463.562
-2851.91
623.407
-3073.05
811.488
-3299.13
949.53
-3582.32
1004.08
-4026.2
976.74
-4461.31
907.162
-4662.31
823.022
-4583.53
735.763
-4336.62
677.233
-3916.34
685.033
-3294.26
786.805
-2555.49
958.116
-1659.87
1039.15
-698.951
1068.55
-399.597
802.835
150.222
413.814
1590.31
279.785
2793.33
305.641
3475.61