/*--------------------------------*- C++ -*----------------------------------*\
| =========                 |                                                 |
| \\      /  F ield         | OpenFOAM: The Open Source CFD Toolbox           |
|  \\    /   O peration     | Version:  4.1                                   |
|   \\  /    A nd           | Web:      www.OpenFOAM.org                      |
|    \\/     M anipulation  |                                                 |
\*---------------------------------------------------------------------------*/
FoamFile
{
    version     2.0;
    format      ascii;
    class       volVectorField;
    location    "900";
    object      U;
}
// * * * * * * * * * * * * * * * * * * * * * * * * * * * * * * * * * * * * * //

dimensions      [0 1 -1 0 0 0 0];

internalField   nonuniform List<vector> 
26785
(
(1.13573e-15 0.0607833 10.5735)
(1.01651e-15 0.0520698 9.42167)
(1.17453e-15 0.0475552 8.40035)
(-1.01341e-15 0.0435513 7.49135)
(2.26858e-15 0.0391014 6.67671)
(-8.02349e-15 0.0345869 5.96325)
(-7.53064e-15 0.0306147 5.34931)
(-1.03278e-14 0.0279548 4.81359)
(-1.51267e-15 0.0264026 4.32417)
(-1.06407e-14 0.0255614 3.8682)
(-7.44868e-15 0.0238371 3.44625)
(-9.16805e-15 0.0220593 3.08032)
(-8.04292e-15 0.0325404 2.72312)
(-3.97085e-15 0.054575 2.08958)
(-1.00331e-14 0.0534949 1.09668)
(-3.02719e-14 0.0217425 0.387548)
(-2.08092e-14 -0.0135202 0.43616)
(-9.72987e-15 -0.0421837 0.983552)
(-4.8481e-15 -0.0578861 1.76469)
(-1.3345e-14 -0.0677273 2.67527)
(-9.82914e-15 -0.0749745 3.6626)
(-7.86833e-15 -0.0809061 4.70177)
(-8.41315e-15 -0.0859623 5.77992)
(-8.82277e-15 -0.0900724 6.8857)
(-1.12664e-14 -0.0933226 8.00688)
(-8.37596e-15 -0.0964919 9.13616)
(-6.01722e-15 -0.100732 10.2783)
(-3.08084e-15 -0.106931 11.4504)
(-3.12897e-15 -0.114954 12.6742)
(-2.05481e-15 -0.122649 13.9582)
(3.452e-16 -0.126699 15.2785)
(1.37807e-15 -0.124356 16.5787)
(2.60921e-15 -0.11454 17.785)
(3.19189e-15 -0.0985327 18.831)
(3.60246e-15 -0.0780157 19.6738)
(4.71665e-15 -0.0530329 20.2826)
(3.97259e-15 -0.0245659 20.6302)
(3.95539e-15 0.0040117 20.7068)
(4.07188e-15 0.0275531 20.534)
(4.19683e-15 0.0379302 20.1965)
(6.25615e-15 0.0339127 19.839)
(5.26615e-15 0.025967 19.5734)
(5.68507e-15 0.029185 19.3786)
(4.1681e-15 0.0530408 19.0862)
(5.50301e-15 0.0910436 18.4923)
(1.49737e-15 0.124435 17.5441)
(2.86754e-15 0.140727 16.3718)
(3.55202e-15 0.14038 15.1572)
(3.2615e-15 0.129678 14.0264)
(1.53434e-15 0.114373 13.0359)
(4.98603e-15 0.0980751 12.1975)
(-2.0302e-16 0.0825571 11.5029)
(-4.89411e-16 0.0686308 10.9355)
(-9.9851e-16 0.0559154 10.4754)
(-7.8613e-16 0.0421283 10.1133)
(-6.18547e-16 0.0250855 9.86247)
(-3.36365e-15 0.00518301 9.74837)
(3.22594e-15 -0.0160878 9.78568)
(5.48243e-16 -0.0374115 9.96537)
(-6.76402e-15 -0.0570417 10.2697)
(-3.30186e-15 -0.0733825 10.6924)
(-3.98456e-15 -0.0872536 11.2423)
(-3.50902e-15 -0.101305 11.9309)
(-9.07102e-15 -0.116742 12.7561)
(-5.56598e-15 -0.131824 13.6956)
(-4.3908e-15 -0.14328 14.7091)
(-3.83825e-15 -0.148549 15.7471)
(-3.8804e-15 -0.147218 16.761)
(-3.86971e-15 -0.141433 17.7155)
(-4.21657e-15 -0.134815 18.5975)
(-4.76168e-15 -0.130788 19.4188)
(-2.99657e-15 -0.131581 20.2089)
(-3.38964e-15 -0.137424 21.0044)
(-3.80345e-15 -0.145575 21.8327)
(-4.02115e-15 -0.150909 22.6944)
(-4.07664e-15 -0.148719 23.5573)
(-4.98328e-15 -0.137152 24.3689)
(-5.53139e-15 -0.117168 25.0768)
(-6.07237e-15 -0.0910274 25.6418)
(-6.43396e-15 -0.0609871 26.0408)
(-7.14567e-15 -0.0284859 26.2627)
(-5.63559e-15 0.006186 26.3023)
(-4.41628e-15 0.0439015 26.1496)
(-4.29041e-15 0.0855182 25.7835)
(-2.52482e-15 0.128185 25.1866)
(-1.88305e-15 0.164503 24.3737)
(-1.83961e-15 0.18757 23.4063)
(-1.84347e-15 0.195729 22.3705)
(-1.82029e-15 0.191877 21.3438)
(-1.47981e-15 0.1803 20.3775)
(-9.48117e-16 0.164715 19.4987)
(-3.23667e-16 0.14775 18.7164)
(3.52423e-16 0.131061 18.0299)
(1.08625e-15 0.115585 17.431)
(1.79628e-15 0.101884 16.9129)
(2.80992e-15 0.0901973 16.4566)
(3.88812e-15 0.0813389 16.0714)
(4.98926e-15 0.0748974 15.6837)
(5.96468e-15 0.0738246 15.4356)
(7.31729e-15 0.073967 14.9033)
(1.06409e-15 0.157176 10.5026)
(-2.31357e-16 0.141468 9.39252)
(1.86096e-15 0.133751 8.40933)
(9.40304e-17 0.125383 7.5345)
(4.08021e-15 0.114532 6.75035)
(-3.86115e-15 0.103005 6.06246)
(2.71037e-15 0.092962 5.46614)
(7.47367e-17 0.0864676 4.93693)
(-4.46366e-15 0.0823581 4.44311)
(-4.51874e-15 0.0790678 3.97596)
(-5.74385e-15 0.0722201 3.54226)
(-7.86051e-15 0.0661176 3.1612)
(-7.80716e-15 0.101166 2.75134)
(-1.36031e-15 0.171187 2.01488)
(-3.95129e-14 0.164499 0.980885)
(-5.29382e-14 0.0699884 0.26993)
(7.0844e-15 -0.0574002 0.400643)
(3.49669e-16 -0.151057 1.07507)
(-3.65134e-16 -0.195635 1.9514)
(4.86852e-15 -0.221881 2.93265)
(-1.01003e-14 -0.241082 3.97348)
(-1.16425e-15 -0.256772 5.05244)
(-5.26152e-15 -0.269987 6.15812)
(-2.95012e-15 -0.280443 7.27995)
(-1.63711e-15 -0.288432 8.40648)
(-3.1671e-15 -0.296249 9.53144)
(-9.44279e-16 -0.307178 10.6604)
(4.41066e-16 -0.323635 11.8104)
(1.63613e-15 -0.344946 13.0032)
(7.41354e-16 -0.364626 14.2466)
(3.11036e-15 -0.37305 15.5168)
(2.1899e-15 -0.36258 16.7586)
(2.40073e-15 -0.330612 17.901)
(2.08512e-15 -0.28137 18.8818)
(2.36644e-15 -0.220123 19.6631)
(2.59994e-15 -0.147292 20.2196)
(2.5959e-15 -0.0657312 20.5295)
(2.61454e-15 0.0158044 20.5863)
(2.50271e-15 0.0844851 20.4044)
(2.32691e-15 0.116477 20.0464)
(2.41456e-15 0.104267 19.6402)
(3.33662e-15 0.0762183 19.3149)
(1.47014e-15 0.0816995 19.0951)
(3.28619e-15 0.156892 18.8306)
(2.28544e-15 0.281956 18.2773)
(3.82492e-15 0.392069 17.341)
(6.26167e-16 0.444029 16.1505)
(4.97526e-15 0.439949 14.9079)
(-8.14327e-17 0.40208 13.7552)
(6.85437e-15 0.350353 12.7545)
(9.89884e-16 0.296863 11.917)
(-1.59041e-15 0.247245 11.2311)
(-2.50934e-15 0.20363 10.6763)
(-1.06918e-14 0.16489 10.2292)
(-6.884e-18 0.124804 9.87719)
(-1.96779e-15 0.0753782 9.63037)
(-5.1821e-15 0.0158375 9.50978)
(5.9635e-16 -0.0455886 9.51698)
(4.60909e-15 -0.101004 9.63647)
(2.77999e-16 -0.15246 9.88611)
(1.86514e-15 -0.209754 10.3191)
(-6.38321e-15 -0.27819 10.9682)
(-5.66686e-15 -0.351661 11.8119)
(-1.19959e-15 -0.418126 12.793)
(-4.53229e-15 -0.467178 13.8496)
(-5.70156e-15 -0.492999 14.9285)
(-6.09329e-15 -0.494635 15.9855)
(-5.87022e-15 -0.476034 16.9844)
(-7.67956e-15 -0.446214 17.9018)
(-4.02085e-15 -0.41659 18.7337)
(-3.01513e-15 -0.396995 19.4975)
(-2.29726e-15 -0.393488 20.2255)
(-1.65912e-16 -0.406306 20.9565)
(6.91678e-16 -0.426948 21.7217)
(7.1312e-16 -0.43984 22.5266)
(6.17234e-16 -0.430744 23.3437)
(2.28404e-15 -0.394039 24.1239)
(2.27398e-15 -0.332558 24.8162)
(3.44631e-15 -0.253276 25.3806)
(4.61986e-15 -0.16362 25.7921)
(4.71578e-15 -0.0681822 26.0385)
(5.497e-15 0.0336826 26.1127)
(6.5955e-15 0.146603 25.9934)
(5.68544e-15 0.273058 25.646)
(5.17929e-15 0.402828 25.0476)
(6.31991e-15 0.511827 24.2149)
(8.45239e-15 0.578334 23.2194)
(8.83763e-15 0.598046 22.1587)
(7.89858e-15 0.581081 21.1166)
(6.43044e-15 0.541419 20.1462)
(5.43962e-15 0.490732 19.2726)
(5.29982e-15 0.436969 18.5025)
(5.21314e-15 0.384918 17.8327)
(6.51039e-15 0.33711 17.2533)
(7.78283e-15 0.295013 16.7563)
(8.38126e-15 0.259138 16.322)
(9.19603e-15 0.232224 15.9598)
(9.93281e-15 0.212799 15.5968)
(1.03153e-14 0.210973 15.3723)
(1.06018e-14 0.21612 14.8733)
(8.85866e-16 0.257147 10.3914)
(3.57777e-15 0.233294 9.3162)
(-3.95628e-16 0.219403 8.37315)
(3.09191e-15 0.204769 7.54461)
(2.39302e-15 0.186583 6.81188)
(-5.33825e-15 0.167776 6.17796)
(2.1114e-15 0.152019 5.63471)
(3.66959e-15 0.142745 5.15209)
(5.06052e-15 0.137739 4.69143)
(4.3673e-15 0.134039 4.23648)
(1.59563e-15 0.124924 3.78555)
(-3.80005e-15 0.120831 3.33345)
(-5.45686e-15 0.187623 2.74149)
(-3.0556e-15 0.300667 1.7899)
(-3.61671e-14 0.277223 0.732768)
(-9.89441e-14 0.107663 0.0435558)
(-1.71187e-15 -0.128481 0.350345)
(-1.09482e-14 -0.27119 1.06921)
(-4.91113e-16 -0.336748 1.95182)
(-1.42528e-14 -0.376491 2.92458)
(-1.1397e-14 -0.405752 3.94379)
(2.75776e-15 -0.429546 4.98909)
(2.58546e-15 -0.449392 6.05037)
(-1.09346e-16 -0.464785 7.11833)
(2.26069e-15 -0.476248 8.18268)
(9.92107e-16 -0.487605 9.23819)
(6.81147e-16 -0.504298 10.2917)
(2.57127e-15 -0.530344 11.3624)
(3.45059e-15 -0.564626 12.4751)
(3.96056e-15 -0.596342 13.6417)
(4.35977e-15 -0.60949 14.8402)
(4.24987e-15 -0.591503 16.0154)
(4.23522e-15 -0.538296 17.0957)
(2.67203e-15 -0.457256 18.0191)
(2.4072e-15 -0.35744 18.7508)
(1.5136e-15 -0.239464 19.2687)
(8.25474e-16 -0.107676 19.5525)
(1.00147e-16 0.0249649 19.5958)
(-3.26378e-16 0.140809 19.4039)
(-5.01012e-16 0.201544 19.019)
(-6.2362e-16 0.189281 18.5424)
(-8.03692e-16 0.139217 18.1013)
(-7.82829e-16 0.128668 17.7906)
(-1.5349e-16 0.233418 17.5694)
(1.13239e-15 0.438493 17.186)
(2.66167e-15 0.632192 16.4401)
(3.82673e-15 0.729463 15.3939)
(4.82181e-15 0.727841 14.2458)
(4.96196e-15 0.665375 13.1561)
(4.21936e-15 0.577843 12.2021)
(3.20488e-15 0.487158 11.4031)
(2.02238e-15 0.403588 10.7511)
(1.67883e-15 0.33106 10.2247)
(1.69161e-15 0.267622 9.7985)
(3.16323e-15 0.202567 9.46315)
(-1.37296e-15 0.123428 9.22704)
(5.69302e-15 0.0328389 9.08566)
(9.48058e-15 -0.0563981 9.02673)
(1.01037e-15 -0.147177 9.09784)
(6.63153e-15 -0.25891 9.4078)
(-2.18592e-15 -0.394716 9.9988)
(-8.61009e-15 -0.532746 10.7967)
(-1.29193e-14 -0.649992 11.6969)
(-1.47747e-14 -0.736157 12.6331)
(-1.48279e-14 -0.789346 13.5775)
(-1.49613e-14 -0.809544 14.5151)
(-1.38947e-14 -0.797846 15.4265)
(-1.41858e-14 -0.759542 16.286)
(-1.29515e-14 -0.707339 17.0719)
(-1.2158e-14 -0.658157 17.7787)
(-1.16108e-14 -0.626842 18.4213)
(-1.06043e-14 -0.622971 19.0309)
(-1.01406e-14 -0.647567 19.6479)
(-1.05801e-14 -0.687437 20.31)
(-9.76972e-15 -0.716951 21.0311)
(-7.85333e-15 -0.711957 21.7905)
(-5.96869e-15 -0.662246 22.544)
(-4.26535e-15 -0.571315 23.2447)
(-2.71675e-15 -0.449464 23.8556)
(-1.37672e-15 -0.308394 24.3516)
(-3.04138e-16 -0.15541 24.719)
(-2.97556e-16 0.0127492 24.948)
(1.4932e-15 0.206555 25.0098)
(2.38509e-15 0.429446 24.8381)
(2.35617e-15 0.660183 24.3759)
(2.62511e-15 0.853239 23.6244)
(3.3796e-15 0.968824 22.6657)
(4.28879e-15 1.00056 21.619)
(4.62659e-15 0.96828 20.5846)
(5.87818e-15 0.897729 19.6228)
(6.55788e-15 0.809592 18.7605)
(6.37789e-15 0.717452 18.0034)
(6.41835e-15 0.629191 17.3467)
(6.97742e-15 0.548751 16.7793)
(7.27963e-15 0.478263 16.2921)
(7.06e-15 0.418065 15.8654)
(7.012e-15 0.372475 15.5091)
(6.91239e-15 0.338561 15.1564)
(6.6713e-15 0.333345 14.941)
(7.09992e-15 0.344521 14.4863)
(9.05972e-16 0.353933 10.2777)
(1.1077e-15 0.321641 9.24504)
(3.98389e-15 0.300682 8.34918)
(6.11775e-15 0.279046 7.5745)
(4.62056e-15 0.253137 6.90201)
(1.07221e-14 0.227046 6.33178)
(9.49202e-15 0.206116 5.85078)
(3.04996e-15 0.195375 5.42166)
(5.79223e-15 0.191798 4.99848)
(5.40349e-15 0.191451 4.55573)
(3.49028e-15 0.186873 4.07079)
(-2.17906e-15 0.197504 3.48238)
(-4.68804e-15 0.303194 2.60179)
(4.60138e-15 0.442018 1.41773)
(-2.90267e-14 0.385623 0.406464)
(-4.73108e-14 0.136618 -0.206232)
(-1.11977e-14 -0.213015 0.238375)
(-8.21784e-16 -0.389612 0.9247)
(-1.90568e-14 -0.47459 1.76972)
(-1.2844e-14 -0.527398 2.6963)
(-7.29297e-15 -0.56566 3.65945)
(2.31647e-15 -0.596437 4.64085)
(2.61567e-15 -0.621917 5.63248)
(3.36793e-15 -0.64137 6.62657)
(3.61707e-15 -0.655521 7.61368)
(4.01087e-15 -0.669765 8.58923)
(3.79804e-15 -0.691877 9.56168)
(4.06703e-15 -0.727767 10.5535)
(4.44198e-15 -0.776064 11.5941)
(4.56719e-15 -0.821366 12.6989)
(6.06276e-15 -0.840712 13.8453)
(6.44537e-15 -0.816235 14.9746)
(5.6153e-15 -0.74245 16.0118)
(5.08784e-15 -0.63047 16.8944)
(3.94912e-15 -0.493665 17.591)
(4.95945e-15 -0.332559 18.0833)
(1.65636e-15 -0.152628 18.3516)
(2.56641e-15 0.0298852 18.3907)
(1.49364e-15 0.194648 18.196)
(-1.84637e-15 0.29016 17.7961)
(-7.60731e-16 0.288244 17.2763)
(-1.1867e-15 0.22185 16.7508)
(-4.57965e-15 0.179956 16.3342)
(-7.05378e-15 0.28038 16.0645)
(-9.9159e-16 0.540272 15.7576)
(8.40771e-16 0.815111 15.1711)
(3.68995e-15 0.968196 14.2934)
(6.47259e-15 0.980818 13.2882)
(4.48149e-15 0.902506 12.3114)
(3.77583e-15 0.784844 11.4455)
(9.09646e-15 0.660627 10.7168)
(9.88728e-16 0.546072 10.1215)
(9.30453e-15 0.447629 9.6376)
(1.08423e-14 0.361416 9.24301)
(7.68601e-15 0.273065 8.9364)
(8.93641e-15 0.17182 8.70939)
(9.90604e-16 0.0625757 8.52585)
(1.12154e-14 -0.0587005 8.4216)
(-4.17025e-16 -0.217952 8.56013)
(-8.11155e-15 -0.418917 9.02946)
(-1.52011e-14 -0.620279 9.71962)
(-1.7715e-14 -0.785572 10.4809)
(-1.68327e-14 -0.909072 11.2486)
(-1.62376e-14 -0.998349 12.0241)
(-1.59127e-14 -1.05655 12.8211)
(-1.19358e-14 -1.07978 13.6363)
(-1.77316e-14 -1.06368 14.4452)
(-1.60929e-14 -1.01147 15.2115)
(-1.29336e-14 -0.939322 15.9038)
(-1.26974e-14 -0.870729 16.5114)
(-1.22839e-14 -0.826691 17.0477)
(-1.36037e-14 -0.82171 17.5451)
(-1.46026e-14 -0.859338 18.0487)
(-1.54418e-14 -0.922658 18.6037)
(-1.27174e-14 -0.975491 19.2294)
(-1.03647e-14 -0.983083 19.9056)
(-8.12926e-15 -0.931013 20.5871)
(-6.83687e-15 -0.824217 21.2314)
(-5.28004e-15 -0.676291 21.8106)
(-2.50805e-15 -0.502487 22.3113)
(2.47302e-16 -0.312499 22.7318)
(3.0955e-15 -0.098541 23.0781)
(4.3399e-15 0.164 23.3404)
(5.26305e-15 0.490094 23.4344)
(4.47921e-15 0.845139 23.2274)
(3.38241e-15 1.14937 22.661)
(4.10068e-16 1.33387 21.8107)
(-5.39749e-16 1.38802 20.8215)
(-8.42247e-16 1.34454 19.8196)
(7.81511e-16 1.24444 18.8794)
(1.12886e-15 1.11945 18.0331)
(1.12631e-15 0.989658 17.2881)
(1.69681e-15 0.866282 16.6395)
(1.91346e-15 0.754648 16.0757)
(1.88878e-15 0.657338 15.5877)
(1.03646e-15 0.574109 15.1562)
(2.94983e-16 0.509636 14.7912)
(-2.54951e-16 0.459665 14.4332)
(-6.06268e-16 0.443653 14.208)
(3.60025e-16 0.456419 13.7845)
(9.32665e-16 0.44053 10.1814)
(3.12428e-15 0.401388 9.19931)
(2.01778e-15 0.37528 8.35842)
(5.51827e-15 0.347337 7.64374)
(5.86345e-15 0.313871 7.03492)
(-2.99921e-16 0.280746 6.52798)
(7.83684e-15 0.255407 6.10382)
(9.19169e-15 0.244633 5.7177)
(9.49445e-15 0.244778 5.31921)
(7.72619e-15 0.252312 4.87472)
(4.05517e-15 0.262721 4.3253)
(6.18935e-15 0.304882 3.52566)
(-2.202e-15 0.450702 2.29489)
(1.48666e-14 0.588346 0.9551)
(-2.0336e-14 0.481803 0.0445405)
(-6.50538e-14 0.145322 -0.38985)
(-1.05567e-14 -0.295804 0.066502)
(-1.65978e-14 -0.501217 0.69342)
(-1.77709e-14 -0.606192 1.4847)
(-9.45801e-15 -0.671141 2.3486)
(-3.12343e-15 -0.717344 3.24246)
(5.42584e-17 -0.754406 4.15128)
(2.62874e-15 -0.785114 5.06932)
(4.11219e-15 -0.80835 5.98982)
(2.5758e-15 -0.824958 6.90308)
(1.58839e-15 -0.842031 7.80432)
(-9.96747e-16 -0.869977 8.70334)
(2.29664e-15 -0.916909 9.62578)
(2.1603e-15 -0.981154 10.6052)
(2.87388e-15 -1.04205 11.6587)
(3.52566e-15 -1.06896 12.7613)
(4.54877e-15 -1.03855 13.8501)
(6.04366e-15 -0.944311 14.8474)
(7.78115e-15 -0.801911 15.6915)
(8.11082e-15 -0.629598 16.3561)
(8.74112e-15 -0.427324 16.8267)
(8.06906e-15 -0.201304 17.0844)
(6.76019e-15 0.0299067 17.125)
(4.92928e-15 0.245174 16.9338)
(2.93093e-15 0.378807 16.5277)
(1.08959e-15 0.392453 15.9842)
(-8.72114e-16 0.31767 15.4102)
(-3.80891e-15 0.248032 14.9129)
(-2.37868e-15 0.331201 14.5696)
(-2.36897e-15 0.621692 14.2655)
(-6.22789e-16 0.960545 13.7681)
(1.03304e-15 1.16491 13.0246)
(2.37226e-15 1.19483 12.1599)
(4.69889e-15 1.10627 11.3102)
(2.36127e-15 0.963987 10.5514)
(7.2373e-15 0.810968 9.91095)
(6.80091e-15 0.669972 9.38642)
(5.35243e-15 0.549475 8.95508)
(4.77609e-15 0.442487 8.60315)
(2.47126e-15 0.335496 8.33146)
(7.9586e-15 0.223118 8.10071)
(2.50318e-15 0.0976581 7.87843)
(2.17894e-15 -0.079935 7.81179)
(-5.39678e-15 -0.331935 8.10662)
(-1.29638e-14 -0.603804 8.68516)
(-2.03696e-14 -0.829522 9.34089)
(-1.45701e-14 -0.997669 9.98175)
(-1.15697e-14 -1.12697 10.621)
(-1.06694e-14 -1.22986 11.2932)
(-1.10008e-14 -1.30303 12.012)
(-1.33236e-14 -1.33442 12.7633)
(-1.16855e-14 -1.31434 13.5135)
(-1.35605e-14 -1.24535 14.2199)
(-1.00603e-14 -1.14889 14.8464)
(-1.02672e-14 -1.0564 15.3798)
(-8.94981e-15 -0.995773 15.8335)
(-9.98304e-15 -0.987234 16.2405)
(-1.22387e-14 -1.03777 16.6497)
(-1.34568e-14 -1.12631 17.1136)
(-1.35161e-14 -1.20405 17.6563)
(-1.28572e-14 -1.22418 18.2534)
(-1.20601e-14 -1.1692 18.8511)
(-1.26647e-14 -1.04826 19.4028)
(-1.20591e-14 -0.880732 19.8848)
(-1.16715e-14 -0.687121 20.294)
(-1.11534e-14 -0.482141 20.6436)
(-4.85631e-15 -0.257125 20.9638)
(6.20112e-16 0.0315186 21.2906)
(6.78224e-15 0.433668 21.5918)
(1.22103e-14 0.921578 21.6758)
(1.29316e-14 1.36728 21.3699)
(1.02735e-14 1.65009 20.6967)
(6.94503e-15 1.74567 19.8144)
(4.30433e-15 1.70121 18.8776)
(1.70418e-15 1.57697 17.9797)
(7.2361e-16 1.41846 17.1621)
(2.60328e-16 1.25359 16.4362)
(5.35731e-16 1.09738 15.7988)
(5.68014e-16 0.956666 15.2398)
(7.8235e-16 0.83445 14.7506)
(2.84219e-16 0.729899 14.3133)
(-3.58358e-16 0.647257 13.9376)
(-7.54375e-16 0.581388 13.5698)
(-7.37453e-16 0.549812 13.3271)
(-3.43741e-16 0.558225 12.9121)
(8.78875e-16 0.535906 10.1167)
(3.84703e-15 0.481942 9.207)
(2.46618e-15 0.447291 8.43349)
(3.04877e-15 0.411613 7.78267)
(4.92796e-15 0.370187 7.23423)
(3.98709e-15 0.330375 6.78085)
(1.01299e-14 0.30173 6.39769)
(1.60424e-14 0.292623 6.03385)
(1.56274e-14 0.298917 5.63764)
(6.99934e-15 0.31988 5.16426)
(3.23598e-15 0.358703 4.49816)
(8.0416e-15 0.448357 3.40869)
(2.479e-15 0.624096 1.82962)
(2.16252e-14 0.729988 0.460761)
(-1.53396e-14 0.556748 -0.300406)
(-1.7177e-14 0.142838 -0.543037)
(-1.23506e-14 -0.369668 -0.145633)
(-2.23079e-14 -0.604828 0.416748)
(-1.94295e-14 -0.730275 1.14624)
(-3.67345e-15 -0.806612 1.94239)
(8.47235e-16 -0.860347 2.76675)
(-1.42631e-15 -0.903669 3.60761)
(4.60106e-15 -0.939736 4.46104)
(5.75799e-15 -0.966789 5.32033)
(-1.76718e-15 -0.985689 6.17397)
(-2.20893e-15 -1.00542 7.0153)
(-2.46423e-15 -1.03937 7.85392)
(-1.93953e-15 -1.09812 8.71658)
(-1.01888e-16 -1.17958 9.63884)
(5.16526e-16 -1.2573 10.6388)
(2.68127e-15 -1.29252 11.6902)
(3.18138e-15 -1.25652 12.7292)
(5.95773e-15 -1.14212 13.678)
(7.76236e-15 -0.97032 14.477)
(9.95681e-15 -0.764633 15.1061)
(9.28244e-15 -0.523722 15.5547)
(9.42798e-15 -0.25407 15.8034)
(8.79947e-15 0.0242141 15.849)
(7.30787e-15 0.291416 15.6659)
(4.80506e-15 0.465929 15.2584)
(9.95529e-16 0.498852 14.7026)
(7.28047e-16 0.42084 14.1032)
(1.69179e-15 0.326748 13.5524)
(-3.86864e-15 0.386737 13.1407)
(-1.31319e-16 0.69246 12.8033)
(-5.8625e-16 1.07957 12.3409)
(5.80829e-16 1.32614 11.6902)
(1.73361e-15 1.37138 10.9468)
(3.25521e-15 1.27514 10.2207)
(4.21668e-15 1.11251 9.57363)
(4.80103e-15 0.935422 9.02882)
(4.96576e-15 0.772984 8.58161)
(3.97181e-15 0.634187 8.20981)
(1.43921e-15 0.509473 7.90952)
(-2.38031e-16 0.391868 7.66966)
(3.58361e-15 0.276316 7.42119)
(8.18398e-15 0.122597 7.1976)
(4.73028e-15 -0.140221 7.2687)
(-1.18132e-14 -0.481668 7.7286)
(-1.09274e-14 -0.788131 8.32578)
(-8.94769e-15 -1.01318 8.88924)
(-2.89692e-15 -1.1812 9.41787)
(-6.05319e-15 -1.32222 9.9614)
(-7.2085e-15 -1.4437 10.5516)
(-1.07677e-14 -1.53402 11.1934)
(-9.13711e-15 -1.5743 11.8724)
(-8.83453e-15 -1.55048 12.5586)
(-7.7829e-15 -1.46422 13.2091)
(-6.33394e-15 -1.3423 13.7827)
(-6.03173e-15 -1.22426 14.2615)
(-4.48623e-15 -1.14467 14.655)
(-7.22546e-15 -1.13014 14.9926)
(-8.41249e-15 -1.19289 15.3255)
(-9.02594e-15 -1.30848 15.7187)
(-1.19349e-14 -1.41314 16.2076)
(-1.78895e-14 -1.44484 16.7632)
(-2.03348e-14 -1.38238 17.3161)
(-2.35241e-14 -1.24102 17.8067)
(-2.4902e-14 -1.0485 18.2069)
(-2.37604e-14 -0.832816 18.5154)
(-2.1521e-14 -0.617024 18.7522)
(-2.16503e-14 -0.400482 18.961)
(-2.19294e-14 -0.130135 19.2134)
(-2.14936e-14 0.288522 19.566)
(-1.30815e-14 0.882925 19.8671)
(1.13431e-15 1.48524 19.8285)
(8.60258e-15 1.89552 19.3682)
(1.03814e-14 2.05601 18.6297)
(9.86131e-15 2.02547 17.7886)
(8.70479e-15 1.88624 16.9566)
(6.41695e-15 1.70033 16.1854)
(4.88514e-15 1.50493 15.4915)
(5.06425e-15 1.31952 14.8752)
(4.759e-15 1.15272 14.3283)
(3.59003e-15 1.00803 13.8441)
(3.27939e-15 0.884265 13.4065)
(3.33251e-15 0.784912 13.025)
(3.47259e-15 0.704435 12.6503)
(3.44098e-15 0.656547 12.3925)
(2.92039e-15 0.655288 11.9713)
(1.08511e-15 0.612693 10.1106)
(1.44726e-15 0.553004 9.26263)
(3.17115e-15 0.513002 8.55266)
(4.53005e-15 0.471003 7.961)
(4.80062e-15 0.422617 7.46306)
(2.59967e-15 0.377256 7.04722)
(3.5408e-15 0.346816 6.68475)
(5.16266e-15 0.341138 6.3236)
(3.01985e-15 0.356355 5.91413)
(4.1308e-16 0.398319 5.3861)
(6.53923e-15 0.481239 4.543)
(4.51734e-15 0.628683 3.10792)
(8.06176e-15 0.810732 1.25541)
(2.59574e-14 0.857565 -0.0089712)
(-1.34674e-14 0.609139 -0.608353)
(-3.94844e-14 0.1313 -0.734661)
(-1.47238e-14 -0.436154 -0.381987)
(-1.62706e-14 -0.700524 0.125142)
(-1.97137e-14 -0.846157 0.788779)
(-2.40426e-15 -0.933639 1.51904)
(-4.40633e-15 -0.99509 2.28006)
(-1.5561e-15 -1.04519 3.06239)
(3.70312e-15 -1.0872 3.86348)
(-1.12459e-15 -1.11837 4.67587)
(-4.37118e-15 -1.1394 5.485)
(-4.59805e-15 -1.16129 6.28063)
(-5.68066e-15 -1.20064 7.06966)
(-4.1602e-15 -1.27075 7.87676)
(9.32949e-16 -1.36934 8.73756)
(9.22342e-16 -1.46407 9.67255)
(3.36971e-15 -1.50801 10.6582)
(4.91721e-15 -1.46704 11.6335)
(6.67634e-15 -1.33339 12.5223)
(8.392e-15 -1.13395 13.2679)
(1.04017e-14 -0.897841 13.857)
(1.20975e-14 -0.621496 14.2827)
(1.11913e-14 -0.311032 14.5242)
(1.0865e-14 0.0124577 14.5779)
(9.62253e-15 0.332965 14.4072)
(7.87972e-15 0.550291 14.0027)
(2.59792e-15 0.604167 13.4406)
(1.97952e-15 0.526715 12.8302)
(-7.76841e-16 0.413953 12.2494)
(9.9678e-16 0.451817 11.7825)
(-5.30968e-16 0.763396 11.3958)
(-4.43302e-16 1.18368 10.9329)
(2.80096e-16 1.46002 10.3424)
(5.00529e-15 1.51465 9.7)
(4.03018e-15 1.41047 9.08856)
(1.12721e-14 1.23024 8.55119)
(1.40246e-14 1.03323 8.10325)
(2.27379e-14 0.853942 7.7355)
(1.35161e-14 0.700046 7.42903)
(1.53062e-14 0.56255 7.18582)
(2.07085e-14 0.444704 6.96466)
(2.67845e-14 0.326415 6.69376)
(2.04045e-14 0.117242 6.54635)
(1.05469e-14 -0.250009 6.83192)
(-1.03013e-14 -0.649868 7.39289)
(-4.90768e-15 -0.95479 7.92639)
(-3.03501e-15 -1.16783 8.37229)
(-3.4531e-15 -1.33809 8.78674)
(-5.18473e-15 -1.49384 9.21796)
(-4.0346e-15 -1.63477 9.68949)
(-8.06465e-15 -1.74349 10.2162)
(-6.95423e-15 -1.79618 10.803)
(-8.06999e-15 -1.77328 11.4291)
(-5.38124e-15 -1.67295 12.0428)
(-2.32883e-15 -1.52658 12.5868)
(-1.99042e-15 -1.38212 13.0325)
(-4.40819e-16 -1.2807 13.3841)
(-3.73147e-15 -1.25677 13.6679)
(-3.9686e-15 -1.3317 13.9419)
(-6.86606e-15 -1.47975 14.2924)
(-1.03451e-14 -1.61812 14.7688)
(-1.4197e-14 -1.66347 15.3296)
(-1.97384e-14 -1.58942 15.8818)
(-2.35229e-14 -1.41957 16.3508)
(-2.41201e-14 -1.1925 16.7043)
(-2.24904e-14 -0.945367 16.9404)
(-2.18774e-14 -0.710651 17.0802)
(-1.9448e-14 -0.501103 17.169)
(-1.80495e-14 -0.268769 17.289)
(-2.2825e-14 0.112905 17.5611)
(-2.34963e-14 0.758192 17.954)
(-1.66529e-14 1.50685 18.1303)
(-7.10884e-15 2.06267 17.8793)
(8.95357e-16 2.3088 17.299)
(4.24729e-15 2.30751 16.573)
(6.22996e-15 2.1639 15.826)
(5.43108e-15 1.95829 15.1178)
(4.18089e-15 1.73829 14.4699)
(4.74577e-15 1.5284 13.886)
(5.15926e-15 1.33925 13.3607)
(5.02606e-15 1.17505 12.8895)
(3.80699e-15 1.03445 12.4588)
(2.91247e-15 0.920293 12.0783)
(2.21648e-15 0.826926 11.7023)
(1.96162e-15 0.764658 11.4362)
(2.50403e-15 0.750471 11.0055)
(2.80833e-15 0.688812 10.1339)
(1.49925e-15 0.621163 9.34026)
(2.1815e-15 0.574289 8.68142)
(5.73747e-15 0.526006 8.13424)
(5.46762e-15 0.471563 7.67037)
(5.63996e-15 0.421992 7.27457)
(6.3777e-15 0.391216 6.91643)
(-5.58905e-16 0.390366 6.54675)
(8.65845e-16 0.41787 6.11572)
(7.04892e-16 0.491211 5.50377)
(1.7057e-15 0.634434 4.42399)
(3.71516e-15 0.840281 2.63361)
(1.32088e-14 0.998081 0.642554)
(2.10161e-14 0.961763 -0.416501)
(-8.77944e-15 0.645651 -0.886285)
(1.54095e-14 0.103292 -0.964013)
(-1.66898e-14 -0.499269 -0.631385)
(-2.68278e-14 -0.789542 -0.162057)
(-1.91571e-14 -0.953496 0.434888)
(-2.8825e-15 -1.0526 1.10325)
(6.60519e-16 -1.1224 1.80736)
(-1.63191e-15 -1.18013 2.5387)
(7.06621e-16 -1.22895 3.29585)
(-5.19896e-15 -1.26475 4.07058)
(-7.72958e-15 -1.28774 4.84496)
(-5.04454e-15 -1.31092 5.60416)
(-3.85688e-15 -1.35417 6.35004)
(7.45345e-16 -1.43385 7.10218)
(8.81768e-16 -1.54818 7.89519)
(2.08842e-15 -1.65943 8.75387)
(3.40066e-15 -1.7125 9.66092)
(5.20452e-15 -1.66761 10.5609)
(6.629e-15 -1.51619 11.3804)
(9.22564e-15 -1.29153 12.0651)
(1.19036e-14 -1.02872 12.6095)
(1.39633e-14 -0.720867 13.0106)
(1.33408e-14 -0.372881 13.246)
(1.33253e-14 -0.00634863 13.3116)
(1.25158e-14 0.369005 13.1584)
(1.0832e-14 0.631193 12.7618)
(7.56011e-15 0.706979 12.1987)
(8.16022e-15 0.632021 11.5875)
(6.83601e-15 0.505079 10.9935)
(5.50314e-15 0.525006 10.4849)
(2.05457e-15 0.838819 10.0427)
(4.7632e-16 1.27987 9.55765)
(3.52127e-16 1.57262 9.00563)
(4.28288e-16 1.62859 8.44909)
(3.68618e-15 1.51437 7.94339)
(5.91246e-15 1.31807 7.51132)
(9.65556e-15 1.10469 7.15841)
(1.9043e-14 0.912232 6.87051)
(1.73134e-14 0.746408 6.63555)
(2.31914e-14 0.604615 6.44767)
(2.88572e-14 0.496125 6.22512)
(2.63588e-14 0.362127 5.96171)
(1.26653e-14 0.0601019 6.00034)
(3.48604e-15 -0.401053 6.49118)
(-5.99593e-15 -0.811777 7.04197)
(1.56079e-15 -1.09134 7.45141)
(-1.98039e-15 -1.29014 7.75839)
(-4.01945e-15 -1.46269 8.02463)
(-6.4486e-15 -1.6305 8.28635)
(-8.4939e-15 -1.79102 8.59017)
(-8.97668e-15 -1.92593 8.9963)
(-8.55499e-15 -2.00395 9.53198)
(-7.39291e-15 -1.99281 10.1597)
(-4.15871e-15 -1.88246 10.792)
(-5.5121e-16 -1.71047 11.3428)
(1.69315e-15 -1.53618 11.7753)
(2.36506e-15 -1.40851 12.0972)
(-8.12682e-16 -1.37231 12.3401)
(-3.28871e-15 -1.46285 12.5766)
(-6.09762e-15 -1.65313 12.9156)
(-8.52244e-15 -1.83345 13.4099)
(-1.00619e-14 -1.89264 13.9957)
(-1.20161e-14 -1.80049 14.5582)
(-1.72702e-14 -1.59314 15.016)
(-2.2352e-14 -1.32203 15.3377)
(-2.51061e-14 -1.03381 15.522)
(-2.31655e-14 -0.769643 15.5877)
(-1.65025e-14 -0.556196 15.5765)
(-1.15694e-14 -0.36143 15.5629)
(-5.88702e-15 -0.0460266 15.6923)
(-7.76263e-15 0.587306 16.057)
(-1.15434e-14 1.45069 16.3628)
(-1.14515e-14 2.15537 16.2863)
(-7.84518e-15 2.50086 15.8571)
(-3.74468e-15 2.54149 15.2522)
(-2.50388e-15 2.40357 14.6013)
(-2.31238e-15 2.18637 13.9681)
(-1.90262e-15 1.94842 13.3774)
(-1.10758e-15 1.71947 12.8359)
(-9.9657e-16 1.51236 12.341)
(-2.09469e-15 1.33204 11.8906)
(-3.47597e-15 1.17728 11.4738)
(-5.05588e-15 1.05044 11.1011)
(-5.96699e-15 0.945868 10.7297)
(-6.70537e-15 0.871884 10.4626)
(-4.34153e-15 0.843369 10.0264)
(5.00617e-15 0.762415 10.1746)
(3.04321e-15 0.686915 9.4266)
(4.97968e-15 0.632991 8.80573)
(7.26701e-15 0.578538 8.28693)
(4.89634e-15 0.518619 7.84077)
(5.73775e-15 0.465772 7.45053)
(1.31889e-14 0.435609 7.08614)
(1.0582e-14 0.440736 6.70188)
(6.05203e-15 0.485248 6.23567)
(8.35473e-15 0.602643 5.49281)
(1.29632e-15 0.819373 4.12443)
(2.54067e-15 1.07076 2.02227)
(1.45292e-14 1.17416 0.0713555)
(9.36441e-15 1.04173 -0.766452)
(-8.76465e-15 0.672054 -1.14877)
(-1.41239e-14 0.0708842 -1.20317)
(-1.78028e-14 -0.559648 -0.883819)
(-2.91512e-14 -0.87213 -0.442546)
(-1.57459e-14 -1.05251 0.0989327)
(1.78947e-15 -1.16375 0.707788)
(-1.37698e-15 -1.2427 1.35859)
(-4.1381e-15 -1.309 2.04213)
(-2.6695e-15 -1.36566 2.75824)
(-1.40297e-14 -1.40679 3.49851)
(-8.12369e-15 -1.43177 4.24243)
(-3.66735e-15 -1.4553 4.9701)
(9.80552e-16 -1.50044 5.67668)
(-1.00273e-15 -1.58701 6.37492)
(9.90549e-16 -1.71479 7.09719)
(1.87298e-15 -1.84149 7.87286)
(1.64757e-15 -1.90402 8.69286)
(3.88029e-15 -1.85646 9.51012)
(4.77245e-15 -1.68889 10.254)
(7.98364e-15 -1.44164 10.8714)
(1.18174e-14 -1.1564 11.3655)
(1.44827e-14 -0.821671 11.7381)
(1.52093e-14 -0.440108 11.9652)
(1.62243e-14 -0.0332876 12.0438)
(1.5655e-14 0.398399 11.9137)
(1.42511e-14 0.707416 11.5316)
(1.30395e-14 0.805521 10.9733)
(1.2694e-14 0.734133 10.3697)
(1.0029e-14 0.597473 9.77568)
(7.93444e-15 0.60582 9.2357)
(2.86519e-15 0.921468 8.7351)
(1.13475e-15 1.37234 8.21611)
(6.36908e-16 1.66779 7.69096)
(3.93714e-16 1.71611 7.21107)
(7.55143e-16 1.58891 6.80437)
(3.78796e-15 1.37739 6.47288)
(7.15659e-15 1.15046 6.21196)
(1.01014e-14 0.947325 6.00552)
(1.35119e-14 0.773785 5.84743)
(1.81609e-14 0.637481 5.70095)
(1.99077e-14 0.539704 5.46559)
(1.18943e-14 0.36365 5.2936)
(-5.31988e-15 -0.0551771 5.59925)
(-8.81034e-16 -0.565453 6.18366)
(-4.76072e-15 -0.945157 6.62169)
(-6.842e-15 -1.18914 6.86882)
(-8.0998e-15 -1.37057 6.99437)
(-6.36644e-15 -1.53891 7.04167)
(-8.82721e-15 -1.71815 7.08338)
(-1.01265e-14 -1.91354 7.25051)
(-1.32853e-14 -2.10044 7.64349)
(-6.70697e-15 -2.22471 8.25061)
(-6.07247e-15 -2.23212 8.96913)
(-1.36611e-15 -2.10599 9.66494)
(1.89388e-15 -1.89842 10.2356)
(2.41454e-15 -1.6862 10.6539)
(-8.61514e-16 -1.52715 10.9445)
(-3.54953e-15 -1.47806 11.1511)
(-4.91956e-15 -1.59011 11.3577)
(-5.15548e-15 -1.83166 11.6813)
(5.15658e-16 -2.0583 12.17)
(1.94213e-15 -2.12865 12.7493)
(-6.52863e-15 -2.01265 13.2995)
(-1.44307e-14 -1.76213 13.7409)
(-2.10128e-14 -1.44124 14.0419)
(-2.57029e-14 -1.10517 14.1958)
(-2.58444e-14 -0.802759 14.2147)
(-2.23671e-14 -0.573056 14.1333)
(-1.86253e-14 -0.40472 14.0136)
(-1.68629e-14 -0.163869 13.9951)
(-9.67641e-15 0.408968 14.2525)
(-3.35077e-15 1.34412 14.5958)
(-4.54162e-15 2.1864 14.6401)
(-7.36862e-15 2.63562 14.339)
(-7.84243e-15 2.72607 13.8498)
(-7.7509e-15 2.6019 13.2982)
(-8.26607e-15 2.38059 12.7468)
(-7.67706e-15 2.13136 12.2211)
(-6.39828e-15 1.88904 11.7296)
(-7.05802e-15 1.66863 11.2722)
(-7.76612e-15 1.47591 10.8494)
(-9.44577e-15 1.30986 10.4526)
(-1.16568e-14 1.17264 10.0938)
(-1.32127e-14 1.05857 9.73275)
(-1.44972e-14 0.975513 9.47098)
(-1.16966e-14 0.93273 9.03593)
(1.73236e-15 0.828534 10.225)
(2.35061e-15 0.74693 9.51344)
(2.81978e-15 0.688137 8.91978)
(4.56358e-15 0.628893 8.41736)
(2.87431e-15 0.564523 7.97718)
(4.70801e-15 0.509285 7.58275)
(5.65744e-16 0.480512 7.20649)
(5.1595e-15 0.493488 6.8027)
(5.73635e-15 0.562291 6.27318)
(6.521e-15 0.737055 5.33365)
(3.01557e-15 1.03381 3.64729)
(7.01513e-15 1.30407 1.32294)
(1.18966e-14 1.32789 -0.403047)
(6.62781e-15 1.10436 -1.07518)
(-1.16088e-14 0.69211 -1.40208)
(-1.54917e-14 0.0391272 -1.43725)
(-1.86475e-14 -0.617757 -1.13181)
(-2.65764e-14 -0.950498 -0.714214)
(-1.36682e-14 -1.14448 -0.212415)
(-9.12139e-16 -1.26687 0.339179)
(-3.63151e-15 -1.35593 0.937212)
(-6.20336e-15 -1.43171 1.57279)
(-5.86823e-15 -1.4973 2.24705)
(-8.48227e-15 -1.54472 2.95231)
(-5.02562e-15 -1.57202 3.66651)