/*--------------------------------*- C++ -*----------------------------------*\
| =========                 |                                                 |
| \\      /  F ield         | OpenFOAM: The Open Source CFD Toolbox           |
|  \\    /   O peration     | Version:  4.1                                   |
|   \\  /    A nd           | Web:      www.OpenFOAM.org                      |
|    \\/     M anipulation  |                                                 |
\*---------------------------------------------------------------------------*/
FoamFile
{
    version     2.0;
    format      ascii;
    class       volScalarField;
    location    "1700";
    object      nut;
}
// * * * * * * * * * * * * * * * * * * * * * * * * * * * * * * * * * * * * * //

dimensions      [0 2 -1 0 0 0 0];

internalField   nonuniform List<scalar> 
6820
(
4.39385e-05
4.87747e-05
5.31526e-05
5.70915e-05
6.05796e-05
6.36103e-05
6.61884e-05
6.83326e-05
7.00738e-05
7.14511e-05
7.25081e-05
7.32892e-05
7.3837e-05
7.41914e-05
7.43879e-05
7.44577e-05
7.44278e-05
7.43206e-05
7.41551e-05
7.39467e-05
7.3708e-05
7.34491e-05
7.31781e-05
7.29015e-05
7.26241e-05
7.23499e-05
7.20819e-05
7.18226e-05
7.15715e-05
7.13414e-05
7.10761e-05
7.10592e-05
6.98995e-05
0.00046941
0.000265606
0.000193508
0.000152487
0.000125527
0.000107012
9.39993e-05
8.46683e-05
7.7868e-05
7.28566e-05
6.91405e-05
6.63822e-05
6.4345e-05
6.286e-05
6.18041e-05
6.10864e-05
6.06383e-05
6.04078e-05
6.03544e-05
6.04464e-05
6.06585e-05
6.09703e-05
6.13654e-05
6.18299e-05
6.23524e-05
6.29232e-05
6.35341e-05
6.41784e-05
6.48491e-05
6.55437e-05
6.62513e-05
6.69791e-05
6.76808e-05
0.000918058
0.000718795
0.000582223
0.000488778
0.00042158
0.000370785
0.000331008
0.000299115
0.000273073
0.000251474
0.00023332
0.000217887
0.000204638
0.000193169
0.000183167
0.000174389
0.000166642
0.000159772
0.000153652
0.000148182
0.000143274
0.00013886
0.00013488
0.000131283
0.000128026
0.000125074
0.000122393
0.000119957
0.000117742
0.000115725
0.00011389
0.000112225
0.000110658
0.00100704
0.000950024
0.000874018
0.000798213
0.000730805
0.000673128
0.000624146
0.000582408
0.000546591
0.000515599
0.00048855
0.000464749
0.000443645
0.000424802
0.00040787
0.000392571
0.000378677
0.000366
0.000354388
0.00034371
0.000333858
0.00032474
0.000316277
0.0003084
0.000301051
0.000294179
0.000287739
0.000281691
0.000276
0.000270635
0.000265569
0.000260773
0.000256221
0.00101631
0.001006
0.000983563
0.000951519
0.000914347
0.000875791
0.000838168
0.000802653
0.000769714
0.000739438
0.000711722
0.000686378
0.000663192
0.000641951
0.000622452
0.000604513
0.000587969
0.000572677
0.000558508
0.00054535
0.000533104
0.000521682
0.000511007
0.000501011
0.000491634
0.000482822
0.000474527
0.000466707
0.000459325
0.000452347
0.000445743
0.000439488
0.000433556
0.00101678
0.00101508
0.00101017
0.0010009
0.00098729
0.000970152
0.000950606
0.000929706
0.000908287
0.000886944
0.000866075
0.000845923
0.000826628
0.000808259
0.000790837
0.000774352
0.000758777
0.000744075
0.000730199
0.000717105
0.000704744
0.00069307
0.00068204
0.000671611
0.000661744
0.000652402
0.000643553
0.000635164
0.000627209
0.00061966
0.000612497
0.0006057
0.000599246
0.00101672
0.00101615
0.001015
0.00101271
0.00100877
0.00100297
0.000995342
0.000986101
0.000975569
0.000964085
0.000951964
0.000939473
0.000926828
0.000914198
0.00090171
0.000889458
0.000877506
0.000865902
0.000854673
0.000843837
0.000833402
0.000823369
0.000813735
0.000804492
0.000795631
0.000787142
0.000779012
0.000771229
0.000763782
0.000756659
0.000749849
0.000743343
0.000737127
0.0010167
0.00101622
0.00101568
0.00101493
0.00101376
0.00101199
0.00100945
0.00100608
0.00100186
0.000996852
0.000991145
0.00098485
0.000978082
0.000970952
0.000963562
0.000956001
0.000948345
0.000940658
0.000932995
0.000925397
0.000917899
0.000910529
0.000903307
0.000896249
0.000889369
0.000882674
0.00087617
0.000869862
0.000863752
0.000857842
0.000852131
0.00084662
0.000841306
0.0010167
0.00101622
0.00101574
0.00101525
0.00101469
0.001014
0.00101308
0.00101187
0.00101031
0.00100837
0.00100603
0.0010033
0.0010002
0.000996763
0.000993031
0.000989044
0.000984846
0.000980478
0.000975978
0.000971382
0.00096672
0.000962021
0.00095731
0.000952607
0.000947932
0.000943299
0.000938723
0.000934215
0.000929785
0.00092544
0.000921188
0.000917034
0.000912983
0.0010167
0.00101621
0.00101574
0.00101529
0.00101483
0.00101436
0.00101385
0.00101326
0.00101258
0.00101176
0.00101079
0.00100964
0.00100831
0.00100679
0.00100508
0.0010032
0.00100114
0.000998935
0.000996592
0.000994128
0.000991561
0.000988907
0.000986182
0.000983401
0.000980579
0.000977728
0.000974859
0.000971985
0.000969115
0.000966258
0.000963422
0.000960613
0.000957839
0.0010167
0.00101621
0.00101574
0.00101529
0.00101484
0.00101441
0.00101398
0.00101354
0.00101308
0.0010126
0.00101208
0.0010115
0.00101085
0.00101013
0.00100932
0.00100843
0.00100745
0.00100639
0.00100524
0.001004
0.00100269
0.00100131
0.000999857
0.000998351
0.000996794
0.000995193
0.000993554
0.000991886
0.000990193
0.000988483
0.000986761
0.000985032
0.000983302
0.0010167
0.00101621
0.00101574
0.00101528
0.00101484
0.00101441
0.00101399
0.00101358
0.00101317
0.00101277
0.00101237
0.00101195
0.00101153
0.00101108
0.00101061
0.00101011
0.00100958
0.00100901
0.0010084
0.00100776
0.00100707
0.00100635
0.00100558
0.00100479
0.00100395
0.00100309
0.00100219
0.00100127
0.00100033
0.000999364
0.000998381
0.000997383
0.000996373
0.0010167
0.00101621
0.00101574
0.00101528
0.00101484
0.00101441
0.00101399
0.00101358
0.00101318
0.0010128
0.00101242
0.00101204
0.00101167
0.00101131
0.00101094
0.00101057
0.00101019
0.0010098
0.00100941
0.001009
0.00100858
0.00100815
0.0010077
0.00100724
0.00100676
0.00100626
0.00100575
0.00100523
0.00100469
0.00100414
0.00100357
0.001003
0.00100242
0.0010167
0.00101621
0.00101574
0.00101528
0.00101484
0.0010144
0.00101398
0.00101358
0.00101318
0.00101279
0.00101242
0.00101205
0.0010117
0.00101135
0.00101101
0.00101067
0.00101034
0.00101001
0.00100968
0.00100936
0.00100904
0.00100871
0.00100838
0.00100805
0.00100772
0.00100739
0.00100705
0.0010067
0.00100636
0.00100601
0.00100565
0.00100529
0.00100493
0.0010167
0.00101621
0.00101574
0.00101528
0.00101484
0.0010144
0.00101398
0.00101357
0.00101318
0.00101279
0.00101242
0.00101205
0.0010117
0.00101135
0.00101101
0.00101068
0.00101036
0.00101005
0.00100974
0.00100944
0.00100915
0.00100886
0.00100857
0.00100829
0.00100801
0.00100773
0.00100746
0.00100719
0.00100692
0.00100665
0.00100638
0.00100612
0.00100585
0.0010167
0.00101621
0.00101574
0.00101528
0.00101483
0.0010144
0.00101398
0.00101357
0.00101317
0.00101279
0.00101241
0.00101205
0.00101169
0.00101135
0.00101101
0.00101068
0.00101036
0.00101005
0.00100975
0.00100945
0.00100917
0.00100888
0.00100861
0.00100834
0.00100808
0.00100782
0.00100757
0.00100732
0.00100708
0.00100684
0.00100661
0.00100638
0.00100615
0.0010167
0.00101621
0.00101574
0.00101528
0.00101483
0.0010144
0.00101398
0.00101357
0.00101317
0.00101278
0.00101241
0.00101204
0.00101169
0.00101134
0.001011
0.00101068
0.00101036
0.00101005
0.00100974
0.00100945
0.00100916
0.00100888
0.00100861
0.00100835
0.00100809
0.00100783
0.00100759
0.00100735
0.00100711
0.00100688
0.00100666
0.00100644
0.00100623
0.0010167
0.00101621
0.00101574
0.00101528
0.00101483
0.0010144
0.00101398
0.00101357
0.00101317
0.00101278
0.0010124
0.00101204
0.00101168
0.00101134
0.001011
0.00101067
0.00101035
0.00101004
0.00100974
0.00100944
0.00100915
0.00100887
0.0010086
0.00100834
0.00100808
0.00100783
0.00100758
0.00100734
0.00100711
0.00100688
0.00100666
0.00100644
0.00100623
0.0010167
0.00101621
0.00101574
0.00101528
0.00101483
0.0010144
0.00101398
0.00101357
0.00101317
0.00101278
0.0010124
0.00101204
0.00101168
0.00101133
0.00101099
0.00101066
0.00101034
0.00101003
0.00100973
0.00100943
0.00100915
0.00100887
0.00100859
0.00100833
0.00100807
0.00100782
0.00100757
0.00100733
0.0010071
0.00100687
0.00100665
0.00100643
0.00100622
0.0010167
0.00101621
0.00101574
0.00101528
0.00101483
0.0010144
0.00101397
0.00101356
0.00101317
0.00101278
0.0010124
0.00101203
0.00101168
0.00101133
0.00101099
0.00101066
0.00101034
0.00101003
0.00100972
0.00100943
0.00100914
0.00100886
0.00100859
0.00100832
0.00100806
0.00100781
0.00100756
0.00100732
0.00100709
0.00100686
0.00100664
0.00100642
0.00100621
0.0010167
0.00101621
0.00101574
0.00101528
0.00101483
0.0010144
0.00101397
0.00101356
0.00101316
0.00101278
0.0010124
0.00101203
0.00101167
0.00101132
0.00101099
0.00101066
0.00101034
0.00101002
0.00100972
0.00100942
0.00100913
0.00100885
0.00100858
0.00100831
0.00100805
0.0010078
0.00100755
0.00100731
0.00100708
0.00100685
0.00100662
0.00100641
0.00100619
0.0010167
0.00101621
0.00101574
0.00101528
0.00101483
0.00101439
0.00101397
0.00101356
0.00101316
0.00101277
0.0010124
0.00101203
0.00101167
0.00101132
0.00101098
0.00101065
0.00101033
0.00101002
0.00100971
0.00100942
0.00100913
0.00100885
0.00100857
0.0010083
0.00100804
0.00100779
0.00100754
0.0010073
0.00100706
0.00100684
0.00100661
0.00100639
0.00100618
0.0010167
0.00101621
0.00101574
0.00101528
0.00101483
0.00101439
0.00101397
0.00101356
0.00101316
0.00101277
0.00101239
0.00101203
0.00101167
0.00101132
0.00101098
0.00101065
0.00101033
0.00101001
0.00100971
0.00100941
0.00100912
0.00100884
0.00100856
0.0010083
0.00100804
0.00100778
0.00100753
0.00100729
0.00100706
0.00100683
0.0010066
0.00100638
0.00100617
0.0010167
0.00101621
0.00101574
0.00101528
0.00101483
0.00101439
0.00101397
0.00101356
0.00101316
0.00101277
0.00101239
0.00101202
0.00101167
0.00101132
0.00101098
0.00101065
0.00101032
0.00101001
0.00100971
0.00100941
0.00100912
0.00100883
0.00100856
0.00100829
0.00100803
0.00100777
0.00100753
0.00100728
0.00100705
0.00100682
0.00100659
0.00100637
0.00100616
0.0010167
0.00101621
0.00101574
0.00101528
0.00101483
0.00101439
0.00101397
0.00101356
0.00101316
0.00101277
0.00101239
0.00101202
0.00101166
0.00101131
0.00101097
0.00101064
0.00101032
0.00101001
0.0010097
0.0010094
0.00100911
0.00100883
0.00100855
0.00100829
0.00100802
0.00100777
0.00100752
0.00100728
0.00100704
0.00100681
0.00100658
0.00100636
0.00100615
0.0010167
0.00101621
0.00101574
0.00101528
0.00101483
0.00101439
0.00101397
0.00101356
0.00101316
0.00101277
0.00101239
0.00101202
0.00101166
0.00101131
0.00101097
0.00101064
0.00101032
0.00101
0.0010097
0.0010094
0.00100911
0.00100883
0.00100855
0.00100828
0.00100802
0.00100776
0.00100751
0.00100727
0.00100703
0.0010068
0.00100657
0.00100635
0.00100614
0.0010167
0.00101621
0.00101574
0.00101528
0.00101483
0.00101439
0.00101397
0.00101356
0.00101316
0.00101277
0.00101239
0.00101202
0.00101166
0.00101131
0.00101097
0.00101064
0.00101032
0.00101
0.0010097
0.0010094
0.00100911
0.00100882
0.00100855
0.00100828
0.00100801
0.00100776
0.00100751
0.00100726
0.00100703
0.00100679
0.00100657
0.00100635
0.00100613
0.0010167
0.00101621
0.00101574
0.00101528
0.00101483
0.00101439
0.00101397
0.00101356
0.00101316
0.00101277
0.00101239
0.00101202
0.00101166
0.00101131
0.00101097
0.00101064
0.00101032
0.00101
0.00100969
0.00100939
0.0010091
0.00100882
0.00100854
0.00100827
0.00100801
0.00100775
0.0010075
0.00100726
0.00100702
0.00100679
0.00100656
0.00100634
0.00100612
0.0010167
0.00101621
0.00101574
0.00101528
0.00101483
0.00101439
0.00101397
0.00101356
0.00101316
0.00101277
0.00101239
0.00101202
0.00101166
0.00101131
0.00101097
0.00101064
0.00101031
0.00101
0.00100969
0.00100939
0.0010091
0.00100882
0.00100854
0.00100827
0.00100801
0.00100775
0.0010075
0.00100725
0.00100702
0.00100678
0.00100656
0.00100633
0.00100612
0.0010167
0.00101621
0.00101574
0.00101528
0.00101483
0.00101439
0.00101397
0.00101356
0.00101316
0.00101277
0.00101239
0.00101202
0.00101166
0.00101131
0.00101097
0.00101064
0.00101031
0.00101
0.00100969
0.00100939
0.0010091
0.00100881
0.00100854
0.00100827
0.001008
0.00100775
0.00100749
0.00100725
0.00100701
0.00100678
0.00100655
0.00100633
0.00100611
0.0010167
0.00101621
0.00101574
0.00101528
0.00101483
0.00101439
0.00101397
0.00101356
0.00101316
0.00101277
0.00101239
0.00101202
0.00101166
0.00101131
0.00101097
0.00101064
0.00101031
0.00101
0.00100969
0.00100939
0.0010091
0.00100881
0.00100853
0.00100826
0.001008
0.00100774
0.00100749
0.00100724
0.001007
0.00100677
0.00100654
0.00100632
0.0010061
0.0010167
0.00101621
0.00101574
0.00101528
0.00101483
0.00101439
0.00101397
0.00101356
0.00101316
0.00101277
0.00101239
0.00101202
0.00101166
0.00101131
0.00101097
0.00101064
0.00101031
0.00101
0.00100969
0.00100939
0.00100909
0.00100881
0.00100853
0.00100825
0.00100798
0.00100772
0.00100747
0.00100722
0.00100697
0.00100673
0.0010065
0.00100627
0.00100604
0.0010167
0.00101621
0.00101574
0.00101528
0.00101483
0.00101439
0.00101397
0.00101356
0.00101316
0.00101277
0.00101239
0.00101202
0.00101166
0.00101131
0.00101096
0.00101063
0.0010103
0.00100997
0.00100966
0.00100935
0.00100905
0.00100875
0.00100845
0.00100817
0.00100788
0.0010076
0.00100732
0.00100705
0.00100678
0.00100651
0.00100625
0.00100599
0.00100573
0.0010167
0.00101621
0.00101574
0.00101528
0.00101483
0.00101439
0.00101397
0.00101356
0.00101316
0.00101276
0.00101237
0.00101199
0.00101162
0.00101125
0.00101088
0.00101051
0.00101015
0.00100979
0.00100942
0.00100906
0.00100869
0.00100833
0.00100796
0.00100759
0.00100721
0.00100684
0.00100646
0.00100608
0.00100569
0.00100531
0.00100492
0.00100453
0.00100413
0.0010167
0.00101621
0.00101574
0.00101527
0.00101482
0.00101438
0.00101394
0.0010135
0.00101305
0.00101259
0.00101213
0.00101165
0.00101115
0.00101063
0.00101008
0.00100952
0.00100893
0.00100832
0.00100769
0.00100703
0.00100635
0.00100565
0.00100493
0.00100419
0.00100343
0.00100265
0.00100186
0.00100105
0.00100023
0.000999396
0.000998554
0.000997702
0.000996844
0.0010167
0.00101621
0.00101571
0.00101519
0.00101464
0.00101403
0.00101334
0.00101256
0.00101168
0.00101069
0.00100958
0.00100837
0.00100706
0.00100563
0.00100411
0.0010025
0.0010008
0.000999029
0.000997185
0.00099528
0.00099332
0.000991313
0.000989266
0.000987185
0.000985077
0.000982947
0.000980801
0.000978645
0.000976482
0.000974316
0.000972153
0.000969995
0.000967846
0.00101669
0.00101596
0.00101486
0.00101328
0.00101118
0.00100855
0.00100542
0.00100182
0.000997785
0.000993377
0.000988643
0.000983636
0.000978404
0.000972993
0.000967446
0.0009618
0.000956089
0.000950342
0.000944585
0.00093884
0.000933125
0.000927458
0.000921851
0.000916315
0.00091086
0.000905493
0.00090022
0.000895046
0.000889975
0.000885008
0.000880147
0.000875395
0.00087075
0.00101524
0.00100708
0.00099496
0.000980623
0.000964776
0.000947876
0.000930305
0.000912411
0.000894487
0.000876761
0.000859397
0.000842509
0.000826171
0.000810426
0.000795297
0.000780791
0.000766901
0.000753616
0.000740916
0.000728781
0.000717187
0.000706109
0.000695524
0.000685406
0.000675732
0.00066648
0.000657627
0.000649152
0.000641036
0.000633259
0.000625804
0.000618655
0.000611793
0.000934352
0.00081341
0.000726844
0.000658858
0.000603206
0.000556872
0.000517958
0.000484986
0.000456769
0.000432384
0.000411125
0.000392442
0.000375907
0.00036118
0.00034799
0.000336116
0.000325379
0.000315631
0.00030675
0.000298632
0.000291189
0.000284347
0.000278042
0.000272218
0.000266828
0.000261829
0.000257185
0.000252864
0.000248836
0.000245076
0.000241562
0.000238273
0.00023519
0.000125479
0.000128845
0.000132086
0.000135185
0.000138141
0.000140961
0.00014365
0.000146214
0.000148657
0.000150984
0.0001532
0.000155308
0.000157312
0.000159218
0.000161029
0.000162748
0.000164381
0.000165931
0.000167401
0.000168796
0.000170118
0.000171372
0.000172561
0.000173687
0.000174754
0.000175765
0.000176722
0.000177629
0.000178488
0.000179301
0.000180071
0.0001808
0.00018149
8.04963e-05
9.56947e-05
0.000113544
0.000134785
0.000159572
0.000187139
0.000216182
0.000245378
0.000273754
0.000300908
0.000326946
0.000352262
0.000377304
0.000402407
0.000427726
0.000453256
0.000478881
0.00050445
0.000529833
0.000554959
0.000579823
0.000604477
0.000628998
0.000653461
0.000677924
0.000702421
0.000726977
0.000751614
0.000776355
0.000801228
0.000826257
0.000851466
0.000876875
0.000902492
0.000928302
0.000954266
0.000980317
0.00100637
0.00103233
0.0010581
0.00108354
0.00110854
0.00113295
0.00115664
0.00117948
0.00120132
0.00122206
0.00124159
0.00125981
0.00127666
0.0012921
0.00130612
0.00131872
0.00132997
0.00133993
0.00134871
0.00135645
0.0013633
0.00136945
0.00137509
0.00138044
0.00138572
0.00139115
0.00139694
0.00140331
0.00141045
0.00141854
0.00142773
0.00143815
0.0014499
0.00146305
0.00147766
0.00149374
0.0015113
0.00153029
0.00155069
0.0015724
0.00159535
0.00161944
0.00164454
0.00167053
0.00169728
0.00172465
0.00175248
0.00178063
0.00180896
0.00183731
0.00186554
0.00189351
0.00192109
0.00194813
0.00197451
0.00200011
0.00202479
0.00204846
0.00207098
0.00209221
0.00211232
0.00212916
0.00215549
6.88006e-05
7.06334e-05
7.33898e-05
7.75069e-05
8.35129e-05
9.19458e-05
0.000103267
0.000117778
0.000135544
0.00015637
0.000179828
0.000205324
0.00023218
0.00025974
0.000287452
0.000314935
0.000341986
0.000368556
0.000394699
0.000420522
0.000446128
0.000471588
0.000496914
0.000522069
0.000546985
0.000571595
0.000595862
0.000619789
0.000643407
0.000666765
0.000689904
0.000712865
0.00073568
0.000758371
0.000780942
0.000803372
0.00082562
0.000847634
0.000869359
0.000890732
0.000911683
0.000932129
0.000951976
0.000971127
0.000989486
0.00100696
0.00102347
0.00103895
0.00105333
0.00106659
0.0010787
0.00108968
0.00109956
0.00110842
0.00111635
0.00112346
0.0011299
0.00113583
0.00114143
0.00114691
0.00115245
0.00115827
0.00116456
0.00117151
0.00117931
0.00118812
0.00119807
0.00120928
0.00122185
0.00123585
0.00125133
0.00126832
0.00128681
0.00130679
0.00132824
0.00135109
0.00137528
0.00140074
0.00142735
0.00145503
0.00148365
0.00151307
0.00154318
0.00157382
0.00160485
0.00163612
0.00166749
0.0016988
0.00172991
0.00176067
0.00179095
0.0018206
0.00184949
0.00187749
0.00190447
0.0019303
0.00195484
0.00197826
0.00199821
0.00202888
0.000108996
0.000107177
0.000105283
0.000103565
0.000102065
0.000100843
0.000100026
9.9821e-05
0.000100524
0.000102505
0.000106183
0.000111975
0.000120246
0.00013127
0.0001452
0.000162041
0.00018164
0.000203684
0.000227726
0.000253225
0.000279614
0.000306369
0.00033306
0.000359385
0.000385167
0.00041034
0.000434916
0.000458946
0.000482487
0.000505572
0.000528207
0.000550379
0.000572076
0.000593293
0.000614028
0.000634278
0.00065403
0.000673268
0.000691974
0.00071013
0.000727708
0.000744675
0.000760983
0.000776583
0.000791425
0.000805465
0.000818667
0.000831006
0.000842469
0.000853062
0.000862805
0.000871745
0.000879947
0.0008875
0.000894515
0.000901122
0.000907465
0.000913706
0.000920012
0.000926554
0.000933503
0.000941024
0.000949271
0.000958384
0.000968486
0.000979684
0.000992065
0.0010057
0.00102063
0.00103691
0.00105455
0.00107357
0.00109396
0.00111571
0.0011388
0.00116321
0.00118888
0.00121578
0.00124382
0.00127294
0.00130304
0.00133403
0.00136578
0.00139817
0.00143108
0.00146435
0.00149785
0.00153143
0.00156493
0.0015982
0.00163109
0.00166346
0.00169516
0.00172604
0.00175596
0.00178479
0.00181235
0.00183886
0.00186173
0.0018966
0.000251128
0.000245514
0.000240005
0.000234582
0.000229404
0.000224405
0.000219473
0.000214486
0.000209333
0.00020393
0.000198249
0.000192343
0.000186373
0.000180613
0.000175447
0.000171332
0.000168754
0.00016817
0.000169971
0.000174439
0.000181729
0.000191857
0.000204698
0.000219995
0.000237384
0.000256424
0.000276652
0.000297621
0.000318936
0.000340276
0.000361395
0.000382123
0.000402357
0.000422046
0.000441169
0.000459715
0.000477673
0.000495025
0.000511756
0.000527852
0.000543304
0.000558104
0.000572242
0.000585712
0.000598509
0.000610637
0.000622109
0.000632948
0.00064319
0.000652881
0.000662084
0.000670873
0.000679339
0.000687585
0.000695724
0.000703878
0.000712173
0.000720733
0.000729681
0.00073913
0.000749181
0.000759922
0.000771425
0.000783748
0.000796933
0.000811011
0.000826004
0.000841927
0.000858793
0.000876614
0.000895408
0.000915191
0.000935985
0.000957816
0.000980708
0.00100468
0.00102976
0.00105595
0.00108324
0.00111162
0.00114106
0.00117149
0.00120286
0.00123506
0.00126799
0.00130153
0.00133555
0.00136989
0.0014044
0.00143892
0.00147329
0.00150735
0.00154094
0.00157388
0.00160602
0.00163721
0.00166724
0.00169636
0.00172172
0.0017604
0.000427008
0.000419806
0.000412781
0.000405914
0.000399294
0.000392915
0.000386736
0.000380695
0.000374709
0.000368672
0.000362464
0.000355952
0.000349
0.000341484
0.000333309
0.00032443
0.00031488
0.000304782
0.000294366
0.000283967
0.000274
0.000264923
0.000257188
0.000251196
0.000247261
0.00024559
0.000246275
0.000249302
0.000254554
0.000261834
0.000270882
0.000281399
0.000293081
0.000305635
0.000318793
0.000332324
0.000346033
0.000359761
0.000373385
0.00038682
0.000400008
0.000412913
0.000425518
0.000437817
0.000449817
0.000461538
0.000473011
0.000484278
0.000495392
0.000506413
0.000517409
0.000528453
0.000539621
0.000550986
0.000562622
0.000574592
0.00058695
0.000599739
0.000612985
0.000626699
0.000640879
0.000655509
0.000670563
0.000686009
0.000701811
0.00071794
0.000734368
0.000751084
0.000768088
0.000785395
0.000803041
0.000821078
0.000839573
0.00085861
0.000878282
0.000898689
0.000919933
0.00094211
0.000965308
0.0009896
0.00101504
0.00104165
0.00106943
0.00109835
0.00112836
0.00115937
0.00119126
0.00122391
0.00125716
0.00129085
0.0013248
0.00135882
0.00139272
0.00142633
0.00145944
0.00149187
0.00152339
0.00155426
0.00158137
0.00162301
0.000592136
0.000584334
0.000576748
0.000569369
0.00056222
0.000555301
0.000548599
0.000542096
0.000535762
0.000529558
0.000523432
0.000517321
0.000511149
0.000504831
0.000498273
0.000491377
0.000484043
0.000476181
0.000467719
0.000458614
0.000448868
0.000438534
0.000427726
0.000416617
0.000405436
0.000394453
0.000383965
0.000374274
0.000365659
0.000358359
0.000352552
0.000348354
0.000345815
0.000344931
0.000345646
0.000347867
0.00035147
0.000356317
0.000362268
0.000369187
0.000376957
0.000385473
0.000394647
0.000404412
0.000414716
0.000425523
0.000436812
0.00044857
0.000460795
0.000473486
0.000486643
0.000500266
0.000514345
0.000528865
0.000543801
0.000559116
0.000574761
0.000590677
0.000606797
0.000623044
0.000639341
0.000655608
0.000671768
0.000687754
0.000703505
0.000718976
0.000734137
0.000748974
0.000763495
0.000777725
0.000791713
0.000805527
0.000819256
0.000833009
0.000846914
0.000861114
0.000875764
0.000891028
0.000907073
0.000924058
0.000942136
0.000961437
0.000982067
0.0010041
0.00102757
0.00105247
0.00107877
0.00110638
0.00113518
0.00116502
0.00119573
0.00122711
0.00125896
0.00129106
0.00132317
0.00135509
0.00138652
0.00141773
0.0014454
0.00148852
0.000730233
0.000722623
0.000715185
0.000707923
0.000700846
0.000693955
0.000687245
0.000680711
0.000674341
0.000668124
0.000662042
0.000656073
0.000650191
0.000644363
0.000638554
0.000632721
0.000626821
0.000620803
0.000614616
0.00060821
0.000601536
0.000594558
0.000587249
0.000579603
0.000571634
0.000563385
0.000554928
0.000546366
0.000537827
0.000529461
0.000521433
0.000513911
0.000507062
0.000501043
0.000495994
0.000492028
0.00048923
0.000487658
0.000487344
0.000488298
0.00049051
0.000493955
0.000498596
0.000504387
0.000511275
0.000519206
0.000528121
0.000537958
0.000548653
0.000560137
0.000572339
0.00058518
0.000598578
0.000612445
0.000626687
0.000641209
0.000655911
0.000670694
0.000685461
0.000700117
0.000714574
0.000728752
0.000742579
0.000755994
0.00076895
0.000781408
0.000793346
0.000804753
0.00081563
0.000825995
0.000835876
0.000845316
0.000854374
0.000863122
0.00087165
0.000880065
0.000888492
0.000897074
0.000905972
0.000915362
0.000925433
0.000936377
0.000948386
0.000961639
0.000976296
0.000992485
0.0010103
0.00102977
0.00105091
0.00107364
0.00109788
0.00112348
0.00115025
0.00117797
0.00120642
0.00123535
0.00126444
0.00129391
0.00132041
0.00136267
0.00083535
0.000828704
0.000822143
0.000815674
0.00080931
0.000803055
0.000796911
0.00079088
0.00078496
0.000779151
0.000773448
0.000767846
0.000762338
0.000756917
0.000751574
0.000746299
0.00074108
0.000735906
0.000730761
0.000725632
0.000720501
0.000715352
0.000710171
0.000704945
0.000699666
0.000694332
0.00068895
0.000683541
0.000678135
0.000672778
0.000667528
0.000662455
0.000657643
0.000653181
0.000649167
0.000645695
0.000642858
0.000640741
0.000639421
0.000638959
0.000639408
0.0006408
0.000643156
0.000646479
0.000650759
0.000655972
0.000662081
0.000669038
0.000676785
0.000685255
0.000694372
0.000704057
0.000714221
0.000724776
0.00073563
0.000746691
0.00075787
0.000769079
0.000780237
0.000791267
0.000802102
0.00081268
0.00082295
0.000832868
0.000842402
0.000851526
0.000860223
0.000868484
0.000876307
0.000883698
0.000890668
0.000897233
0.000903417
0.00090925
0.000914767
0.000920013
0.000925042
0.000929921
0.000934731
0.000939572
0.000944563
0.000949843
0.000955576
0.000961941
0.000969132
0.000977347
0.000986782
0.000997612
0.00100999
0.00102401
0.00103974
0.00105718
0.00107627
0.00109691
0.00111893
0.00114214
0.00116624
0.00119143
0.00121459
0.00125279
0.000908385
0.000903187
0.000897986
0.000892794
0.000887622
0.000882476
0.000877365
0.000872294
0.000867266
0.000862286
0.000857357
0.000852479
0.000847656
0.000842888
0.000838177
0.000833526
0.000828937
0.000824412
0.000819955
0.000815568
0.000811254
0.000807017
0.000802859
0.000798783
0.000794792
0.000790891
0.000787085
0.000783382
0.000779796
0.000776343
0.000773044
0.000769925
0.000767021
0.000764368
0.000762012
0.000759998
0.000758376
0.000757195
0.0007565
0.000756337
0.000756742
0.000757749
0.000759378
0.000761645
0.000764553
0.000768095
0.000772254
0.000777003
0.000782309
0.000788126
0.000794404
0.000801088
0.000808116
0.000815425
0.00082295
0.000830627
0.000838391
0.000846183
0.000853945
0.000861626
0.000869179
0.000876562
0.000883743
0.000890692
0.00089739
0.000903819
0.000909971
0.000915841
0.000921429
0.00092674
0.000931782
0.000936564
0.0009411
0.000945404
0.000949492
0.000953381
0.000957089
0.000960636
0.000964047
0.000967349
0.000970579
0.000973785
0.000977029
0.000980394
0.000983982
0.000987922
0.000992367
0.000997487
0.00100347
0.00101049
0.00101874
0.00102837
0.00103949
0.00105216
0.00106641
0.00108218
0.00109931
0.00111801
0.00113584
0.00116658
0.000954645
0.000950982
0.000947262
0.000943494
0.000939685
0.000935845
0.000931979
0.000928094
0.000924195
0.00092029
0.000916382
0.000912475
0.000908576
0.000904689
0.000900819
0.000896971
0.000893153
0.000889372
0.000885635
0.000881952
0.000878331
0.000874784
0.00087132
0.000867949
0.000864684
0.000861533
0.000858509
0.000855623
0.000852887
0.000850313
0.000847915
0.000845709
0.00084371
0.000841937
0.00084041
0.000839152
0.000838185
0.000837531
0.000837214
0.000837253
0.000837667
0.000838474
0.000839685
0.000841307
0.000843343
0.000845787
0.000848631
0.000851859
0.000855449
0.000859375
0.000863605
0.000868104
0.000872834
0.000877754
0.000882822
0.000887997
0.000893237
0.000898504
0.00090376
0.00090897
0.000914105
0.000919138
0.000924046
0.000928812
0.000933421
0.000937863
0.000942135
0.000946233
0.00095016
0.000953922
0.000957527
0.000960985
0.000964309
0.000967514
0.000970615
0.000973627
0.000976567
0.000979448
0.000982284
0.000985088
0.000987868
0.000990636
0.000993401
0.000996178
0.000998986
0.00100186
0.00100483
0.00100798
0.00101139
0.00101517
0.00101945
0.0010244
0.00103016
0.00103689
0.00104473
0.00105378
0.0010641
0.00107585
0.00108768
0.00110896
0.000981282
0.00097893
0.000976503
0.000974007
0.000971447
0.000968826
0.000966149
0.000963423
0.00096065
0.000957836
0.000954986
0.000952104
0.000949194
0.000946263
0.000943314
0.000940355
0.000937392
0.000934431
0.000931483
0.000928554
0.000925656
0.000922798
0.000919992
0.00091725
0.000914584
0.000912006
0.000909529
0.000907166
0.000904929
0.000902832
0.000900886
0.000899104
0.000897498
0.000896082
0.000894867
0.000893866
0.000893092
0.000892555
0.000892268
0.000892238
0.000892475
0.000892985
0.000893773
0.000894841
0.000896188
0.000897808
0.000899695
0.000901838
0.000904221
0.000906829
0.00090964
0.000912632
0.000915781
0.000919061
0.000922444
0.000925905
0.000929416
0.000932951
0.000936487
0.00094
0.00094347
0.000946879
0.000950211
0.000953453
0.000956597
0.000959633
0.00096256
0.000965375
0.00096808
0.00097068
0.000973181
0.000975593
0.000977927
0.000980197
0.00098242
0.000984611
0.00098679
0.000988975
0.000991186
0.000993439
0.000995752
0.000998138
0.00100061
0.00100317
0.00100583
0.00100858
0.00101143
0.00101438
0.00101743
0.0010206
0.00102392
0.00102744
0.00103124
0.00103539
0.00104002
0.00104523
0.00105116
0.00105792
0.00106504
0.00107794
0.000995179
0.00099377
0.000992296
0.000990758
0.000989157
0.000987496
0.000985776
0.000983999
0.000982168
0.000980285
0.000978353
0.000976376
0.000974357
0.000972298
0.000970205
0.000968082
0.000965933
0.000963765
0.000961583
0.000959396
0.00095721
0.000955034
0.000952879
0.000950752
0.000948666
0.000946631
0.000944658
0.000942758
0.000940944
0.000939227
0.000937618
0.000936129
0.00093477
0.000933552
0.000932485
0.000931579
0.000930842
0.000930282
0.000929906
0.000929719
0.000929727
0.000929932
0.000930337
0.000930941
0.000931742
0.000932737
0.000933918
0.000935279
0.000936809
0.000938497
0.000940329
0.00094229
0.000944364
0.000946533
0.00094878
0.000951087
0.000953436
0.00095581
0.000958191
0.000960564
0.000962914
0.000965227
0.000967493
0.000969701
0.000971844
0.000973915
0.00097591
0.000977827
0.000979667
0.000981431
0.000983124
0.000984751
0.000986321
0.000987845
0.000989336
0.000990807
0.000992277
0.000993763
0.000995286
0.000996866
0.000998528
0.00100029
0.00100218
0.00100421
0.00100641
0.00100877
0.00101132
0.00101405
0.00101696
0.00102004
0.00102329
0.00102669
0.00103023
0.00103393
0.00103781
0.00104188
0.00104622
0.00105086
0.00105564
0.00106378
0.00100172
0.0010009
0.00100003
0.000999113
0.00099815
0.000997139
0.000996081
0.000994976
0.000993824
0.000992627
0.000991385
0.000990099
0.000988772
0.000987404
0.000985999
0.000984558
0.000983085
0.000981584
0.000980059
0.000978514
0.000976955
0.000975387
0.000973818
0.000972254
0.000970704
0.000969174
0.000967675
0.000966216
0.000964804
0.00096345
0.000962164
0.000960954
0.00095983