/*--------------------------------*- C++ -*----------------------------------*\
| =========                 |                                                 |
| \\      /  F ield         | OpenFOAM: The Open Source CFD Toolbox           |
|  \\    /   O peration     | Version:  4.1                                   |
|   \\  /    A nd           | Web:      www.OpenFOAM.org                      |
|    \\/     M anipulation  |                                                 |
\*---------------------------------------------------------------------------*/
FoamFile
{
    version     2.0;
    format      ascii;
    class       volScalarField;
    location    "100";
    object      p;
}
// * * * * * * * * * * * * * * * * * * * * * * * * * * * * * * * * * * * * * //

dimensions      [0 2 -2 0 0 0 0];

internalField   nonuniform List<scalar> 
26785
(
0.3583
0.369661
0.36722
0.355319
0.345514
0.336044
0.325799
0.315498
0.3054
0.295512
0.285918
0.276694
0.267884
0.259512
0.25159
0.244114
0.237068
0.230429
0.224167
0.218245
0.212625
0.207262
0.202108
0.197114
0.192229
0.187407
0.182604
0.177786
0.172929
0.168017
0.163048
0.158031
0.152987
0.147945
0.142947
0.138038
0.133272
0.128703
0.124386
0.120374
0.116715
0.11345
0.110612
0.108224
0.1063
0.104845
0.103851
0.103304
0.103177
0.103438
0.104047
0.104961
0.106131
0.107506
0.109037
0.110674
0.112365
0.114064
0.115725
0.117303
0.118755
0.120038
0.121118
0.121959
0.122535
0.12282
0.122797
0.122453
0.121779
0.120772
0.119433
0.117768
0.115787
0.113502
0.110928
0.108084
0.104989
0.101663
0.0981267
0.0944029
0.0905121
0.0864751
0.0823112
0.078039
0.0736753
0.0692352
0.0647318
0.0601759
0.0555779
0.0509391
0.0462661
0.041533
0.0367115
0.0318253
0.0268996
0.0219512
0.0169944
0.012056
0.00713734
0.00235537
0.358202
0.369611
0.367188
0.355287
0.345486
0.33602
0.325778
0.315479
0.305384
0.295499
0.285906
0.276684
0.267875
0.259505
0.251584
0.244108
0.237063
0.230425
0.224163
0.218243
0.212624
0.207262
0.20211
0.197118
0.192235
0.187414
0.182613
0.177796
0.17294
0.168029
0.16306
0.158043
0.152998
0.147955
0.142955
0.138044
0.133276
0.128703
0.124383
0.120368
0.116706
0.113438
0.110596
0.108206
0.10628
0.104822
0.103827
0.103279
0.103153
0.103414
0.104025
0.10494
0.106112
0.10749
0.109024
0.110664
0.112359
0.114061
0.115726
0.117308
0.118763
0.120051
0.121134
0.12198
0.122559
0.122848
0.122828
0.122487
0.121815
0.12081
0.119473
0.11781
0.115829
0.113545
0.110971
0.108127
0.105031
0.101704
0.0981676
0.0944427
0.0905507
0.0865124
0.0823471
0.0780736
0.0737085
0.069267
0.0647623
0.0602052
0.0556063
0.0509668
0.046296
0.0415638
0.0367386
0.0318479
0.0269185
0.0219665
0.0170061
0.0120639
0.00714172
0.00235579
0.357948
0.36956
0.367112
0.355197
0.345406
0.335944
0.325707
0.315415
0.305326
0.295447
0.28586
0.276643
0.267838
0.259472
0.251554
0.244081
0.237039
0.230403
0.224144
0.218227
0.212612
0.207254
0.202106
0.197117
0.192238
0.187421
0.182623
0.17781
0.172956
0.168047
0.163079
0.158062
0.153016
0.147971
0.142968
0.138053
0.133279
0.128701
0.124375
0.120353
0.116684
0.113409
0.110562
0.108166
0.106236
0.104775
0.103778
0.103229
0.103103
0.103366
0.103979
0.104898
0.106074
0.107458
0.108997
0.110644
0.112345
0.114054
0.115727
0.117317
0.11878
0.120076
0.121167
0.122021
0.122607
0.122903
0.12289
0.122554
0.121887
0.120887
0.119553
0.117892
0.115913
0.11363
0.111057
0.108212
0.105116
0.101787
0.0982488
0.0945218
0.0906275
0.0865866
0.0824188
0.0781426
0.0737747
0.0693305
0.0648232
0.0602637
0.055663
0.0510225
0.0463539
0.0416216
0.0367893
0.0318907
0.0269542
0.0219949
0.0170276
0.0120786
0.00715056
0.00235805
0.357549
0.369515
0.366991
0.355053
0.345276
0.335819
0.325587
0.315304
0.305225
0.295355
0.285777
0.276568
0.267771
0.259411
0.251498
0.244031
0.236994
0.230363
0.224109
0.218197
0.212588
0.207236
0.202094
0.197112
0.19224
0.187429
0.182637
0.177829
0.172979
0.168073
0.163107
0.15809
0.153042
0.147994
0.142986
0.138065
0.133283
0.128696
0.12436
0.120328
0.116649
0.113364
0.110508
0.108104
0.106167
0.104701
0.103701
0.10315
0.103024
0.10329
0.103907
0.104832
0.106015
0.107407
0.108955
0.110611
0.112323
0.114043
0.115728
0.11733
0.118806
0.120115
0.121218
0.122084
0.122682
0.122989
0.122985
0.122658
0.121999
0.121004
0.119675
0.118018
0.116042
0.11376
0.111188
0.108343
0.105245
0.101914
0.0983732
0.094643
0.0907451
0.0867003
0.0825285
0.0782482
0.0738762
0.0694279
0.0649168
0.0603537
0.0557502
0.051108
0.0464415
0.0417076
0.0368651
0.0319552
0.0270081
0.0220382
0.0170603
0.0121011
0.00716422
0.0023616
0.356981
0.369438
0.366829
0.354864
0.345102
0.335646
0.32542
0.315149
0.305081
0.295223
0.285657
0.276459
0.267672
0.25932
0.251416
0.243956
0.236926
0.230303
0.224057
0.218153
0.212551
0.207208
0.202076
0.197103
0.192239
0.187437
0.182653
0.177852
0.173008
0.168106
0.163143
0.158126
0.153076
0.148024
0.143009
0.138079
0.133287
0.128688
0.124339
0.120293
0.1166
0.113303
0.110434
0.108019
0.106073
0.1046
0.103595
0.103043
0.102918
0.103187
0.103809
0.104742
0.105934
0.107337
0.108898
0.110568
0.112294
0.114029
0.115729
0.117348
0.118841
0.120167
0.121287
0.122169
0.122783
0.123104
0.123113
0.122798
0.122149
0.121162
0.11984
0.118189
0.116216
0.113936
0.111364
0.108519
0.105419
0.102086
0.0985409
0.0948065
0.0909038
0.0868539
0.0826767
0.078391
0.0740135
0.0695598
0.0650435
0.0604757
0.0558685
0.0512237
0.0465589
0.041821
0.0369648
0.0320407
0.0270799
0.0220958
0.017104
0.0121312
0.00718237
0.00236642
0.356542
0.369333
0.366617
0.354627
0.344885
0.33543
0.325209
0.314951
0.304896
0.295051
0.285499
0.276314
0.26754
0.2592
0.251307
0.243857
0.236836
0.230222
0.223986
0.218092
0.212502
0.20717
0.202049
0.197088
0.192237
0.187446
0.182673
0.177881
0.173044
0.168148
0.163187
0.158171
0.153119
0.148061
0.143038
0.138097
0.133292
0.128678
0.124312
0.120249
0.116539
0.113224
0.11034
0.107912
0.105954
0.104472
0.103461
0.102907
0.102782
0.103055
0.103685
0.104627
0.105832
0.107249
0.108825
0.110512
0.112256
0.11401
0.115731
0.11737
0.118885
0.120232
0.121374
0.122277
0.12291
0.123249
0.123275
0.122974
0.122338
0.121362
0.120049
0.118403
0.116435
0.114158
0.111587
0.10874
0.105638
0.102302
0.0987525
0.0950127
0.091104
0.0870478
0.082864
0.0785715
0.0741871
0.0697267
0.0652039
0.0606303
0.0560183
0.0513701
0.046706
0.0419614
0.0370881
0.0321468
0.0271693
0.022168
0.0171589
0.0121693
0.00720528
0.00237281
0.356283
0.369213
0.366362
0.354348
0.344627
0.335171
0.324956
0.314711
0.30467
0.294841
0.285305
0.276136
0.267376
0.25905
0.251169
0.243732
0.236723
0.230121
0.223896
0.218016
0.212439
0.207122
0.202015
0.19707
0.192233
0.187456
0.182695
0.177914
0.173087
0.168197
0.16324
0.158225
0.15317
0.148106
0.143073
0.138119
0.133297
0.128665
0.124279
0.120195
0.116464
0.113129
0.110226
0.107781
0.105809
0.104317
0.103299
0.102741
0.102618
0.102896
0.103535
0.104488
0.105707
0.107141
0.108737
0.110444
0.11221
0.113987
0.115732
0.117397
0.118938
0.120311
0.121479
0.122406
0.123063
0.123424
0.12347
0.123187
0.122566
0.121603
0.1203
0.118663
0.1167
0.114426
0.111856
0.109008
0.105903
0.102563
0.0990082
0.095262
0.0913462
0.0872823
0.0830906
0.0787899
0.0743973
0.0699289
0.0653983
0.0608179
0.0561999
0.0515475
0.0468828
0.0421284
0.0372342
0.0322731
0.0272761
0.0222543
0.0172249
0.0122152
0.00723293
0.00238084
0.355899
0.369056
0.366068
0.354029
0.344331
0.334872
0.324663
0.314432
0.304407
0.294594
0.285075
0.275923
0.26718
0.25887
0.251004
0.243581
0.236586
0.229998
0.223789
0.217923
0.212363
0.207063
0.201974
0.197046
0.192226
0.187466
0.18272
0.177953
0.173137
0.168255
0.163303
0.158288
0.15323
0.148158
0.143114
0.138145
0.133304
0.12865
0.124241
0.120132
0.116376
0.113018
0.110093
0.107628
0.105639
0.104134
0.103108
0.102546
0.102424
0.102708
0.103357
0.104324
0.10556
0.107014
0.108632
0.110363
0.112155
0.11396
0.115734
0.117428
0.118999
0.120403
0.121601
0.122558
0.123242
0.123629
0.123699
0.123436
0.122833
0.121886
0.120595
0.118966
0.11701
0.11474
0.112171
0.109322
0.106214
0.102869
0.0993081
0.0955545
0.0916304
0.0875576
0.0833567
0.0790465
0.0746444
0.0701666
0.0656271
0.0610387
0.0564138
0.0517562
0.0470891
0.0423213
0.0374027
0.0324192
0.0273998
0.0223547
0.017302
0.0122691
0.00726533
0.0023906
0.355419
0.368912
0.365744
0.353673
0.343998
0.334535
0.324331
0.314116
0.304107
0.294312
0.284811
0.275678
0.266953
0.25866
0.250812
0.243405
0.236426
0.229855
0.223662
0.217815
0.212274
0.206993
0.201925
0.197018
0.192218
0.187477
0.182749
0.177997
0.173193
0.168321
0.163374
0.15836
0.153299
0.148219
0.143161
0.138174
0.133312
0.128634
0.124197
0.120061
0.116276
0.11289
0.109939
0.107451
0.105444
0.103924
0.102888
0.102322
0.102201
0.102492
0.103152
0.104135
0.105391
0.106868
0.108511
0.110269
0.112091
0.113928
0.115735
0.117463
0.119069
0.120508
0.121741
0.122731
0.123447
0.123864
0.12396
0.123722
0.12314
0.122209
0.120933
0.119315
0.117366
0.1151
0.112532
0.109683
0.106571
0.103221
0.0996526
0.0958904
0.091957
0.0878742
0.0836627
0.0793416
0.0749286
0.0704402
0.0658905
0.0612931
0.0566601
0.0519968
0.0473245
0.0425395
0.0375933
0.0325848
0.0275403
0.022469
0.0173899
0.0123309
0.00730244
0.0024021
0.35481
0.368744
0.365391
0.353282
0.343631
0.334162
0.323963
0.313765
0.303773
0.293995
0.284514
0.275401
0.266696
0.258422
0.250593
0.243204
0.236244
0.229691
0.223518
0.217691
0.212172
0.206914
0.20187
0.196985
0.192209
0.187489
0.182781
0.178046
0.173257
0.168395
0.163455
0.158442
0.153377
0.148288
0.143216
0.138209
0.133323
0.128616
0.124149
0.11998
0.116163
0.112746
0.109766
0.107252
0.105223
0.103686
0.102639
0.102068
0.101948
0.102246
0.102919
0.10392
0.105198
0.106701
0.108373
0.110162
0.112018
0.113891
0.115735
0.117502
0.119147
0.120626
0.121898
0.122926
0.123678
0.124128
0.124255
0.124044
0.123485
0.122575
0.121314
0.119708
0.117768
0.115506
0.112941
0.11009
0.106975
0.103618
0.100042
0.0962702
0.0923262
0.0882321
0.0840087
0.0796755
0.0752502
0.0707499
0.0661888
0.0615814
0.0569393
0.05227
0.0475887
0.0427819
0.0378059
0.0327698
0.0276972
0.0225968
0.0174885
0.0124005
0.0073442
0.00241532
0.354324
0.368531
0.364994
0.352857
0.34323
0.333754
0.323561
0.313379
0.303404
0.293646
0.284186
0.275094
0.26641
0.258157
0.250348
0.242979
0.236039
0.229507
0.223356
0.217552
0.212057
0.206826
0.201807
0.196949
0.192198
0.187502
0.182816
0.178101
0.173328
0.168478
0.163545
0.158535
0.153465
0.148366
0.143277
0.138248
0.133335
0.128597
0.124096
0.119891
0.116038
0.112586
0.109573
0.10703
0.104977
0.103421
0.102361
0.101784
0.101665
0.101971
0.102659
0.103679
0.104982
0.106514
0.108218
0.110041
0.111935
0.113848
0.115733
0.117543
0.119232
0.120756
0.122071
0.123142
0.123934
0.124422
0.124583
0.124403
0.12387
0.122982
0.121738
0.120146
0.118215
0.11596
0.113396
0.110544
0.107425
0.104061
0.100476
0.0966941
0.0927385
0.0886318
0.0843952
0.0800484
0.0756096
0.0710961
0.0665223
0.0619039
0.0572517
0.0525764
0.0478819
0.0430479
0.0380401
0.0329739
0.0278705
0.0227381
0.0175977
0.0124778
0.00739054
0.00243024
0.354081
0.368313
0.364564
0.3524
0.342797
0.333314
0.323126
0.312961
0.303005
0.293266
0.283828
0.274758
0.266096
0.257865
0.250077
0.24273
0.235812
0.229303
0.223176
0.217399
0.211931
0.206728
0.201738
0.196908
0.192185
0.187517
0.182856
0.178162
0.173407
0.168571
0.163646
0.158637
0.153563
0.148453
0.143346
0.138293
0.13335
0.128578
0.124039
0.119795
0.115902
0.11241
0.109361
0.106786
0.104705
0.103128
0.102054
0.101471
0.101353
0.101667
0.10237
0.103412
0.104743
0.106306
0.108045
0.109906
0.111841
0.1138
0.11573
0.117587
0.119325
0.120897
0.122261
0.123379
0.124216
0.124746
0.124945
0.124798
0.124294
0.12343
0.122207
0.12063
0.11871
0.11646
0.113899
0.111045
0.107921
0.10455
0.100956
0.0971625
0.0931941
0.0890736
0.0848225
0.0804608
0.076007
0.071479
0.0668914
0.062261
0.0575976
0.0529161
0.0482042
0.0433376
0.0382957
0.0331969
0.0280598
0.0228927
0.0177174
0.0125626
0.00744141
0.00244683
0.353751
0.368059
0.364104
0.351916
0.342336
0.332842
0.32266
0.312512
0.302574
0.292856
0.28344
0.274394
0.265755
0.257548
0.249783
0.242459
0.235565
0.229081
0.222981
0.217231
0.211793
0.206621
0.201663
0.196865
0.192172
0.187533
0.182899
0.178229
0.173494
0.168672
0.163756
0.15875
0.153672
0.148549
0.143424
0.138344
0.133369
0.128558
0.123978
0.11969
0.115753
0.112219
0.10913
0.106519
0.104407
0.102807
0.101717
0.101126
0.101009
0.101333
0.102052
0.103119
0.104479
0.106076
0.107854
0.109757
0.111737
0.113744
0.115725
0.117634
0.119425
0.121051
0.122468
0.123637
0.124523
0.125098
0.125339
0.125229
0.124758
0.123921
0.12272
0.121159
0.119251
0.117008
0.114449
0.111595
0.108466
0.105087
0.101482
0.0976759
0.0936935
0.0895579
0.085291
0.0809129
0.076443
0.0718992
0.0672966
0.0626531
0.0579774
0.053289
0.0485557
0.043651
0.0385726
0.0334387
0.0282651
0.0230605
0.0178475
0.0126551
0.00749675
0.00246504
0.353347
0.367809
0.363619
0.351403
0.341845
0.332341
0.322164
0.312034
0.302115
0.292418
0.283025
0.274003
0.265389
0.257206
0.249465
0.242166
0.235298
0.228841
0.222769
0.21705
0.211645
0.206506
0.201582
0.196818
0.192159
0.187551
0.182946
0.178303
0.173589
0.168784
0.163878
0.158875
0.153791
0.148656
0.14351
0.138402
0.133391
0.12854
0.123914
0.119579
0.115594
0.112013
0.108879
0.106229
0.104085
0.102458
0.101351
0.100751
0.100635
0.100968
0.101706
0.102797
0.10419
0.105825
0.107645
0.109592
0.111622
0.113682
0.115716
0.117682
0.119531
0.121215
0.122691
0.123916
0.124856
0.12548
0.125767
0.125697
0.125261
0.124454
0.123276
0.121734
0.119839
0.117604
0.115048
0.112192
0.109058
0.10567
0.102054
0.0982346
0.0942371
0.0900852
0.085801
0.0814053
0.0769178
0.072357
0.0677381
0.0630806
0.0583914
0.0536955
0.0489364
0.0439881
0.0388708
0.0336994
0.0284864
0.0232414
0.0179879
0.0127549
0.00755653
0.00248486
0.352836
0.367544
0.363112
0.350864
0.341328
0.331811
0.32164
0.311528
0.301629
0.291953
0.282584
0.273587
0.264997
0.25684
0.249125
0.241853
0.235011
0.228583
0.222543
0.216857
0.211486
0.206383
0.201495
0.196768
0.192145
0.187571
0.182998
0.178383
0.173692
0.168905
0.16401
0.159011
0.153923
0.148774
0.143605
0.138467
0.133417
0.128522
0.123848
0.119461
0.115424
0.111791
0.10861
0.105917
0.103736
0.102082
0.100955
0.100345
0.100229
0.100572
0.101329
0.102448
0.103876
0.105551
0.107416
0.109411
0.111494
0.113612
0.115705
0.117731
0.119643
0.121391
0.122929
0.124215
0.125213
0.125892
0.126227
0.126202
0.125805
0.12503
0.123878
0.122356
0.120475
0.118248
0.115696
0.112838
0.109698
0.106302
0.102673
0.0988393
0.0948255
0.0906559
0.0863531
0.0819384
0.0774321
0.0728528
0.0682165
0.0635439
0.05884
0.0541354
0.0493462
0.044349
0.0391903
0.0339789
0.0287236
0.0234353
0.0181385
0.0128622
0.00762072
0.00250626
0.352428
0.367231
0.362568
0.3503
0.340784
0.331255
0.321089
0.310996
0.301116
0.291462
0.282118
0.273146
0.264583
0.256452
0.248764
0.241519
0.234707
0.228309
0.222302
0.216651
0.211317
0.206252
0.201404
0.196716
0.19213
0.187593
0.183054
0.178469
0.173804
0.169036
0.164154
0.159159
0.154066
0.148903
0.14371
0.138539
0.133449
0.128506
0.123779
0.119337
0.115243
0.111556
0.108323
0.105583
0.103362
0.101676
0.100528
0.0999076
0.0997913
0.100145
0.100922
0.102071
0.103535
0.105254
0.107167
0.109214
0.111354
0.113533
0.115689
0.117781
0.11976
0.121576
0.123182
0.124534
0.125595
0.126332
0.126722
0.126744
0.126388
0.125648
0.124525
0.123025
0.121158
0.118941
0.116393
0.113534
0.110388
0.106981
0.10334
0.0994905
0.0954591
0.0912706
0.0869478
0.0825127
0.0779862
0.0733873
0.0687324
0.0640435
0.0593237
0.0546089
0.049785
0.0447336
0.0395313
0.0342773
0.0289768
0.0236424
0.0182994
0.0129769
0.0076893
0.00252922
0.352255
0.366912
0.361997
0.349711
0.340216
0.330673
0.320512
0.310438
0.300578
0.290947
0.281628
0.272682
0.264146
0.256042
0.248382
0.241166
0.234384
0.22802
0.222047
0.216433
0.211139
0.206114
0.201308
0.196661
0.192116
0.187618
0.183115
0.178562
0.173925
0.169178
0.164309
0.159319
0.154221
0.149043
0.143826
0.13862
0.133486
0.128492
0.123709
0.119207
0.115053
0.111306
0.108017
0.105226
0.102963
0.101243
0.100071
0.0994381
0.0993214
0.0996859
0.100485
0.101664
0.103168
0.104933
0.106898
0.109
0.1112
0.113444
0.115669
0.117831
0.119883
0.121772
0.12345
0.124873
0.126002
0.126802
0.127249
0.127323
0.127012
0.12631
0.125217
0.123741
0.121891
0.119684
0.11714
0.114279
0.111127
0.10771
0.104055
0.100189
0.0961386
0.0919298
0.0875856
0.0831288
0.0785808
0.0739608
0.0692865
0.0645801
0.0598433
0.0551159
0.0502525
0.0451421
0.0398938
0.0345947
0.029246
0.0238626
0.0184707
0.0130991
0.00776229
0.00255372
0.352009
0.366562
0.361404
0.349102
0.339624
0.330066
0.319911
0.309856
0.300016
0.290408
0.281114
0.272195
0.263687
0.255611
0.247981
0.240795
0.234045
0.227715
0.221779
0.216205
0.210952
0.20597
0.201207
0.196604
0.192102
0.187645
0.183181
0.178663
0.174055
0.169331
0.164477
0.159492
0.15439
0.149196
0.143952
0.13871
0.13353
0.128482
0.123638
0.119072
0.114853
0.111042
0.107693
0.104848
0.102537
0.100781
0.0995831
0.0989364
0.0988186
0.099194
0.100015
0.101228
0.102774
0.104588
0.106607
0.108768
0.111032
0.113346
0.115643
0.11788
0.120009
0.121977
0.123733
0.125232
0.126433
0.127301
0.12781
0.12794
0.127677
0.127015
0.125956
0.124505
0.122673
0.120477
0.117937
0.115075
0.111917
0.108489
0.104818
0.100935
0.0968647
0.0926341
0.0882672
0.0837872
0.0792163
0.074574
0.0698792
0.0651541
0.0603996
0.0556559
0.0507482
0.0455745
0.0402783
0.0349312
0.0295314
0.0240961
0.0186523
0.0132287
0.00783969
0.00257977
0.351691
0.366212
0.360789
0.348472
0.33901
0.329436
0.319287
0.309251
0.299431
0.289846
0.280579
0.271688
0.263208
0.255161
0.247561
0.240407
0.233691
0.227396
0.221499
0.215966
0.210756
0.205819
0.201102
0.196544
0.192088
0.187675
0.183251
0.17877
0.174194
0.169495
0.164657
0.159678
0.154572
0.149362
0.144091
0.138809
0.133581
0.128475
0.123567
0.118933
0.114644
0.110765
0.107351
0.104447
0.102086
0.10029
0.0990638
0.0984019
0.0982824
0.0986689
0.0995135
0.100762
0.102351
0.104216
0.106293
0.108517
0.110849
0.113236
0.115611
0.117928
0.120139
0.122191
0.12403
0.12561
0.126889
0.12783
0.128405
0.128594
0.128383
0.127765
0.126741
0.125317
0.123505
0.121321
0.118786
0.115923
0.112758
0.109318
0.105632
0.101729
0.0976379
0.0933843
0.0889931
0.0844886
0.0798934
0.0752275
0.0705115
0.0657663
0.0609941
0.0562282
0.0512712
0.0460313
0.040685
0.0352871
0.0298331
0.024343
0.0188444
0.0133658
0.00792154
0.00260736
0.351278
0.36585
0.360156
0.347822
0.338374
0.328784
0.318641
0.308624
0.298824
0.289264
0.280023
0.27116
0.262709
0.254693
0.247123
0.240002
0.233321
0.227064
0.221207
0.215717
0.210553
0.205663
0.200993
0.196483
0.192075
0.187707
0.183327
0.178885
0.174343
0.16967
0.16485
0.159879
0.154768
0.149542
0.144242
0.13892
0.133639
0.128473
0.123497
0.118791
0.114427
0.110475
0.106991
0.104024
0.10161
0.0997696
0.0985129
0.0978341
0.0977121
0.0981098
0.0989789
0.100265
0.101899
0.103818
0.105956
0.108247
0.110649
0.113114
0.115572
0.117974
0.120272
0.122413
0.124341
0.126008
0.127368
0.128387
0.129034
0.129286
0.12913
0.128559
0.127573
0.126179
0.124388
0.122217
0.119687
0.116823
0.11365
0.110198
0.106496
0.102573
0.0984592
0.094181
0.0897642
0.0852337
0.0806127
0.0759219
0.0711839
0.0664174
0.0616289
0.0568322
0.0518202
0.0465131
0.0411144
0.0356625
0.0301511
0.0246034
0.019047
0.0135105
0.00800789
0.0026365
0.350939
0.365443
0.359495
0.347153
0.337718
0.328111
0.317974
0.307976
0.298197
0.288661
0.279447
0.270613
0.262191
0.254206
0.246669
0.239581
0.232937
0.226719
0.220905
0.215459
0.210341
0.2055
0.20088
0.196421
0.192061
0.187742
0.183408
0.179008
0.174501
0.169857
0.165056
0.160093
0.154978
0.149737
0.144407
0.139042
0.133707
0.128476
0.123429
0.118645
0.114203
0.110172
0.106615
0.10358
0.101107
0.0992201
0.0979299
0.0972325
0.0971072
0.0975161
0.0984105
0.0997347
0.101417
0.103393
0.105595
0.107956
0.110433
0.11298
0.115524
0.118016
0.120408
0.122642
0.124665
0.126423
0.127872
0.128974
0.129696
0.130016
0.12992
0.129399
0.128454
0.127091
0.125322
0.123165
0.120642
0.117776
0.114596
0.11113
0.107411
0.103467
0.0993291
0.0950249
0.090581
0.0860231
0.0813751
0.076658
0.0718973
0.0671082
0.0623056
0.057469
0.0523939
0.0470206
0.0415669
0.0360576
0.0304859
0.0248775
0.0192604
0.0136629
0.00809878
0.00266721
0.350808
0.365026
0.35881
0.346464
0.337042
0.327417
0.317288
0.307309
0.297551
0.288038
0.278853
0.270047
0.261656
0.253702
0.246198
0.239146
0.232539
0.226362
0.220591
0.215192
0.210123
0.205332
0.200763
0.196356
0.192049
0.18778
0.183494
0.179138
0.174669
0.170055
0.165275
0.160322
0.155205
0.149946
0.144585
0.139176
0.133784
0.128486
0.123362
0.118497
0.113971
0.109857
0.106221
0.103114
0.100578
0.098641
0.0973144
0.0965965
0.0964669
0.0968869
0.0978078
0.0991716
0.100904
0.102939
0.105208
0.107643
0.110198
0.112831
0.115468
0.118055
0.120544
0.122879
0.125001
0.126858
0.1284
0.12959
0.130392
0.130785
0.130752
0.130284
0.129383
0.128053
0.126309
0.124167
0.12165
0.118783
0.115595
0.112116
0.108378
0.104412
0.100249
0.0959169
0.0914444
0.0868576
0.082181
0.0774365
0.0726523
0.0678392
0.0630238
0.0581402
0.0529927
0.0475542
0.0420427
0.0364726
0.0308375
0.0251656
0.0194848
0.0138231
0.0081943
0.00269949
0.350606
0.364583
0.358108
0.34576
0.336347
0.326704
0.316582
0.306622
0.296885
0.287398
0.27824
0.269464
0.261104
0.253183
0.245713
0.238697
0.232129
0.225994
0.220268
0.214917
0.209897
0.205159
0.200643
0.19629
0.192037
0.187821
0.183585
0.179275
0.174847
0.170266
0.165509
0.160567
0.155447
0.150171
0.144779
0.139324
0.133872
0.128503
0.123299
0.118348
0.113733
0.109531
0.105811
0.102627
0.100024
0.0980321
0.096666
0.0959256
0.0957904
0.0962216
0.09717
0.0985742
0.100358
0.102455
0.104795
0.107308
0.109945
0.112667
0.115401
0.118088
0.120681
0.123122
0.12535
0.12731
0.128952
0.130234
0.131123
0.131593
0.131627
0.131216
0.130361
0.129068
0.127349
0.125223
0.122713
0.119846
0.116649
0.113156
0.109398
0.105408
0.101219
0.0968579
0.0923553
0.0877381
0.0830315
0.0782583
0.0734496
0.0686113
0.0637824
0.0588463
0.0536181
0.048114
0.0425421
0.0369078
0.0312063
0.0254679
0.0197202
0.0139913
0.00829451
0.00273337
0.350331
0.364135
0.357388
0.345038
0.335634
0.325973
0.315858
0.305918
0.296202
0.28674
0.27761
0.268864
0.260536
0.252648
0.245213
0.238234
0.231706
0.225615
0.219935
0.214633
0.209665
0.20498
0.20052
0.196222
0.192025
0.187865
0.183681
0.179421
0.175036
0.17049
0.165757
0.160827
0.155706
0.150414
0.144989
0.139486
0.133972
0.128528
0.12324
0.118198
0.11349
0.109194
0.105384
0.102118
0.0994435
0.0973931
0.0959843
0.095219
0.095077
0.0955192
0.0964968
0.0979416
0.0997788
0.10194
0.104353
0.106948
0.109671
0.112487
0.115323
0.118116
0.120818
0.12337
0.12571
0.127779
0.129527
0.130909
0.131888
0.13244
0.132545
0.132195
0.131389
0.130134
0.128443
0.126335
0.123833
0.120964
0.117759
0.114251
0.110472
0.106458
0.10224
0.0978487
0.0933145
0.0886652
0.0839272
0.0791241
0.07429
0.069425
0.064581
0.059587
0.0542708
0.0487002
0.0430653
0.0373636
0.0315926
0.0257847
0.0199669
0.0141675
0.0083995
0.00276888
0.349969
0.363678
0.356654
0.344302
0.334903
0.325224
0.315117
0.305196
0.295502
0.286065
0.276964
0.268249
0.259953
0.252098
0.244699
0.237759
0.231272
0.225225
0.219593
0.214341
0.209426
0.204796
0.200392
0.196153
0.192014
0.187911
0.183783
0.179574
0.175235
0.170726
0.16602
0.161104
0.155982
0.150673
0.145216
0.139663
0.134085
0.128563
0.123186
0.118049
0.113241
0.108847
0.104942
0.101588
0.0988371
0.0967238
0.0952687
0.0944763
0.0943258
0.094779
0.095787
0.0972726
0.0991648
0.101392
0.103882
0.106563
0.109375
0.112289
0.115233
0.118136
0.120953
0.123623
0.126081
0.128266
0.130125
0.131612
0.132688
0.133326
0.133508
0.133222
0.132469
0.131255
0.129593
0.127503
0.125009
0.12214
0.118926
0.115402
0.111602
0.107561
0.103313
0.0988903
0.0943229
0.0896399
0.084869
0.0800351
0.0751743
0.0702815
0.0654193
0.0603621
0.0549516
0.0493133
0.0436129
0.0378404
0.0319969
0.0261163
0.0202253
0.0143521
0.00850937
0.00280604
0.349654
0.363179
0.355897
0.34355
0.334157
0.324459
0.31436
0.304458
0.294786
0.285375
0.276303
0.267619
0.259355
0.251535
0.244173
0.237272
0.230828
0.224826
0.219242
0.214042
0.209181
0.204607
0.200262
0.196082
0.192003
0.18796
0.18389
0.179735
0.175444
0.170975
0.166298
0.161398
0.156276
0.150951
0.14546
0.139856
0.134211
0.128608
0.123139
0.117901
0.112989
0.10849
0.104484
0.101038
0.0982046
0.0960239
0.094519
0.0936968
0.0935361
0.094
0.0950388
0.0965661
0.0985145
0.100811
0.103381
0.106151
0.109056
0.112073
0.115129
0.118149
0.121086
0.123879
0.126461
0.128769
0.130746
0.132344
0.133523
0.134253
0.134515
0.134298
0.1336
0.132429
0.130799
0.128729
0.126244
0.123375
0.120151
0.116611
0.112788
0.108719
0.104441
0.0999837
0.0953814
0.0906632
0.0858578
0.0809922
0.0761035
0.0711821
0.0662962
0.0611709
0.0556613
0.0499538
0.0441852
0.0383387
0.0324194
0.026463
0.0204954
0.014545
0.00862423
0.00284488
0.349514
0.362665
0.355119
0.342782
0.333394
0.323678
0.313588
0.303705
0.294055
0.28467
0.275627
0.266975
0.258744
0.25096
0.243635
0.236774
0.230373
0.224418
0.218884
0.213736
0.20893
0.204413
0.200127
0.196009
0.191992
0.188011
0.184002
0.179904
0.175664
0.171237
0.166592
0.161709
0.156589
0.151248
0.145723
0.140067
0.134353
0.128665
0.123099
0.117756
0.112733
0.108125
0.104012
0.100466
0.0975461
0.0952931
0.0937346
0.0928799
0.0927072
0.0931815
0.0942505
0.0958207
0.0978266
0.100193
0.102846
0.105711
0.108713
0.111836
0.11501
0.118152
0.121215
0.124139
0.126852
0.129289
0.13139
0.133105
0.134392
0.13522
0.135567
0.135422
0.134784
0.133659
0.132062
0.130013
0.127539
0.124669
0.121436
0.117878
0.114031
0.109934
0.105622
0.10113
0.0964911
0.0917359
0.0868947
0.0819966
0.0770786
0.0721289
0.0672101
0.0620123
0.0564004
0.0506224
0.0447828
0.0388588
0.0328607
0.0268253
0.0207777
0.0147466
0.00874419
0.00288543
0.349306
0.362129
0.354327
0.342001
0.332615
0.322881
0.3128
0.302937
0.293309
0.283951
0.274938
0.266317
0.258121
0.250372
0.243085
0.236265
0.229909
0.224
0.218517
0.213422
0.208672
0.204214
0.199989
0.195934
0.191981
0.188065
0.184119
0.180081
0.175895
0.171513
0.166901
0.162038
0.156921
0.151566
0.146006
0.140297
0.13451
0.128734
0.123067
0.117614
0.112476
0.107751
0.103526
0.0998751
0.0968615
0.0945313
0.0929153
0.092025
0.0918385
0.0923231
0.0934212
0.0950349
0.0970993
0.0995391
0.102278
0.105241
0.108345
0.111578
0.114874
0.118144
0.12134
0.1244
0.12725
0.129823
0.132056
0.133895
0.135297
0.136227
0.136665
0.136597
0.136022
0.134946
0.133384
0.131358
0.128894
0.126024
0.122782
0.119205
0.115333
0.111206
0.106859
0.10233
0.0976529
0.0928592
0.0879806
0.0830494
0.0781006
0.0731255
0.0681595
0.0628842
0.05717
0.05132
0.0454061
0.0394012
0.0333212
0.0272036
0.0210725
0.0149571
0.00886938
0.00292773
0.349024
0.361585
0.353521
0.341207
0.331822
0.32207
0.311999
0.302155
0.292549
0.283218
0.274235
0.265647
0.257485
0.249772
0.242525
0.235747
0.229435
0.223575
0.218142
0.213102
0.208409
0.20401
0.199848
0.195857
0.191971
0.188121
0.184241
0.180266
0.176136
0.171803
0.167227
0.162386
0.157274
0.151904
0.14631
0.140546
0.134685
0.128818
0.123045
0.117476
0.112217
0.10737
0.103026
0.0992638
0.096151
0.0937382
0.0920605
0.0911313
0.0909293
0.0914242
0.0925497
0.0942071
0.0963311
0.0988457
0.101673
0.104739
0.10795
0.111297
0.114721
0.118123
0.121458
0.124661
0.127657
0.130373
0.132744
0.134714
0.136237
0.137276
0.137809
0.137823
0.137314
0.13629
0.134766
0.132764
0.130312
0.127442
0.124189
0.120594
0.116696
0.112536
0.108154
0.103586
0.098868
0.0940339
0.0891165
0.0841519
0.0791707
0.0741758
0.0691468
0.0637842
0.0579711
0.0520474
0.0460557
0.0399665
0.0338014
0.0275982
0.02138
0.0151767
0.00899992
0.00297182
0.348658
0.361032
0.352703
0.3404
0.331015
0.321245
0.311183
0.30136
0.291777
0.282473
0.273521
0.264965
0.256838
0.249162
0.241954
0.235219
0.228953
0.223142
0.217761
0.212774
0.208139
0.203801
0.199702
0.195777
0.19196
0.18818
0.184368
0.180458
0.176388
0.172106
0.167569
0.162753
0.157647
0.152264
0.146636
0.140816
0.134879
0.128917
0.123035
0.117345
0.111959
0.106983
0.102513
0.098633
0.0954148
0.0929136
0.0911698
0.0901981
0.0899788
0.0904846
0.0916346
0.0933357
0.0955199
0.0981112
0.101031
0.104202
0.107527
0.110992
0.114547
0.11809
0.12157
0.124922
0.12807
0.130936
0.133454
0.135562
0.137212
0.138366
0.139001
0.1391
0.138662
0.137694
0.13621
0.134233
0.131794
0.128924
0.12566
0.122045
0.11812
0.113927
0.109506
0.104898
0.100138
0.0952613
0.0903035
0.085305
0.0802896
0.0752799
0.070177
0.064713
0.0588049
0.0528052
0.0467321
0.0405553
0.0343018
0.0280096
0.0217007
0.0154056
0.00913594
0.00301773
0.34832
0.36044
0.351866
0.339581
0.330194
0.320406
0.310356
0.300552
0.290992
0.281715
0.272794
0.264272
0.25618
0.248543
0.241375
0.234683
0.228463
0.2227
0.217372
0.21244
0.207863
0.203587
0.199552
0.195696
0.191948
0.18824
0.184499
0.180658
0.176651
0.172423
0.167929
0.163139
0.158042
0.152647
0.146985
0.141108
0.135093
0.129033
0.123037
0.117221
0.111701
0.10659
0.101987
0.0979832
0.0946529
0.0920575
0.0902427
0.0892247
0.088986
0.089503
0.0906747
0.0924189
0.094664
0.0973337
0.100348
0.103629
0.107073
0.110661
0.114353
0.118041
0.121672
0.125181
0.128488
0.131513
0.134184
0.136438
0.138222
0.139499
0.14024
0.14043
0.140067
0.139157
0.137716
0.135767
0.13334
0.130471
0.127197
0.123561
0.119607
0.115379
0.110918
0.106267
0.101463
0.0965425
0.0915426
0.08651
0.081458
0.0764354
0.071252
0.0656731
0.0596727
0.0535941
0.0474356
0.041168
0.0348232
0.0284384
0.0220349
0.0156441
0.0092776
0.0030655
0.348128
0.359832
0.351011
0.338748
0.32936
0.319555
0.309516
0.299732
0.290195
0.280947
0.272057
0.263568
0.255512
0.247913
0.240787
0.234138
0.227965
0.222252
0.216975
0.2121
0.207581
0.203367
0.199398
0.195611
0.191936
0.188302
0.184635
0.180865
0.176925
0.172754
0.168305
0.163545
0.158459
0.153054
0.147358
0.141424
0.135329
0.129168
0.123053
0.117105
0.111446
0.106193
0.101451
0.0973148
0.0938655
0.0911696
0.0892788
0.0882104
0.08795
0.0884763
0.0896687
0.091455
0.0937612
0.0965107
0.0996228
0.103018
0.106586
0.110302
0.114135
0.117975
0.121764
0.125437
0.128911
0.132103
0.134935
0.137342
0.139269
0.140673
0.141527
0.141814
0.14153
0.140682
0.139286
0.137366
0.134954
0.132085
0.1288
0.125143
0.121159
0.116893
0.112391
0.107695
0.102845
0.0978787
0.0928352