/*--------------------------------*- C++ -*----------------------------------*\
| =========                 |                                                 |
| \\      /  F ield         | OpenFOAM: The Open Source CFD Toolbox           |
|  \\    /   O peration     | Version:  4.1                                   |
|   \\  /    A nd           | Web:      www.OpenFOAM.org                      |
|    \\/     M anipulation  |                                                 |
\*---------------------------------------------------------------------------*/
FoamFile
{
    version     2.0;
    format      ascii;
    class       surfaceScalarField;
    location    "100";
    object      phi;
}
// * * * * * * * * * * * * * * * * * * * * * * * * * * * * * * * * * * * * * //

dimensions      [0 3 -1 0 0 0 0];

internalField   nonuniform List<scalar> 
52920
(
167.859
6.32009
161.592
6.26746
155.639
5.95251
149.892
5.74682
144.317
5.57495
138.911
5.40503
133.681
5.22996
128.644
5.03642
123.827
4.81729
119.252
4.57397
114.939
4.31302
110.895
4.04394
107.117
3.77716
103.595
3.52185
100.31
3.2844
97.2423
3.06749
94.3717
2.87016
91.6828
2.68846
89.1653
2.5171
86.8136
2.35114
84.6256
2.18755
82.5993
2.02587
80.7308
1.86798
79.0133
1.71701
77.4365
1.57632
75.9875
1.44843
74.6523
1.33474
73.4164
1.23543
72.266
1.14987
71.1886
1.07694
70.1726
1.01543
69.2078
0.964189
68.2851
0.922186
67.396
0.888454
66.5334
0.86204
65.691
0.841775
64.8642
0.826252
64.0497
0.813854
63.2459
0.803135
62.4522
0.793078
61.6684
0.783145
60.8947
0.773016
60.1319
0.762131
59.382
0.749353
58.6485
0.732893
57.9371
0.710772
57.255
0.681074
56.6125
0.642118
56.0188
0.59284
55.4853
0.533249
55.0195
0.464936
54.628
0.39128
54.3128
0.314499
54.0755
0.237064
53.9111
0.163757
53.8128
0.0982167
53.7697
0.0425393
53.7758
-0.00608394
53.8286
-0.0532005
53.9271
-0.098453
54.068
-0.141305
54.2497
-0.181602
54.4688
-0.219298
54.7228
-0.25384
55.0074
-0.284805
55.319
-0.311498
55.6523
-0.333476
56.0026
-0.350179
56.3638
-0.361365
56.7307
-0.366788
57.0972
-0.366562
57.4581
-0.360837
57.8081
-0.350097
58.1429
-0.334775
58.4585
-0.315654
58.7521
-0.29361
59.0217
-0.269664
59.2665
-0.244777
59.4866
-0.220158
59.6835
-0.196937
59.8598
-0.176339
60.0194
-0.159568
60.167
-0.147697
60.3091
-0.14207
60.4524
-0.143462
60.6054
-0.152912
60.778
-0.172748
60.9828
-0.204757
61.2394
-0.256616
61.5616
-0.322215
62.0524
-0.490832
62.7753
-0.722952
63.6401
-0.864808
64.5604
-0.920282
65.4969
-0.936537
66.4255
-0.928578
67.3315
-0.906012
68.1958
-0.864296
69.0106
-0.814763
-0.725556
174.346
11.3711
169.253
11.3604
164.029
11.1759
158.691
11.0849
153.337
10.928
148.013
10.7295
142.755
10.4869
137.614
10.1772
132.633
9.79802
127.849
9.3574
123.293
8.86937
118.982
8.35379
114.927
7.83254
111.123
7.32539
107.559
6.84707
104.221
6.40551
101.089
6.00123
98.1491
5.62828
95.3888
5.27693
92.8022
4.93712
90.3873
4.60193
88.1432
4.26943
86.0679
3.94268
84.1564
3.62796
82.3997
3.3325
80.7852
3.06235
79.2981
2.82125
77.9225
2.61042
76.6428
2.42906
75.4439
2.2752
74.3123
2.14639
73.2356
2.04019
72.2029
1.95432
71.204
1.88665
70.2304
1.83499
69.2746
1.79684
68.331
1.76914
67.3958
1.74833
66.4673
1.73095
65.5453
1.71433
64.6309
1.69682
63.7256
1.67754
62.8316
1.65544
61.9517
1.62855
61.0904
1.59353
60.2538
1.54656
59.4499
1.48384
58.6897
1.40191
57.9826
1.29893
57.3417
1.17393
56.7761
1.02964
56.2945
0.872598
55.9006
0.707528
55.598
0.539492
55.3832
0.377816
55.2511
0.230289
55.1907
0.102297
55.1952
-0.0106585
55.2595
-0.117863
55.3808
-0.219755
55.5548
-0.3157
55.7788
-0.405493
56.0481
-0.488788
56.359
-0.564601
56.7059
-0.631901
57.0839
-0.689424
57.4864
-0.73615
57.9075
-0.771121
58.3398
-0.793793
58.777
-0.803894
59.212
-0.801666
59.639
-0.787667
60.0517
-0.762949
60.4456
-0.728646
60.8163
-0.686424
61.161
-0.63827
61.4775
-0.586259
61.7653
-0.532529
62.0245
-0.479522
62.2572
-0.429611
62.4661
-0.385283
62.6556
-0.349096
62.831
-0.323208
62.9993
-0.310393
63.1679
-0.312149
63.3458
-0.330771
63.5435
-0.370593
63.7743
-0.435548
64.0588
-0.541156
64.4162
-0.679647
64.9055
-0.980186
65.5539
-1.37125
66.3133
-1.62432
67.1296
-1.73655
67.9694
-1.77639
68.8087
-1.76781
69.6302
-1.72759
70.4214
-1.65547
71.1931
-1.58643
-1.44734
177.952
16.0415
173.39
15.9227
168.711
15.8541
163.855
15.941
158.882
15.9007
153.828
15.7828
148.741
15.5742
143.68
15.2381
138.702
14.7754
133.858
14.2012
129.19
13.5371
124.729
12.8139
120.496
12.0657
116.497
11.3241
112.73
10.6139
109.184
9.95038
105.848
9.33753
102.706
8.769
99.7513
8.2316
96.9773
7.71063
94.3834
7.19539
91.9697
6.68261
89.7352
6.17679
87.6749
5.68776
85.7798
5.22714
84.0367
4.80492
82.4299
4.42754
80.9424
4.09736
79.5576
3.81344
78.2595
3.57274
77.034
3.37141
75.8681
3.20547
74.7506
3.07122
73.6715
2.96516
72.6221
2.88383
71.595
2.82333
70.5845
2.77899
69.5868
2.74535
68.6002
2.71696
67.6244
2.68948
66.6603
2.6602
65.7094
2.62776
64.7735
2.59077
63.8548
2.54656
62.9574
2.49034
62.0869
2.41636
61.2508
2.31887
60.4598
2.19245
59.7235
2.03437
59.0548
1.84242
58.4637
1.61986
57.9596
1.37642
57.5469
1.11945
57.2295
0.856753
57.0045
0.602097
56.867
0.367682
56.8073
0.161454
56.8185
-0.0218861
56.893
-0.192841
57.0263
-0.353017
57.2124
-0.502134
57.4469
-0.639934
57.7237
-0.765795
58.0376
-0.878359
58.3816
-0.976149
58.7498
-1.05753
59.1347
-1.12117
59.5297
-1.166
59.9273
-1.1915
60.3211
-1.19766
60.7045
-1.18515
61.0721
-1.1552
61.4187
-1.10965
61.7406
-1.05048
62.0345
-0.980397
62.2988
-0.902584
62.5327
-0.820222
62.7368
-0.73663
62.9126
-0.655359
63.063
-0.579975
63.192
-0.514388
63.3054
-0.462512
63.4096
-0.427485
63.5124
-0.413211
63.6221
-0.421925
63.7488
-0.457425
63.904
-0.525824
64.1025
-0.634107
64.3637
-0.802356
64.7104
-1.02636
65.1864
-1.45622
65.7838
-1.96869
66.4649
-2.30546
67.2029
-2.47452
67.9747
-2.54817
68.7588
-2.55195
69.5385
-2.50724
70.3
-2.41701
71.0444
-2.33088
-2.14634
179.848
20.5834
175.489
20.2824
171.074
20.2686
166.521
20.4935
161.853
20.5684
157.077
20.5589
152.219
20.4313
147.331
20.1263
142.465
19.6409
137.674
18.9914
133.007
18.2039
128.503
17.3177
124.19
16.3782
120.085
15.4286
116.194
14.5048
112.513
13.6304
109.036
12.8142
105.754
12.0505
102.662
11.3235
99.7572
10.6149
97.041
9.91111
94.5146
9.20843
92.1771
8.51372
90.0232
7.84108
88.0429
7.20694
86.2219
6.62538
84.5434
6.10548
82.9897
5.65056
81.5433
5.2593
80.188
4.92743
78.9093
4.64951
77.6942
4.41995
76.5312
4.23355
75.4103
4.08547
74.3225
3.97093
73.2605
3.8847
72.2183
3.82053
71.1918
3.7711
70.1791
3.72901
69.1795
3.68835
68.1936
3.64535
67.2225
3.59817
66.2676
3.54497
65.3311
3.48233
64.417
3.40386
63.5308
3.30183
62.68
3.16855
61.8755
2.99654
61.1267
2.78218
60.4465
2.52234
59.8451
2.22048
59.3318
1.88938
58.9111
1.53941
58.5863
1.18128
58.355
0.832759
58.2122
0.510384
58.1492
0.223801
58.1602
-0.0328861
58.236
-0.269057
58.3703
-0.487324
58.5561
-0.688273
58.788
-0.8717
59.0587
-1.03677
59.3623
-1.18186
59.6912
-1.3052
60.0388
-1.40499
60.3973
-1.47982
60.7601
-1.52872
61.1199
-1.55144
61.4708
-1.54844
61.8066
-1.52101
62.1227
-1.47122
62.4147
-1.40178
62.6799
-1.31557
62.9158
-1.21641
63.1219
-1.10865
63.2982
-0.996667
63.4464
-0.884751
63.5682
-0.777289
63.6675
-0.679258
63.7493
-0.596333
63.8203
-0.533452
63.8871
-0.494402
63.9579
-0.484037
64.0414
-0.50554
64.1487
-0.564678
64.2918
-0.669047
64.4869
-0.829199
64.7516
-1.06707
65.1103
-1.38506
65.5995
-1.94551
66.1811
-2.55024
66.8154
-2.93978
67.4951
-3.15422
68.2073
-3.26039
68.9357
-3.28036
69.6655
-3.23711
70.3842
-3.13571
71.0872
-3.03385
-2.81279
180.513
25.0404
176.263
24.5316
171.989
24.5428
167.615
24.8673
163.15
25.0332
158.586
25.1224
153.935
25.0819
149.232
24.8293
144.519
24.3541
139.84
23.6692
135.244
22.8002
130.77
21.7913
126.452
20.6961
122.312
19.568
118.363
18.4533
114.609
17.384
111.049
16.3741
107.68
15.4192
104.501
14.5016
101.515
13.6004
98.7255
12.7005
96.134
11.7995
93.7395
10.9077
91.5358
10.0443
89.5114
9.2309
87.6508
8.48556
85.9362
7.81964
84.3492
7.2371
82.8721
6.73589
81.4887
6.31032
80.1845
5.95326
78.9464
5.6575
77.763
5.4164
76.6241
5.22379
75.5208
5.07368
74.4454
4.95954
73.3918
4.87356
72.3557
4.80658
71.3348
4.74937
70.328
4.6945
69.3355
4.63717
68.3581
4.57496
67.3969
4.50551
66.4542
4.42442
65.5339
4.32362
64.6417
4.19333
63.7853
4.02392
62.9756
3.80594
62.2219
3.535
61.5368
3.2072
60.93
2.82642
60.4108
2.40834
59.9837
1.96579
59.6512
1.51352
59.4111
1.07224
59.2586
0.662809
59.1863
0.295514
59.1892
-0.0358308
59.2572
-0.337438
59.3828
-0.612897
59.5582
-0.864009
59.7773
-1.09073
60.0324
-1.29208
60.3169
-1.46628
60.6229
-1.61143
60.9438
-1.72569
61.2716
-1.80779
61.6
-1.85702
61.9219
-1.87354
62.2321
-1.85845
62.5247
-1.8138
62.7962
-1.74257
63.0426
-1.64837
63.2621
-1.535
63.453
-1.40735
63.6154
-1.27104
63.7502
-1.13154
63.8591
-0.993652
63.9444
-0.862612
64.0106
-0.745489
64.0639
-0.649662
64.1107
-0.580255
64.1579
-0.541691
64.2139
-0.54
64.2877
-0.579482
64.3913
-0.66821
64.5371
-0.814917
64.7421
-1.03417
65.0225
-1.34759
65.4036
-1.76608
65.9147
-2.45668
66.4939
-3.12942
67.1007
-3.54661
67.7391
-3.79262
68.4039
-3.9252
69.0839
-3.96033
69.767
-3.92026
70.4426
-3.81133
71.1019
-3.69319
-3.44309
180.058
29.2919
175.986
28.6035
171.863
28.6655
167.637
29.0932
163.324
29.3459
158.92
29.5258
154.435
29.5667
149.895
29.3684
145.334
28.9153
140.787
28.2156
136.295
27.2924
131.895
26.1909
127.621
24.9699
123.498
23.6906
119.543
22.4078
115.765
21.1613
112.169
19.9696
108.758
18.8293
105.538
17.7216
102.514
16.6242
99.6916
15.5222
97.0745
14.416
94.6606
13.3211
92.4419
12.2624
90.4056
11.2667
88.5347
10.3559
86.8107
9.54308
85.2149
8.83233
83.7297
8.22056
82.339
7.70048
81.0285
7.2632
79.7854
6.89999
78.5983
6.60281
77.4572
6.36433
76.3528
6.17742
75.2774
6.03428
74.2247
5.92558
73.1903
5.84036
72.1714
5.7676
71.1667
5.69843
70.1761
5.6271
69.1998
5.55052
68.239
5.46563
67.2959
5.36689
66.3744
5.24445
65.4806
5.08643
64.6222
4.88118
63.8101
4.6176
63.0536
4.29062
62.365
3.8955
61.7535
3.43708
61.228
2.9336
60.7934
2.39963
60.4514
1.85528
60.1999
1.3231
60.0343
0.828305
59.9487
0.38047
59.939
-0.0261704
59.994
-0.392845
60.1057
-0.724564
60.2658
-1.0244
60.4676
-1.29251
60.7032
-1.52786
60.9656
-1.72859
61.2468
-1.8928
61.54
-2.01876
61.8375
-2.10545
62.1332
-2.15256
62.4204
-2.16083
62.6941
-2.13209
62.9494
-2.06922
63.1832
-1.9762
63.3922
-1.85749
63.575
-1.71777
63.7306
-1.56307
63.86
-1.40036
63.9642
-1.23584
64.0448
-1.07428
64.1046
-0.922467
64.1494
-0.790252
64.1853
-0.685698
64.2185
-0.613487
64.2561
-0.57935
64.3068
-0.590728
64.3802
-0.65297
64.4886
-0.776618
64.6449
-0.971263
64.8669
-1.25615
65.1697
-1.6505
65.5795
-2.17586
66.1164
-2.99361
66.6987
-3.71178
67.29
-4.13787
67.9001
-4.40274
68.5288
-4.55393
69.1691
-4.6006
69.8117
-4.56294
70.4483
-4.44793
71.0675
-4.31237
-4.03878
178.931
33.4298
174.984
32.5506
170.99
32.6592
166.893
33.1898
162.708
33.5304
158.435
33.7988
154.085
33.9161
149.685
33.769
145.26
33.3393
140.843
32.6329
136.465
31.6698
132.161
30.4951
127.96
29.1704
123.888
27.7621
119.964
26.3316
116.2
24.9245
112.607
23.5626
109.193
22.2432
105.967
20.9466
102.941
19.6503
100.121
18.3417
97.511
17.0257
95.1077
15.724
92.9016
14.468
90.8782
13.2898
89.0193
12.2143
87.3059
11.256
85.7194
10.4185
84.2423
9.69724
82.859
9.08326
81.5558
8.56598
80.3201
8.13517
79.1408
7.78159
78.0077
7.49687
76.9118
7.27284
75.845
7.10052
74.801
6.96906
73.7751
6.86569
72.7644
6.77771
71.7674
6.69489
70.7833
6.61053
69.8124
6.52085
68.8555
6.42195
67.9148
6.30697
66.9946
6.16415
66.1008
5.9795
65.2417
5.73931
64.4279
5.43102
63.6687
5.04899
62.9763
4.58768
62.3593
4.05333
61.8266
3.46606
61.3835
2.84199
61.0309
2.20772
60.7668
1.58655
60.5869
1.00808
60.4867
0.480177
60.4623
-0.00187842
60.5023
-0.433258
60.5983
-0.820481
60.7415
-1.16793
60.925
-1.47598
61.1405
-1.74357
61.3809
-1.96885
61.6379
-2.15004
61.9049
-2.28562
62.1742
-2.37497
62.4401
-2.4183
62.6961
-2.41703
62.9379
-2.37377
63.161
-2.2924
63.3627
-2.17785
63.5405
-2.03543
63.6934
-1.87062
63.8209
-1.69065
63.9246
-1.50399
64.0055
-1.3168
64.0649
-1.13372
64.1067
-0.964304
64.1374
-0.820917
64.1627
-0.711062
64.1884
-0.639247
64.2223
-0.613314
64.2735
-0.641917
64.3518
-0.731348
64.4701
-0.894889
64.6415
-1.14269
64.8848
-1.49948
65.2143
-1.97999
65.6586
-2.62019
66.2238
-3.55879
66.8112
-4.29924
67.3949
-4.72163
67.9871
-4.99491
68.5897
-5.15656
69.199
-5.20987
69.8083
-5.17231
70.4116
-5.05116
70.9961
-4.89694
-4.60363
177.408
37.5116
173.526
36.4326
169.613
36.5718
165.613
37.1901
161.532
37.611
157.368
37.9628
153.132
38.1512
148.85
38.0506
144.547
37.6421
140.25
36.9301
135.986
35.9331
131.785
34.6961
127.673
33.282
123.674
31.7609
119.806
30.1988
116.085
28.6452
112.524
27.1234
109.136
25.6304
105.936
24.1461
102.937
22.649
100.147
21.1305
97.5707
19.6019
95.2019
18.0923
93.0297
16.6397
91.0379
15.2811
89.2076
14.0441
87.5194
12.9436
85.955
11.9823
84.4976
11.1541
83.1323
10.448
81.8457
9.85193
80.626
9.35426
79.4622
8.94477
78.3443
8.61419
77.2631
8.35347
76.2105
8.15246
75.1801
7.9988
74.1671
7.87799
73.1685
7.77567
72.1823
7.68035
71.2077
7.58443
70.2445
7.48338
69.2934
7.37236
68.3567
7.24301
67.4387
7.08151
66.5457
6.87177
65.6859
6.59798
64.8703
6.24623
64.108
5.8104
63.4112
5.2842
62.7881
4.67564
62.2478
4.00605
61.7957
3.29329
61.4324
2.57082
61.1559
1.86236
60.9623
1.20164
60.8474
0.594447
60.808
0.0374537
60.8328
-0.458416
60.9129
-0.900588
61.0395
-1.29481
61.2052
-1.64161
61.4014
-1.94002
61.6209
-2.18823
61.8554
-2.3847
62.0982
-2.52826
62.3418
-2.61878
62.5808
-2.65711
62.809
-2.64542
63.0226
-2.58725
63.2176
-2.48746
63.3918
-2.35198
63.5432
-2.18696
63.6711
-1.99851
63.7757
-1.79533
63.8589
-1.58716
63.9212
-1.37923
63.9644
-1.17682
63.9933
-0.993324
64.0146
-0.842226
64.0333
-0.729864
64.0556
-0.661505
64.0897
-0.647538
64.145
-0.697271
64.2317
-0.818078
64.3632
-1.02637
64.5528
-1.3324
64.8206
-1.76734
65.18
-2.33938
65.666
-3.10622
66.261
-4.15382
66.8527
-4.89097
67.4347
-5.30368
68.0173
-5.5774
68.6023
-5.74165
69.1885
-5.79604
69.7716
-5.75542
70.3475
-5.62707
70.9036
-5.45298
-5.14242
175.599
41.553
171.755
40.2767
167.889
40.4373
163.955
41.1238
159.955
41.6112
155.881
42.0363
151.744
42.2878
147.567
42.2278
143.372
41.8362
139.185
41.1169
135.031
40.0874
130.934
38.7929
126.918
37.2979
123.003
35.675
119.209
33.9932
115.55
32.3037
112.043
30.6298
108.706
28.9673
105.556
27.2959
102.608
25.5966
99.8714
23.8664
97.3485
22.1244
95.0325
20.4079
92.9101
18.7617
90.9637
17.2271
89.1738
15.8336
87.5212
14.5959
85.988
13.5152
84.5583
12.5834
83.218
11.7878
81.9547
11.1148
80.7568
10.5517
79.6137
10.0874
78.5155
9.71187
77.4532
9.41537
76.4184
9.18665
75.4049
9.01184
74.4077
8.8747
73.4235
8.7593
72.4503
8.65299
71.4868
8.5473
70.5327
8.43693
69.5885
8.31598
68.6565
8.17441
67.7413
7.99626
66.8491
7.76327
65.9886
7.45748
65.1708
7.06371
64.405
6.5754
63.7033
5.98565
63.0739
5.30431
62.5261
4.55365
62.0651
3.75353
61.6917
2.94397
61.4038
2.14967
61.1975
1.40792
61.069
0.722327
61.0152
0.0912685
61.0252
-0.468853
61.0903
-0.965607
61.2011
-1.40592
61.35
-1.79052
61.5283
-2.11852
61.7284
-2.38829
61.9421
-2.5986
62.1627
-2.74874
62.383
-2.83921
62.5976
-2.87157
62.8008
-2.84885
62.9893
-2.77561
63.1595
-2.65774
63.3097
-2.50215
63.4383
-2.31572
63.5451
-2.1052
63.6307
-1.88103
63.6972
-1.65362
63.7444
-1.42658
63.7749
-1.20722
63.7946
-1.01307
63.8095
-0.85719
63.8245
-0.744865
63.846
-0.68305
63.8832
-0.68474
63.9452
-0.759245
64.0425
-0.915526
64.1897
-1.17346
64.4
-1.54281
64.6948
-2.06216
65.0869
-2.73153
65.6248
-3.64406
66.2496
-4.77863
66.8417
-5.48307
67.4268
-5.88885
68.0062
-6.15679
68.5808
-6.31625
69.1508
-6.36604
69.7141
-6.31875
70.2685
-6.18146
70.8019
-5.98638
-5.66009
173.512
45.6011
169.692
44.0968
165.872
44.2574
162.003
44.9923
158.078
45.5362
154.087
46.0271
150.039
46.3348
145.957
46.3097
141.862
45.9305
137.778
45.2008
133.728
44.1376
129.733
42.7871
125.815
41.2155
121.992
39.4975
118.281
37.7039
114.699
35.8858
111.263
34.065
107.994
32.2354
104.913
30.3768
102.035
28.4741
99.3695
26.5314
96.9162
24.5772
94.6666
22.657
92.6054
20.8223
90.7141
19.1179
88.9727
17.5744
87.3625
16.2055
85.8664
15.0106
84.4698
13.9795
83.1594
13.0977
81.9236
12.3501
80.7513
11.7233
79.6324
11.2057
78.5571
10.7865
77.5163
10.4556
76.5019
10.2004
75.5073
10.0058
74.5276
9.85372
73.5595
9.72677
72.6005
9.61122
71.6493
9.4978
70.7051
9.3804
69.7685
9.25194
68.8416
9.10057
67.9293
8.90801
67.038
8.65385
66.1765
8.31783
65.3562
7.88362
64.5865
7.34421
63.8797
6.69218
63.244
5.93918
62.6889
5.10845
62.2198
4.22193
61.8374
3.32604
61.5393
2.44715
61.3216
1.62551
61.1809
0.862504
61.1135
0.158575
61.1097
-0.465468
61.1607
-1.01651
61.2568
-1.50235
61.3902
-1.92388
61.5518
-2.28037
61.7341
-2.57044
61.9286
-2.79332
62.1288
-2.94881
62.3277
-3.03819
62.52
-3.0638
62.7007
-3.02965
62.8666
-2.94138
63.0147
-2.80596
63.1438
-2.63122
63.2527
-2.42466
63.3412
-2.19364
63.4108
-1.9508
63.4634
-1.70616
63.4983
-1.46161
63.5191
-1.22794
63.5321
-1.0262
63.5429
-0.867972
63.5561
-0.758191
63.5792
-0.706092
63.6214
-0.727014
63.6918
-0.829711
63.8018
-1.02563
63.9666
-1.33824
64.1997
-1.77601
64.5236
-2.38606
64.9507
-3.15864
65.5364
-4.22979
66.1897
-5.43198
66.7928
-6.08615
67.3855
-6.48154
67.9664
-6.73772
68.536
-6.88585
69.0956
-6.92562
69.6447
-6.86795
70.1829
-6.71964
70.6991
-6.50253
-6.16136
170.869
49.3936
167.254
47.7109
163.571
47.9408
159.806
48.7575
155.969
49.3727
152.062
49.9332
148.102
50.2951
144.11
50.3013
140.11
49.9309
136.123
49.1873
132.172
48.0882
128.278
46.6812
124.458
45.0346
120.73
43.2252
117.109
41.3245
113.613
39.3823
110.26
37.4173
107.074
35.421
104.076
33.3744
101.283
31.2674
98.7007
29.1129
96.3284
26.9491
94.1546
24.8304
92.1624
22.814
90.3324
20.9476
88.6446
19.2618
87.0812
17.7686
85.6262
16.4652
84.2659
15.3394
82.9884
14.3747
81.7828
13.5553
80.6387
12.867
79.5462
12.2977
78.4958
11.8365
77.4784
11.4725
76.4858
11.1925
75.5115
10.9796
74.5506
10.8141
73.5996
10.6773
72.6558
10.5544
71.7176
10.4355
70.7839
10.3135
69.8552
10.1801
68.9338
10.0215
68.0243
9.81694
67.1338
9.54378
66.2712
9.17943
65.4481
8.70639
64.6743
8.11724
63.9622
7.40403
63.3205
6.5802
62.7586
5.6701
62.2821
4.69774
61.8919
3.71601
61.5849
2.7535
61.3574
1.85301
61.2056
1.01372
61.1258
0.238384
61.1091
-0.449184
61.1469
-1.05429
61.2294
-1.58513
61.3483
-2.04281
61.4945
-2.42679
61.6602
-2.73603
61.837
-2.9703
62.0183
-3.13006
62.1974
-3.21745
62.3694
-3.23569
62.5295
-3.18982
62.6749
-3.08673
62.8032
-2.93441
62.9137
-2.74161
63.0052
-2.51626
63.078
-2.26642
63.1342
-2.00716
63.1751
-1.74694
63.1999
-1.4865
63.2133
-1.24131
63.2217
-1.03469
63.23
-0.876242
63.2432
-0.771493
63.2694
-0.732303
63.3182
-0.775841
63.3985
-0.910018
63.5228
-1.15001
63.707
-1.52236
63.9647
-2.0338
64.3196
-2.74095
64.7831
-3.62214
65.4077
-4.85438
66.0893
-6.11367
66.7173
-6.71412
67.3212
-7.08545
67.9071
-7.32361
68.4759
-7.45473
69.0299
-7.47956
69.5698
-7.4079
70.0965
-7.24632
70.6001
-7.0062
-6.65052
168.346
53.2552
164.738
51.3178
161.119
51.5603
157.438
52.4375
153.689
53.1215
149.869
53.7529
145.995
54.1688
142.092
54.2047
138.182
53.8404
134.289
53.08
130.435
51.9423
126.638
50.4771
122.917
48.7555
119.286
46.8562
115.759
44.8508
112.355
42.7862
109.094
40.6773
106.001
38.5135
103.098
36.2773
100.399
33.9656
97.9104
31.6011
95.6268
29.2321
93.5351
26.9217
91.6166
24.7319
89.8515
22.7123
88.2202
20.8924
86.7059
19.2824
85.294
17.8767
83.9721
16.6608
82.7292
15.617
81.5555
14.7285
80.4411
13.9808
79.3765
13.3617
78.3523
12.8601
77.3594
12.4649
76.3897
12.1616
75.4367
11.932
74.4954
11.7547
73.5623
11.6098
72.6344
11.4816
71.7097
11.3595
70.787
11.2355
69.8665
11.0999
68.9505
10.9367
68.0441
10.7228
67.1541
10.433
66.2902
10.0423
65.4641
9.53209
64.6859
8.89452
63.9686
8.12103
63.3211
7.22694
62.7529
6.23797
62.2699
5.17993
61.8731
4.11264
61.5586
3.06735
61.3225
2.08901
61.1609
1.17475
61.0695
0.329727
61.0408
-0.420886
61.0663
-1.07981
61.1361
-1.65517
61.2416
-2.14824
61.3733
-2.55875
61.5235
-2.88608
61.6836
-3.13067
61.8474
-3.29371
62.0082
-3.37836
62.1613
-3.38872
62.3024
-3.33104
62.4292
-3.21344
62.5397
-3.04501
62.6336
-2.83537
62.7099
-2.59267
62.7693
-2.32581
62.8143
-2.05226
62.8452
-1.77781
62.8617
-1.5031
62.8696
-1.24921
62.875
-1.04016
62.8823
-0.883495
62.8969
-0.786239
62.9277
-0.763127
62.9842
-0.832405
63.0755
-1.00138
63.2157
-1.29028
63.4207
-1.72737
63.7047
-2.3179
64.0926
-3.12881
64.5941
-4.12372
65.2606
-5.52091
65.9708
-6.8239
66.6231
-7.36642
67.2408
-7.70311
67.8345
-7.91736
68.4062
-8.02638
68.9584
-8.0318
69.4932
-7.94272
70.0125
-7.76561
70.5079
-7.50156
-7.13142
165.869
57.1074
162.249
54.9376
158.639
55.1701
154.999
56.0769
151.312
56.8085
147.566
57.499
143.772
57.9621
139.953
58.0236
136.131
57.6621
132.329
56.8817
128.569
55.7025
124.869
54.177
121.245
52.3792
117.711
50.3902
114.281
48.2803
110.974
46.0931
107.812
43.8389
104.82
41.5053
102.019
39.0779
99.4226
36.5615
97.0335
33.9899
94.8435
31.4217
92.8372
28.9276
90.9948
26.5739
89.2962
24.4106
87.7227
22.4656
86.2585
20.7462
84.8906
19.2442
83.6079
17.9431
82.4007
16.8238
81.2598
15.869
80.176
15.0641
79.1402
14.3971
78.1429
13.8569
77.1754
13.432
76.2293
13.1072
75.2983
12.8625
74.3774
12.6751
73.4627
12.524
72.5512
12.3926
71.6405
12.2696
70.7291
12.1464
69.817
12.0114
68.9067
11.8466
68.0031
11.6259
67.1136
11.3218
66.2482
10.9068
65.4188
10.3612
64.6361
9.67641
63.9136
8.84333
63.2605
7.87929
62.6867
6.81162
62.1981
5.66775
61.7956
4.51498
61.4747
3.38765
61.2312
2.33248
61.0607
1.3447
60.9585
0.431879
60.9185
-0.381308
60.9326
-1.09384
60.9903
-1.71322
61.0831
-2.24094
61.2011
-2.67708
61.3367
-3.0215
61.4812
-3.27542
61.6284
-3.44086
61.772
-3.52213
61.9077
-3.52423
62.0312
-3.45477
62.141
-3.32311
62.2354
-3.13953
62.3144
-2.91434
62.3774
-2.65578
62.4255
-2.37381
62.461
-2.08788
62.4836
-1.80039
62.4935
-1.51313
62.4975
-1.25316
62.501
-1.04376
62.5084
-0.89082
62.5256
-0.803549
62.5622
-0.799631
62.6272
-0.897501
62.7306
-1.10477
62.8881
-1.4478
63.1152
-1.95443
63.4272
-2.62999
63.85
-3.55164
64.392
-4.66574
65.1041
-6.23298
65.8419
-7.56178
66.5169
-8.04134
67.1498
-8.33607
67.7536
-8.52122
68.3308
-8.60357
68.8845
-8.58554
69.4177
-8.47589
69.9332
-8.28108
70.4238
-7.99224
-7.60745
163.371
60.9268
159.758
58.55
156.154
58.7744
152.536
59.694
148.89
60.4547
145.201
61.1876
141.477
61.6854
137.737
61.7641
133.999
61.3998
130.285
60.5951
126.616
59.3707
123.011
57.7821
119.483
55.9066
116.046
53.8266
112.715
51.6112
109.508
49.2994
106.45
46.897
103.564
44.3904
100.872
41.77
98.3826
39.0499
96.0968
36.2752
94.003
33.515
92.0835
30.8466
90.3178
28.3391
88.6858
26.042
87.1699
23.9809
85.7559
22.1597
84.4321
20.5675
83.1889
19.1857
82.0177
17.9944
80.9101
16.976
79.8575
16.1162
78.851
15.4031
77.8813
14.826
76.9395
14.3732
76.0176
14.0284
75.1092
13.7703
74.2091
13.5745
73.3135
13.419
72.4188
13.2865
71.5225
13.1653
70.6226
13.0456
69.7191
12.9143
68.8144
12.7506
67.9136
12.526
67.0245
12.2101
66.1572
11.773
65.3242
11.1938
64.5368
10.4629
63.8091
9.57077
63.1507
8.53691
62.5717
7.39035
62.0785
6.16015
61.6713
4.92192
61.3452
3.71305
61.0952
2.58244
60.9163
1.52305
60.8039
0.544177
60.7533
-0.331103
60.7565
-1.09697
60.8027
-1.75982
60.8833
-2.32147
60.9884
-2.78234
61.1099
-3.14289
61.2395
-3.40524
61.3711
-3.57232
61.4985
-3.64968
61.6176
-3.64326
61.725
-3.56221
61.8191
-3.41714
61.8989
-3.21949
61.9648
-2.98011
62.0161
-2.70722
62.0544
-2.41212
62.082
-2.11557
62.0979
-1.81621
62.1029
-1.51828
62.1042
-1.25442
62.1068
-1.04641
62.1151
-0.899183
62.1359
-0.824435
62.179
-0.842735
62.2532
-0.971828
62.3696
-1.22111
62.5455
-1.62377
62.7957
-2.20469
63.1377
-2.97205
63.5978
-4.01171
64.1834
-5.25144
64.9439
-6.99344
65.7074
-8.32534
66.4034
-8.73734
67.0524
-8.98515
67.668
-9.13677
68.2528
-9.18835
68.8105
-9.14331
69.3449
-9.01026
69.8596
-8.79576
70.3487
-8.48136
-8.08156
160.794
64.7478
157.2
62.1441
153.624
62.3501
150.043
63.2741
146.44
64.0577
142.803
64.8242
139.142
65.3461
135.473
65.4328
131.815
65.0583
128.186
64.2234
124.607
62.9494
121.095
61.2943
117.663
59.3387
114.323
57.1659
111.091
54.8427
107.988
52.4029
105.036
49.8482
102.261
47.1651
99.6806
44.3502
97.3021
41.4281
95.1212
38.4557
93.1241
35.5117
91.2912
32.6792
89.6013
30.0286
88.035
27.608
86.5759
25.4396
85.2114
23.5239
83.9312
21.8472
82.7274
20.3892
81.5922
19.1292
80.5182
18.0497
79.497
17.1369
78.52
16.3796
77.5782
15.7674
76.6627
15.2883
75.7654
14.9253
74.8799
14.6553
74.0012
14.4528
73.125
14.2947
72.2476
14.1634
71.3659
14.0464
70.4778
13.9331
69.583
13.8086
68.6839
13.6492
67.7858
13.4236
66.8968
13.0985
66.0275
12.6414
65.1905
12.0305
64.3981
11.2545
63.665
10.3037
63.0013
9.19992
62.4176
7.97379
61.9207
6.6564
61.5097
5.33268
61.1796
4.04265
60.9236
2.83829
60.7368
1.70942
60.6147
0.666221
60.5539
-0.270721
60.5466
-1.08967
60.5819
-1.79541
60.6507
-2.39024
60.7431
-2.875
60.8511
-3.25081
60.9665
-3.52076
61.083
-3.68881
61.195
-3.76186
61.2986
-3.74677
61.3908
-3.65449
61.4705
-3.49682
61.5372
-3.28632
61.5914
-3.03415
61.6325
-2.74846
61.6626
-2.44218
61.6836
-2.13666
61.694
-1.8266
61.6955
-1.5198
61.695
-1.25395
61.6974
-1.04888
61.7076
-0.909333
61.7327
-0.8496
61.783
-0.892981
61.8668
-1.05573
61.9968
-1.35109
62.1921
-1.81911
62.4665
-2.47907
62.8406
-3.34621
63.3403
-4.5114
63.974
-5.88521
64.785
-7.80438
65.5708
-9.11125
66.2863
-9.45275
66.9518
-9.65072
67.5801
-9.76511
68.1741
-9.78229
68.7379
-9.70715
69.2759
-9.54827
69.7924
-9.31229
70.2827
-8.97165
-8.55637
157.818
68.267
154.443
65.5191
150.997
65.7961
147.501
66.7696
143.962
67.5963
140.385
68.4013
136.786
68.9441
133.187
69.0323
129.604
68.6407
126.058
67.7693
122.566
66.4404
119.145
64.715
115.807
62.6763
112.565
60.408
109.434
57.9734
106.435
55.4013
103.593
52.6895
100.931
49.8262
98.4654
46.8158
96.1985
43.6945
94.1228
40.5309
92.2215
37.4125
90.4737
34.4265
88.8579
31.6439
87.3556
29.1098
85.9518
26.8428
84.6356
24.8397
83.3984
23.0839
82.2334
21.5536
81.1341
20.228
80.0935
19.0898
79.1038
18.126
78.1566
17.3262
77.2429
16.6805
76.3539
16.1768
75.4815
15.797
74.6194
15.5168
73.7624
15.3091
72.9061
15.1504
72.0463
15.0225
71.1795
14.9125
70.3033
14.8086
69.4172
14.694
68.5237
14.5421
67.6282
14.3184
66.739
13.9869
65.8672
13.5122
65.0258
12.8715
64.2281
12.0513
63.4894
11.042
62.8203
9.86825
62.2325
8.56129
61.7326
7.15553
61.3186
5.74641
60.9848
4.37585
60.7238
3.09918
60.5296
1.90299
60.3981
0.797693
60.3275
-0.200505
60.3101
-1.07224
60.3346
-1.82023
60.3919
-2.44751
60.472
-2.95534
60.5669
-3.34557
60.6683
-3.62237
60.7704
-3.79084
60.8677
-3.85927
60.9566
-3.83552
61.0345
-3.73252
61.101
-3.56325
61.1558
-3.34129
61.1995
-3.07779
61.2318
-2.78083
61.255
-2.4653
61.2705
-2.15234
61.2767
-1.83269
61.2755
-1.51876
61.2742
-1.25258
61.2772
-1.05197
61.2898
-0.921977
61.3198
-0.879685
61.3776
-0.950777
61.4712
-1.1495
61.6156
-1.49541
61.831
-2.03468
62.1306
-2.77861
62.5393
-3.75498
63.0812
-5.05332
63.7693
-6.57339
64.6318
-8.66688
65.4349
-9.91445
66.1679
-10.1857
66.8501
-10.3329
67.4919
-10.4069
68.0961
-10.3865
68.6676
-10.2787
69.2113
-10.0919
69.732
-9.83297
70.2258
-9.46548
-9.03414
155.076
71.9055
151.699
68.8961
148.323
69.1719
144.913
70.1788
141.454
71.055
137.949
71.9066
134.42
72.4732
130.89
72.5614
127.383
72.1482
123.917
71.2348
120.511
69.8458
117.18
68.0459
113.936
65.9206
110.79
63.5533
107.76
61.0032
104.868
58.2933
102.138
55.4192
99.5916
52.3723
97.2409
49.1663
95.0855
45.8496
93.1138
42.5023
91.3065
39.2195
89.6413
36.0913
88.0972
33.1876
86.6567
30.55
85.3064
28.1927
84.0371
26.1087
82.8418
24.2787
81.7152
22.68
80.6513
21.2915
79.644
20.0968
78.6858
19.0838
77.7684
18.2432
76.883
17.5656
76.0206
17.0388
75.1734
16.6438
74.335
16.3547
73.5001
16.1436
72.6639
15.9861
71.8219
15.8639
70.9704
15.7636
70.1062
15.6723
69.2288
15.5708
68.3406
15.4297
67.4475
15.2112
66.5578
14.8759
65.683
14.3861
64.8367
13.7175
64.0333
12.854
63.2888
11.7863
62.6141
10.5423
62.0228
9.15241
61.5206
7.65697
61.104
6.16287
60.7666
4.71268
60.5008
3.3649
60.3001
2.10314
60.16
0.937824
60.0798
-0.120743
60.0524
-1.0448
60.0663
-1.83444
60.1123
-2.49345
60.1803
-3.02357
60.2623
-3.42745
60.3501
-3.71045
60.4382
-3.87887
60.5213
-3.94251
60.5961
-3.91022
60.6607
-3.79721
60.7149
-3.61746
60.7591
-3.38555
60.7936
-3.11224
60.8182
-2.80561
60.8357
-2.48268
60.8468
-2.16357
60.8495
-1.83537
60.8466
-1.51596
60.845
-1.25098
60.8492
-1.05622
60.8648
-0.93753
60.9001
-0.915043
60.9655
-1.01611
61.0691
-1.25319
61.2285
-1.65475
61.4649
-2.27117
61.7905
-3.10421
62.2363
-4.20086
62.8231
-5.64006
63.5752
-7.32551
64.4886
-9.58025
65.3015
-10.7274
66.05
-10.9342
66.7487
-11.0317
67.4044
-11.0626
68.0198
-11.0019
68.6004
-10.8593
69.1515
-10.643
69.6783
-10.3598
70.1778
-9.96493
-9.5169
152.491
75.5573
149.076
72.3104
145.703
72.5453
142.336
73.5453
138.941
74.4495
135.507
75.3405
132.05
75.9296
128.594
76.0169
125.163
75.5796
121.777
74.6199
118.456
73.1663
115.214
71.2876
112.063
69.072
109.014
66.6016
106.086
63.9308
103.301
61.0774
100.684
58.0355
98.2543
54.802
96.0189
51.4012
93.9738
47.8942
92.1039
44.3717
90.3876
40.9352
88.8021
37.6763
87.3268
34.6624
85.9455
31.9308
84.6466
29.491
83.4227
27.332
82.2684
25.4325
81.1793
23.7686
80.1504
22.3197
79.1761
21.0705
78.2493
20.0101
77.3617
19.1302
76.5045
18.4222
75.6689
17.8738
74.847
17.465
74.0326
17.1686
73.22
16.9555
72.4043
16.8012
71.5804
16.6871
70.7441
16.5992
69.892
16.5237
69.0232
16.4389
68.1404
16.3118
67.2492
16.1017
66.3586
15.7657
65.4803
15.2633
64.6286
14.5688
63.8191
13.6626
63.0684
12.5367
62.3876
11.2223
61.7935
9.74617
61.2898
8.15996
60.8707
6.58168
60.5297
5.05305
60.2593
3.63514
60.0528
2.30918
59.9048
1.0857
59.8154
-0.0317313
59.778
-1.00738
59.7813
-1.83809
59.8161
-2.52814
59.8721
-3.07979
59.9413
-3.49661
60.0159
-3.78523
60.0904
-3.95325
60.1598
-4.01203
60.2211
-3.97148
60.2731
-3.84926
60.316
-3.66033
60.3504
-3.42008
60.3768
-3.1386
60.3951
-2.82401
60.4079
-2.4954
60.4154
-2.17123
60.4155
-1.83545
60.4116
-1.51213
60.4103
-1.24971
60.4161
-1.0621
60.4349
-0.956354
60.4758
-0.955989
60.5485
-1.08884
60.6623
-1.36706
60.8377
-1.83021
61.0957
-2.5292
61.4481
-3.45666
61.9334
-4.68628
62.5677
-6.27432