/*--------------------------------*- C++ -*----------------------------------*\
| =========                 |                                                 |
| \\      /  F ield         | OpenFOAM: The Open Source CFD Toolbox           |
|  \\    /   O peration     | Version:  4.1                                   |
|   \\  /    A nd           | Web:      www.OpenFOAM.org                      |
|    \\/     M anipulation  |                                                 |
\*---------------------------------------------------------------------------*/
FoamFile
{
    version     2.0;
    format      ascii;
    class       volVectorField;
    location    "100";
    object      U;
}
// * * * * * * * * * * * * * * * * * * * * * * * * * * * * * * * * * * * * * //

dimensions      [0 1 -1 0 0 0 0];

internalField   nonuniform List<vector> 
26785
(
(3.67748e-18 0.00503278 1.40116)
(-1.20849e-17 0.00462087 1.29394)
(3.34254e-17 0.00424833 1.19912)
(-2.52155e-16 0.00397278 1.11549)
(-9.10946e-17 0.00374867 1.03795)
(-6.32322e-16 0.00354905 0.966273)
(-6.65024e-16 0.00336255 0.90047)
(-6.69058e-16 0.0031815 0.839906)
(-2.49231e-18 0.00300192 0.784196)
(-4.00667e-16 0.00282335 0.73312)
(-4.07863e-16 0.00264765 0.686418)
(-3.23389e-16 0.00247775 0.6438)
(-1.79615e-16 0.00231676 0.604953)
(3.65507e-17 0.00216712 0.569543)
(1.86694e-16 0.00203016 0.537225)
(2.21054e-16 0.00190581 0.507662)
(3.41008e-16 0.00179279 0.480547)
(3.92988e-16 0.00168895 0.455614)
(4.81515e-16 0.001592 0.432646)
(-1.96618e-16 0.00150002 0.411471)
(-5.71641e-16 0.00141199 0.39195)
(-6.02298e-16 0.0013278 0.373967)
(-1.40705e-15 0.00124806 0.357409)
(-1.69622e-15 0.00117364 0.342162)
(-1.77438e-15 0.00110529 0.328107)
(-1.68002e-15 0.00104339 0.315123)
(-1.71391e-15 0.00098784 0.303094)
(-1.6276e-15 0.000938161 0.29191)
(-2.17675e-15 0.00089364 0.281474)
(-3.03413e-15 0.000853484 0.271703)
(-3.31035e-15 0.000816944 0.262524)
(-3.12733e-15 0.000783364 0.25388)
(-3.31701e-15 0.000752209 0.245722)
(-2.21145e-15 0.000723044 0.238008)
(-3.62014e-15 0.000695512 0.230704)
(-3.76507e-15 0.000669261 0.223783)
(-3.72223e-15 0.000643947 0.217219)
(-3.63226e-15 0.000619275 0.210995)
(-3.47656e-15 0.000595131 0.205096)
(-3.67125e-15 0.000571622 0.199509)
(-2.15191e-15 0.000549007 0.194221)
(-1.91155e-15 0.000527554 0.189216)
(-1.51121e-15 0.000507341 0.184476)
(-3.05922e-15 0.000488186 0.179986)
(-2.817e-15 0.000469641 0.175729)
(-4.21448e-15 0.000451179 0.171697)
(-4.53438e-15 0.000432299 0.167882)
(-4.52933e-15 0.000412539 0.164284)
(-4.76117e-15 0.000391564 0.160904)
(-4.95151e-15 0.000369332 0.157746)
(-3.41547e-15 0.000346501 0.154815)
(-3.23053e-15 0.000324217 0.152109)
(-3.16388e-15 0.000303158 0.149612)
(-3.50692e-15 0.000283703 0.147315)
(-3.68415e-15 0.000267177 0.1452)
(-3.33373e-15 0.000254057 0.143242)
(-5.36675e-15 0.000244847 0.141406)
(-6.1079e-15 0.000238875 0.139661)
(-6.40404e-15 0.000234118 0.137984)
(-6.573e-15 0.000230503 0.136366)
(-6.5953e-15 0.000227987 0.134797)
(-7.01734e-15 0.000226322 0.133268)
(-6.93805e-15 0.000225276 0.131771)
(-8.2589e-15 0.000224769 0.1303)
(-7.59649e-15 0.000224736 0.12885)
(-6.54642e-15 0.000225191 0.127416)
(-5.36603e-15 0.000226127 0.125993)
(-3.93249e-15 0.00022758 0.124575)
(-3.13181e-15 0.000229539 0.123157)
(-2.25654e-15 0.000232005 0.121734)
(-3.41516e-15 0.000234914 0.120303)
(-3.3697e-15 0.000238202 0.118858)
(-3.43947e-15 0.000241743 0.117397)
(-3.64601e-15 0.000245435 0.115919)
(-4.00743e-15 0.000249084 0.114422)
(-2.5191e-15 0.000252461 0.112908)
(-2.91362e-15 0.000255318 0.111378)
(-3.54693e-15 0.000257417 0.109836)
(-4.26592e-15 0.000258455 0.108288)
(-5.22069e-15 0.000258159 0.106741)
(-5.89489e-15 0.000256253 0.105204)
(-8.97038e-15 0.000252447 0.103688)
(-1.07749e-14 0.000246511 0.102202)
(-1.13233e-14 0.000238095 0.100761)
(-1.31149e-14 0.000227112 0.0993788)
(-1.27525e-14 0.000213353 0.0980695)
(-1.16253e-14 0.000196212 0.0968496)
(-9.79122e-15 0.000175405 0.0957333)
(-7.08163e-15 0.000148764 0.0947605)
(-3.90127e-15 0.000118848 0.0939207)
(-8.80243e-16 5.29396e-05 0.0933097)
(1.7253e-15 -4.0568e-05 0.093087)
(3.93061e-15 -0.000105634 0.093317)
(4.77482e-15 -0.00013884 0.0938021)
(5.09468e-15 -0.00015718 0.0943976)
(2.65646e-15 -0.0001669 0.0950811)
(1.03786e-15 -0.000171252 0.0957709)
(-8.22033e-16 -0.000167657 0.0965623)
(-2.71561e-15 -0.00016203 0.0970519)
(-5.70259e-15 -0.000137191 0.0981706)
(1.63998e-19 0.0138457 1.44938)
(-3.66907e-17 0.0133555 1.3507)
(-2.6675e-18 0.0127045 1.2606)
(-6.09316e-17 0.0121326 1.17872)
(1.14735e-16 0.011578 1.10117)
(-4.84645e-16 0.0110426 1.02836)
(-1.23166e-16 0.0105227 0.9607)
(-6.40234e-17 0.0100031 0.897827)
(-3.75838e-16 0.00947769 0.839531)
(-3.33205e-16 0.00894804 0.785705)
(-2.65918e-16 0.00842006 0.736177)
(-1.84939e-16 0.00790282 0.690728)
(-1.00736e-16 0.00740635 0.649107)
(1.09328e-16 0.00693929 0.611026)
(-1.30974e-16 0.00650736 0.576174)
(-8.82649e-17 0.00611243 0.544234)
(6.31134e-16 0.00575252 0.514901)
(6.81736e-16 0.00542253 0.487901)
(6.53979e-16 0.00511585 0.463002)
(5.53297e-16 0.00482618 0.440015)
(-5.55337e-16 0.00454929 0.418794)
(2.71882e-17 0.00428371 0.399214)
(-7.32011e-16 0.00403049 0.381164)
(-1.02559e-15 0.00379215 0.364531)
(-1.2117e-15 0.00357139 0.349195)
(-1.38416e-15 0.00337006 0.335033)
(-1.49106e-15 0.00318868 0.321922)
(-1.62424e-15 0.00302641 0.309742)
(-1.61885e-15 0.00288143 0.298385)
(-2.44164e-15 0.00275143 0.287756)
(-2.49845e-15 0.00263401 0.277775)
(-2.5825e-15 0.00252699 0.268374)
(-2.65212e-15 0.00242845 0.259496)
(-2.43881e-15 0.0023368 0.251097)
(-3.2597e-15 0.00225071 0.243137)
(-3.29194e-15 0.00216891 0.235585)
(-3.27843e-15 0.00209016 0.228415)
(-3.25576e-15 0.0020133 0.221608)
(-3.16525e-15 0.00193752 0.21515)
(-3.13727e-15 0.0018627 0.209027)
(-3.10944e-15 0.00178935 0.20323)
(-1.50497e-15 0.00171836 0.197745)
(-1.47917e-15 0.00165033 0.192558)
(-1.22968e-15 0.00158529 0.187651)
(-1.68408e-15 0.00152234 0.183008)
(-2.09397e-15 0.00146018 0.178617)
(-4.15732e-15 0.00139742 0.174468)
(-4.13109e-15 0.00133279 0.170557)
(-5.78367e-15 0.00126539 0.166883)
(-4.04385e-15 0.00119443 0.163446)
(-5.05781e-15 0.00112101 0.160252)
(-4.88549e-15 0.00104832 0.157302)
(-4.35784e-15 0.00097866 0.154584)
(-5.79494e-15 0.000913207 0.152089)
(-4.06593e-15 0.000855206 0.149803)
(-3.69183e-15 0.00080671 0.147707)
(-5.51292e-15 0.000770745 0.145763)
(-5.97215e-15 0.000746274 0.143939)
(-4.61685e-15 0.000727271 0.142204)
(-4.86611e-15 0.000712528 0.140542)
(-5.03644e-15 0.000701607 0.138941)
(-6.98925e-15 0.000693663 0.137388)
(-7.24877e-15 0.000687946 0.135875)
(-5.78906e-15 0.000684127 0.134391)
(-5.6709e-15 0.000682013 0.132931)
(-5.37296e-15 0.000681641 0.131485)
(-4.70099e-15 0.000683049 0.130047)
(-3.21031e-15 0.000686364 0.128609)
(-5.08783e-15 0.000691625 0.127165)
(-4.08946e-15 0.000698844 0.125709)
(-2.92545e-15 0.000707875 0.124234)
(-3.91751e-15 0.0007185 0.122736)
(-3.32926e-15 0.000730324 0.121212)
(-3.03337e-15 0.000742967 0.119659)
(-1.10303e-15 0.00075582 0.118078)
(-2.85303e-15 0.000768123 0.116469)
(-3.11742e-15 0.000779088 0.114835)
(-3.56927e-15 0.00078791 0.113181)
(-4.14559e-15 0.000793609 0.111514)
(-4.64723e-15 0.000795274 0.109841)
(-5.13719e-15 0.000791993 0.108174)
(-7.94754e-15 0.000782793 0.106524)
(-9.62773e-15 0.00076686 0.104903)
(-9.03925e-15 0.000742999 0.103328)
(-9.96548e-15 0.000710784 0.101812)
(-1.19849e-14 0.00066959 0.100374)
(-1.34601e-14 0.000617722 0.0990325)
(-1.23093e-14 0.000554013 0.0978002)
(-8.09307e-15 0.00047089 0.096725)
(-5.48156e-15 0.000376317 0.0957852)
(-2.75693e-15 0.00019544 0.0951228)
(-3.75313e-17 -5.22704e-05 0.0947442)
(2.82862e-15 -0.000237092 0.0947838)
(1.31784e-15 -0.000346036 0.0950891)
(2.71673e-15 -0.000413296 0.0955294)
(3.81385e-15 -0.000451957 0.0960874)
(2.00831e-15 -0.000471337 0.0966786)
(1.07868e-15 -0.000468206 0.0973952)
(3.64714e-17 -0.000463259 0.0978201)
(-2.38012e-15 -0.000411104 0.0989638)
(-2.9789e-17 0.0224369 1.47676)
(1.56466e-16 0.0215985 1.381)
(-2.51366e-17 0.0207718 1.29414)
(1.42691e-16 0.0200993 1.21491)
(4.11821e-16 0.0193784 1.13919)
(-8.52316e-17 0.018638 1.06735)
(3.18878e-16 0.0178835 0.999882)
(3.61749e-16 0.0170956 0.936575)
(2.43757e-16 0.0162742 0.877357)
(1.46777e-16 0.0154281 0.82224)
(1.02644e-16 0.0145702 0.771159)
(1.07549e-16 0.0137173 0.723987)
(1.24836e-16 0.0128883 0.680552)
(2.61686e-16 0.0120992 0.640633)
(4.69445e-16 0.0113621 0.603969)
(-1.84505e-17 0.0106826 0.570281)
(7.33109e-16 0.0100599 0.539284)
(4.62076e-16 0.00948721 0.510715)
(7.1282e-16 0.00895455 0.484346)
(2.60529e-16 0.0084515 0.459989)
(-2.39424e-16 0.00797044 0.437495)
(6.86857e-16 0.00750831 0.416738)
(5.04377e-16 0.00706648 0.397606)
(-4.25298e-16 0.00664916 0.379981)
(-6.11985e-16 0.00626131 0.36374)
(-1.14971e-15 0.00590664 0.348752)
(-1.72032e-15 0.00558657 0.334886)
(-1.6542e-15 0.00530014 0.322014)
(-1.50173e-15 0.00504449 0.310019)
(-1.53715e-15 0.00481571 0.298801)
(-1.63079e-15 0.00460962 0.288272)
(-1.42494e-15 0.00442225 0.278359)
(-2.05043e-15 0.00425016 0.269003)
(-2.38735e-15 0.00409039 0.260155)
(-2.59661e-15 0.00394047 0.251774)
(-2.49641e-15 0.00379815 0.243828)
(-2.53433e-15 0.00366125 0.236289)
(-2.71138e-15 0.00352764 0.229135)
(-2.54787e-15 0.00339574 0.222352)
(-2.5331e-15 0.00326504 0.215926)
(-2.66509e-15 0.00313618 0.209845)
(-2.38545e-15 0.00301068 0.204097)
(-2.05564e-15 0.00288986 0.198665)
(-2.0688e-15 0.00277409 0.19353)
(-2.26622e-15 0.00266225 0.188676)
(-2.54943e-15 0.00255233 0.184086)
(-3.03573e-15 0.00244197 0.17975)
(-3.19778e-15 0.00232897 0.175664)
(-3.55879e-15 0.00221204 0.171825)
(-3.89351e-15 0.0020892 0.168233)
(-4.26463e-15 0.00196159 0.164895)
(-4.8739e-15 0.00183431 0.161812)
(-5.07503e-15 0.00171116 0.158975)
(-5.15637e-15 0.00159425 0.156375)
(-4.69543e-15 0.00148883 0.153998)
(-5.64168e-15 0.00139911 0.151829)
(-5.88163e-15 0.00133028 0.149827)
(-4.38976e-15 0.00128111 0.147965)
(-4.30797e-15 0.00124339 0.146204)
(-4.03143e-15 0.00121441 0.144526)
(-4.30806e-15 0.00119291 0.142912)
(-4.68209e-15 0.00117741 0.141348)
(-5.1008e-15 0.00116672 0.13982)
(-5.22616e-15 0.00116021 0.138317)
(-5.14155e-15 0.00115756 0.136828)
(-4.86306e-15 0.00115871 0.135344)
(-2.83455e-15 0.00116369 0.133854)
(-2.27579e-15 0.00117254 0.132351)
(-2.14145e-15 0.00118523 0.130828)
(-2.11121e-15 0.00120159 0.129276)
(-1.60686e-15 0.00122124 0.127693)
(-1.69494e-15 0.00124362 0.126073)
(-2.29637e-16 0.00126793 0.124415)
(1.04436e-15 0.00129336 0.122718)
(3.09585e-16 0.00131876 0.120983)
(-6.79086e-16 0.00134273 0.119215)
(-1.8056e-15 0.00136391 0.117418)
(-2.6384e-15 0.00138087 0.115598)
(-3.3362e-15 0.00139195 0.113765)
(-4.05632e-15 0.00139564 0.111929)
(-4.75612e-15 0.00139041 0.1101)
(-5.52913e-15 0.00137453 0.108294)
(-8.65584e-15 0.00134657 0.106524)
(-9.59707e-15 0.00130457 0.104807)
(-1.0207e-14 0.00124788 0.10316)
(-1.08202e-14 0.00117523 0.101601)
(-1.09579e-14 0.00108401 0.10015)
(-1.04575e-14 0.000971573 0.0988214)
(-8.4178e-15 0.000826305 0.0976675)
(-7.92853e-15 0.000655641 0.0966515)
(-4.79311e-15 0.000368005 0.0959618)
(-1.13068e-15 2.42639e-06 0.0955226)
(3.04587e-16 -0.000280547 0.0954636)
(2.75704e-15 -0.000466308 0.0956518)
(4.55901e-15 -0.000592395 0.0959745)
(6.38702e-15 -0.000672044 0.0964313)
(5.23769e-15 -0.000717475 0.096942)
(5.33264e-15 -0.000727444 0.0975917)
(5.00398e-15 -0.000735803 0.0979813)
(2.77986e-15 -0.000674448 0.0990509)
(-3.64365e-17 0.031009 1.49158)
(1.78053e-16 0.029765 1.39653)
(3.03586e-16 0.0286626 1.31096)
(5.07397e-16 0.0278309 1.23328)
(5.29478e-16 0.0269548 1.15913)
(7.05982e-16 0.0260615 1.08867)
(6.9402e-16 0.0251385 1.02223)
(4.54648e-16 0.0241492 0.959526)
(4.49965e-16 0.0230932 0.900504)
(4.44994e-16 0.0219832 0.845206)
(4.20488e-16 0.0208375 0.793623)
(4.24958e-16 0.0196811 0.745698)
(3.72444e-16 0.0185415 0.701328)
(8.28503e-16 0.017444 0.660355)
(9.38247e-16 0.016408 0.622575)
(8.33646e-16 0.0154447 0.587753)
(7.84542e-16 0.0145558 0.555638)
(1.30033e-15 0.0137344 0.525993)
(7.49462e-16 0.0129677 0.498605)
(6.2166e-16 0.0122419 0.473301)
(2.16441e-16 0.0115464 0.449937)
(6.62067e-16 0.010877 0.428392)
(6.56296e-16 0.0102359 0.408548)
(4.41181e-16 0.00962941 0.390284)
(1.77884e-16 0.00906501 0.373468)
(-4.66996e-17 0.00854845 0.357962)
(-4.54549e-16 0.00808215 0.343624)
(-7.00575e-16 0.00766495 0.330322)
(-7.67624e-16 0.00729287 0.317935)
(-8.89152e-16 0.00696028 0.306354)
(-4.80474e-16 0.00666108 0.295491)
(-1.42312e-16 0.00638946 0.28527)
(-4.66587e-16 0.00614032 0.275629)
(-6.89576e-16 0.00590932 0.266517)
(-1.96681e-15 0.00569281 0.257892)
(-7.89679e-16 0.00548752 0.249719)
(-2.17066e-15 0.00529029 0.241969)
(-2.49861e-15 0.00509804 0.234619)
(-1.0481e-15 0.00490834 0.227652)
(-2.32547e-15 0.00472026 0.221054)
(-2.44254e-15 0.00453454 0.214812)
(-1.76098e-15 0.00435328 0.208912)
(-1.71651e-15 0.00417846 0.203336)
(-3.33212e-15 0.00401082 0.198066)
(-3.5218e-15 0.0038489 0.193082)
(-3.8369e-15 0.00368997 0.188371)
(-2.99108e-15 0.00353069 0.183922)
(-2.0683e-15 0.00336768 0.17973)
(-2.36046e-15 0.00319935 0.175792)
(-4.5666e-15 0.00302266 0.172108)
(-4.80637e-15 0.00283868 0.168685)
(-6.8416e-15 0.00265418 0.165522)
(-5.79491e-15 0.00247477 0.16261)
(-4.40807e-15 0.00230373 0.159941)
(-4.45673e-15 0.00214809 0.157499)
(-4.16541e-15 0.00201444 0.155272)
(-5.83541e-15 0.00190934 0.153217)
(-4.0795e-15 0.00183149 0.151312)
(-4.25658e-15 0.0017722 0.149516)
(-2.77443e-15 0.00172732 0.147805)
(-3.57376e-15 0.00169449 0.146159)
(-2.91227e-15 0.00167151 0.14456)
(-3.6072e-15 0.00165669 0.142993)
(-4.16598e-15 0.00164907 0.141446)
(-4.53936e-15 0.00164807 0.139905)
(-3.50211e-15 0.00165344 0.138359)
(-3.20798e-15 0.001665 0.1368)
(-4.41402e-15 0.00168259 0.135218)
(-3.82892e-15 0.00170592 0.133606)
(-3.4684e-15 0.00173451 0.131958)
(-1.36504e-15 0.00176762 0.130271)
(-1.45627e-15 0.00180421 0.128541)
(4.36226e-16 0.00184299 0.126769)
(-7.32766e-16 0.00188271 0.124955)
(-2.63825e-15 0.0019216 0.123102)
(-1.36989e-15 0.00195761 0.121216)
(-2.48525e-15 0.00198881 0.119303)
(-1.78687e-15 0.00201313 0.117372)
(-2.52344e-15 0.00202844 0.115431)
(-3.31683e-15 0.00203263 0.113492)
(-3.95612e-15 0.00202337 0.111567)
(-4.94054e-15 0.00199814 0.109672)
(-6.35175e-15 0.00195501 0.107821)
(-7.74004e-15 0.00189155 0.106031)
(-8.98291e-15 0.00180673 0.10432)
(-1.01041e-14 0.00169838 0.102705)
(-8.7664e-15 0.00156301 0.101209)
(-8.56721e-15 0.00139594 0.0998444)
(-7.22005e-15 0.00118382 0.0986678)
(-7.2379e-15 0.000930046 0.0976272)
(-2.59506e-15 0.000532848 0.096954)
(-6.16189e-16 6.55112e-05 0.0965078)
(8.15994e-16 -0.000296912 0.0964123)
(3.89641e-15 -0.000551393 0.0965286)
(6.19012e-15 -0.000734849 0.0967581)
(1.00097e-14 -0.000857661 0.0971192)
(1.0666e-14 -0.000933159 0.0975409)
(1.39213e-14 -0.000961026 0.0981029)
(1.24576e-14 -0.000982236 0.0984312)
(9.25533e-15 -0.00091184 0.0993954)
(-4.20693e-17 0.039057 1.49669)
(1.58303e-16 0.0375989 1.40209)
(2.18276e-16 0.0363363 1.3173)
(5.17131e-16 0.0353548 1.24058)
(6.49617e-16 0.0343152 1.16755)
(2.70658e-16 0.0332728 1.09826)
(7.44101e-16 0.032202 1.03293)
(8.00709e-16 0.0310465 0.971173)
(8.14751e-16 0.0297986 0.912864)
(7.61971e-16 0.0284695 0.858011)
(6.59622e-16 0.0270785 0.806602)
(7.42318e-16 0.0256556 0.758602)
(7.04086e-16 0.0242361 0.713947)
(8.70878e-16 0.0228534 0.672528)
(1.04879e-15 0.0215349 0.634188)
(8.05202e-16 0.0202981 0.598733)
(8.3722e-16 0.0191481 0.565954)
(1.00013e-15 0.0180787 0.535643)
(9.56437e-16 0.0170751 0.507615)
(8.90539e-16 0.0161212 0.481717)
(6.57964e-16 0.0152045 0.457816)
(1.01498e-15 0.0143206 0.435795)
(9.11944e-16 0.0134732 0.415534)
(8.78103e-16 0.0126714 0.396904)
(6.86449e-16 0.0119252 0.379765)
(5.96007e-16 0.0112426 0.36397)
(-1.65545e-16 0.0106266 0.349371)
(9.22049e-17 0.0100757 0.33583)
(3.61143e-17 0.00958459 0.323223)
(-1.96041e-16 0.00914579 0.31144)
(-3.29358e-16 0.00875122 0.300391)
(-3.61097e-16 0.00839321 0.29)
(-5.72631e-16 0.00806501 0.280202)
(1.34689e-17 0.0077609 0.270947)
(-1.09306e-15 0.00747607 0.26219)
(-1.01395e-15 0.00720625 0.253895)
(-1.11649e-15 0.00694729 0.246032)
(-1.37491e-15 0.00669514 0.238577)
(-1.2743e-15 0.00644659 0.231512)
(-1.28079e-15 0.00620028 0.224821)
(-1.5729e-15 0.00595707 0.21849)
(-1.7184e-15 0.00571954 0.212505)
(-3.04855e-15 0.00549029 0.206847)
(-3.59555e-15 0.0052703 0.201497)
(-4.07485e-15 0.00505774 0.196437)
(-4.48143e-15 0.00484912 0.191653)
(-4.68065e-15 0.00464019 0.187135)
(-4.66594e-15 0.00442634 0.182878)
(-4.36313e-15 0.00420572 0.178879)
(-5.99156e-15 0.00397454 0.175139)
(-5.79767e-15 0.00373375 0.17166)
(-7.27809e-15 0.00349181 0.168444)
(-6.94163e-15 0.00325586 0.165478)
(-6.12779e-15 0.00303082 0.162754)
(-5.62611e-15 0.00282502 0.160254)
(-3.67505e-15 0.0026475 0.15797)
(-3.74623e-15 0.00250536 0.155859)
(-3.36215e-15 0.00239708 0.153904)
(-4.95215e-15 0.0023151 0.152062)
(-4.64547e-15 0.00225407 0.150304)
(-6.04634e-15 0.00221021 0.14861)
(-5.53704e-15 0.00218054 0.146961)
(-5.20719e-15 0.00216283 0.14534)
(-5.02995e-15 0.00215571 0.143733)
(-4.43984e-15 0.00215828 0.142126)
(-6.98431e-15 0.00217 0.14051)
(-6.04958e-15 0.00219036 0.138874)
(-6.95715e-15 0.0022189 0.137209)
(-5.75432e-15 0.00225497 0.13551)
(-6.30632e-15 0.00229764 0.133771)
(-5.03545e-15 0.00234574 0.13199)
(-4.27864e-15 0.00239766 0.130165)
(-1.60092e-15 0.00245163 0.128298)
(-2.78862e-15 0.00250589 0.12639)
(-2.83867e-15 0.00255808 0.124447)
(-2.39758e-15 0.00260548 0.122473)
(-4.70981e-15 0.00264554 0.120477)
(-3.33328e-15 0.00267577 0.118469)
(-3.54771e-15 0.00269376 0.116457)
(-2.44529e-15 0.00269658 0.114452)
(-2.63489e-15 0.00268072 0.112468)
(-6.54682e-15 0.0026433 0.110523)
(-7.24842e-15 0.00258211 0.108629)
(-7.17739e-15 0.0024943 0.106803)
(-8.77199e-15 0.00237828 0.105061)
(-9.5336e-15 0.00223057 0.103424)
(-9.58782e-15 0.00204708 0.101914)
(-8.98171e-15 0.00182075 0.100543)
(-7.78424e-15 0.00153805 0.0993688)
(-4.23644e-15 0.00119615 0.0983271)
(-1.433e-15 0.000688437 0.0976904)
(2.00408e-15 0.000135256 0.097252)
(3.23986e-15 -0.000286985 0.0971546)
(6.10491e-15 -0.000598554 0.0972307)
(8.52913e-15 -0.000833842 0.0973935)
(1.23815e-14 -0.000998435 0.097678)
(1.52329e-14 -0.00110497 0.0980226)
(1.61062e-14 -0.00115347 0.0985021)
(1.2004e-14 -0.00118775 0.0987704)
(1.41719e-14 -0.00111733 0.0996254)
(-3.64878e-17 0.0478912 1.49225)
(1.96219e-16 0.045467 1.39926)
(1.93723e-16 0.0438461 1.31581)
(4.81625e-16 0.0426722 1.24022)
(6.28993e-16 0.0414622 1.16823)
(5.21041e-16 0.0402692 1.09999)
(7.14652e-16 0.0390545 1.03569)
(1.15609e-15 0.0377455 0.97492)
(1.14625e-15 0.0363282 0.917495)
(6.98708e-16 0.0348093 0.863374)
(5.68202e-16 0.033206 0.81251)
(9.79548e-16 0.0315499 0.764857)
(9.95451e-16 0.029881 0.720359)
(9.92333e-16 0.0282393 0.678931)
(1.10222e-15 0.0266594 0.64045)
(1.0927e-15 0.0251646 0.604756)
(1.12657e-15 0.023764 0.571675)
(7.71904e-16 0.022452 0.541035)
(7.90162e-16 0.021213 0.512681)
(1.28475e-15 0.0200293 0.48648)
(1.54706e-15 0.0188879 0.462314)
(1.17344e-15 0.0177855 0.440071)
(1.38779e-15 0.0167282 0.419628)
(1.73705e-15 0.0157283 0.400847)
(9.42754e-16 0.0147987 0.383579)
(8.25084e-16 0.013949 0.367669)
(5.0293e-16 0.013183 0.352965)
(2.33155e-16 0.0124982 0.339326)
(2.74755e-16 0.0118879 0.326626)
(-3.08416e-16 0.0113427 0.314757)
(-3.51251e-16 0.0108523 0.303627)
(-9.56352e-16 0.0104074 0.293161)
(-9.3347e-16 0.00999963 0.283296)
(-8.60648e-16 0.00962191 0.273978)
(-5.0371e-16 0.00926835 0.265163)
(-2.11128e-17 0.00893367 0.256815)
(-3.52657e-16 0.00861275 0.248902)
(-6.50639e-16 0.00830058 0.241399)
(-9.00148e-16 0.00799316 0.234289)
(-7.65955e-16 0.00768876 0.227554)
(-2.0761e-15 0.00738833 0.22118)
(-3.34255e-15 0.00709491 0.21515)
(-3.38449e-15 0.00681158 0.209447)
(-5.00091e-15 0.00653946 0.204052)
(-5.21236e-15 0.00627631 0.198947)
(-5.38161e-15 0.00601787 0.194118)
(-5.6346e-15 0.00575901 0.189557)
(-5.76889e-15 0.00549407 0.18526)
(-5.68469e-15 0.00522089 0.181221)
(-5.58514e-15 0.00493514 0.177441)
(-5.18591e-15 0.00463788 0.173924)
(-4.71159e-15 0.0043391 0.170665)
(-4.4139e-15 0.0040471 0.167655)
(-4.21013e-15 0.00376899 0.164883)
(-4.15304e-15 0.0035139 0.162331)
(-3.86104e-15 0.00329335 0.159992)
(-3.7318e-15 0.00311411 0.157825)
(-3.2523e-15 0.00297446 0.155819)
(-4.88808e-15 0.0028694 0.153926)
(-5.00305e-15 0.00279231 0.152118)
(-5.43542e-15 0.00273791 0.150372)
(-4.20841e-15 0.00270233 0.148668)
(-4.48101e-15 0.00268275 0.146989)
(-4.66532e-15 0.00267736 0.14532)
(-4.54019e-15 0.00268485 0.143648)
(-5.63308e-15 0.00270427 0.141962)
(-6.57289e-15 0.00273475 0.140253)
(-7.69256e-15 0.00277541 0.138512)
(-6.45774e-15 0.00282515 0.136734)
(-6.93959e-15 0.00288257 0.134916)
(-5.76827e-15 0.00294596 0.133054)
(-5.01384e-15 0.00301314 0.13115)
(-3.83859e-15 0.00308189 0.129205)
(-3.76707e-15 0.00314992 0.127224)
(-8.66801e-16 0.00321427 0.12521)
(-1.13913e-15 0.00327156 0.123171)
(-2.3869e-15 0.00331868 0.121117)
(-1.53125e-15 0.00335315 0.119055)
(-2.26496e-15 0.0033721 0.116994)
(-2.97812e-15 0.00337116 0.114947)
(-3.25784e-15 0.003346 0.112929)
(-4.34537e-15 0.00329392 0.110956)
(-4.38071e-15 0.00321227 0.109039)
(-1.50514e-15 0.0030975 0.107196)
(-3.79523e-15 0.00294746 0.105443)
(-8.27438e-15 0.00275726 0.103802)
(-8.85034e-15 0.00252236 0.102293)
(-8.45197e-15 0.00223286 0.10093)
(-7.02826e-15 0.00187641 0.0997704)
(-4.55346e-15 0.00144244 0.0987396)
(-1.50471e-15 0.00082494 0.0981524)
(2.29161e-15 0.000199119 0.0977255)
(3.87436e-15 -0.000268746 0.0976478)
(6.61388e-15 -0.000627519 0.0977051)
(1.0494e-14 -0.000908165 0.0978231)
(1.44973e-14 -0.00111105 0.0980507)
(1.60972e-14 -0.00124728 0.0983343)
(1.66992e-14 -0.00131707 0.0987438)
(1.83729e-14 -0.00136333 0.0989611)
(2.0125e-14 -0.00129772 0.0997178)
(4.07252e-18 0.0554513 1.48258)
(4.17815e-17 0.0528314 1.39085)
(2.54892e-16 0.0510798 1.30873)
(5.20884e-16 0.0497663 1.23433)
(6.76938e-16 0.0483964 1.16344)
(3.53728e-16 0.0470544 1.09624)
(4.17309e-16 0.0456965 1.03293)
(6.38513e-16 0.0442382 0.97313)
(6.36918e-16 0.0426614 0.916625)
(4.5649e-16 0.0409693 0.863343)
(5.5287e-16 0.0391757 0.813204)
(6.83502e-16 0.0373116 0.766135)
(8.41131e-16 0.0354193 0.722072)
(9.41275e-16 0.0335432 0.680935)
(1.11141e-15 0.0317235 0.642615)
(8.6432e-16 0.0299884 0.606978)
(9.9617e-16 0.02835 0.57388)
(1.49968e-15 0.0268037 0.54318)
(1.28117e-15 0.0253335 0.514752)
(1.71746e-15 0.023921 0.488487)
(1.13054e-15 0.0225542 0.46428)
(8.34046e-16 0.0212321 0.44202)
(1.19213e-15 0.0199644 0.42158)
(1.34763e-15 0.0187667 0.402815)
(1.18927e-15 0.0176549 0.385568)
(1.09276e-15 0.0166401 0.369676)
(4.05619e-16 0.0157261 0.354985)
(-3.17224e-16 0.0149096 0.341351)
(4.39417e-16 0.0141818 0.328651)
(-1.29567e-16 0.0135315 0.316778)
(-2.55332e-16 0.0129464 0.305642)
(-4.57187e-16 0.0124153 0.29517)
(-6.55282e-16 0.0119285 0.285297)
(-8.25596e-16 0.0114777 0.275973)
(-9.41008e-16 0.0110559 0.267152)
(-7.48067e-16 0.0106569 0.258796)
(-7.58999e-16 0.0102746 0.250875)
(-7.78205e-16 0.00990302 0.243363)
(-9.54208e-16 0.00953736 0.236242)
(-7.31999e-16 0.00917561 0.229494)
(-2.28696e-15 0.00881881 0.223105)
(-2.5677e-15 0.00847041 0.217058)
(-4.32544e-15 0.00813387 0.211334)
(-4.86743e-15 0.00781035 0.205915)
(-5.29811e-15 0.00749714 0.200785)
(-5.62785e-15 0.00718922 0.19593)
(-6.17857e-15 0.00688059 0.191342)
(-5.53863e-15 0.0065648 0.187017)
(-5.01177e-15 0.00623933 0.182951)
(-3.12311e-15 0.00589938 0.179143)
(-1.35557e-15 0.00554656 0.175595)
(2.78392e-16 0.00519192 0.172302)
(-8.07134e-16 0.00484468 0.169256)
(-1.89024e-15 0.00451487 0.166443)
(-2.72578e-15 0.00421171 0.163843)
(-3.10178e-15 0.00394934 0.161455)
(-3.63202e-15 0.00373325 0.159238)
(-3.53253e-15 0.00356174 0.157182)
(-5.11765e-15 0.0034335 0.155241)
(-5.10155e-15 0.00334058 0.153384)
(-5.18617e-15 0.00327608 0.151588)
(-5.13883e-15 0.00323523 0.149833)
(-5.49112e-15 0.00321462 0.148099)
(-4.32066e-15 0.0032119 0.146373)
(-4.83624e-15 0.00322529 0.144641)
(-3.56767e-15 0.0032534 0.142891)
(-5.37527e-15 0.00329488 0.141116)
(-6.27035e-15 0.00334837 0.139308)
(-4.81385e-15 0.00341228 0.137461)
(-5.15692e-15 0.00348465 0.135573)
(-3.55115e-15 0.00356321 0.133644)
(-3.83096e-15 0.0036452 0.131674)
(-2.60571e-15 0.00372795 0.129666)
(-2.18665e-15 0.00380872 0.127626)
(-1.3109e-15 0.00388392 0.125557)
(-1.03857e-15 0.00394937 0.123469)
(-1.09996e-16 0.00400178 0.121372)
(1.71174e-16 0.00403908 0.119272)
(-1.23471e-15 0.00405717 0.117177)
(-2.90026e-15 0.00404997 0.115102)
(-2.47143e-15 0.00401321 0.113065)
(-3.98848e-15 0.00394453 0.111076)
(-3.97514e-15 0.00384024 0.109148)
(-1.47479e-15 0.0036961 0.107299)
(-2.39958e-15 0.00350949 0.105546)
(-4.19924e-15 0.00327399 0.103909)
(-5.67759e-15 0.00298475 0.10241)
(-6.55276e-15 0.00262853 0.101064)
(-4.52959e-15 0.00219547 0.0999256)
(-2.98587e-15 0.00166521 0.0989137)
(-5.99873e-16 0.000940541 0.0983877)
(2.43767e-15 0.000255027 0.0979727)
(3.18538e-15 -0.000247857 0.0979304)
(5.91562e-15 -0.000645398 0.0979845)
(8.32832e-15 -0.000964711 0.098076)
(1.39207e-14 -0.00120144 0.0982646)
(1.66897e-14 -0.00136487 0.0985032)
(1.98574e-14 -0.00145537 0.098857)
(1.83573e-14 -0.00151223 0.0990339)
(1.94672e-14 -0.00145501 0.099708)
(1.66249e-16 0.063142 1.46997)
(1.36794e-16 0.0601162 1.37908)
(2.92306e-16 0.0581122 1.29797)
(5.87624e-16 0.056635 1.22463)
(6.70117e-16 0.0551104 1.15476)
(6.00732e-16 0.0536264 1.08857)
(6.07e-16 0.0521296 1.02625)
(2.60359e-16 0.0505256 0.967404)
(3.78848e-16 0.0487948 0.911821)
(4.60105e-16 0.0469386 0.859413)
(5.45272e-16 0.0449683 0.810077)
(6.37755e-16 0.0429138 0.763719)
(7.48964e-16 0.0408181 0.720258)
(8.76606e-16 0.0387284 0.679604)
(9.85825e-16 0.0366885 0.641656)
(1.45226e-15 0.0347301 0.606293)
(1.41941e-15 0.0328674 0.573393)
(1.50181e-15 0.0310961 0.542844)
(1.35462e-15 0.0294002 0.514545)
(1.33147e-15 0.027762 0.488408)
(1.15138e-15 0.0261713 0.464338)
(7.27906e-16 0.0246309 0.442225)
(1.07106e-15 0.0231547 0.421936)
(1.37084e-15 0.0217622 0.403317)
(1.0893e-15 0.020472 0.386203)
(1.0606e-15 0.0192963 0.370428)
(4.05165e-16 0.0182385 0.355835)
(5.29005e-16 0.0172938 0.342283)
(3.77455e-16 0.0164518 0.32965)
(2.36155e-16 0.0156988 0.317832)
(-2.80687e-17 0.015021 0.306744)
(-2.67806e-16 0.0144055 0.296313)
(-5.35513e-16 0.0138411 0.286477)
(-8.37247e-16 0.0133184 0.277185)
(-1.25088e-15 0.0128296 0.268392)
(-8.70704e-16 0.0123675 0.260061)
(-9.43356e-16 0.0119249 0.25216)
(-1.09929e-15 0.011495 0.244664)
(-1.3447e-15 0.0110722 0.237556)
(-1.18442e-15 0.0106542 0.230817)
(-2.66677e-15 0.0102422 0.224432)
(-3.20435e-15 0.00984009 0.218384)
(-4.81105e-15 0.00945153 0.212656)
(-5.21651e-15 0.00907766 0.207228)
(-5.5862e-15 0.00871524 0.202086)
(-5.977e-15 0.00835851 0.197217)
(-6.46933e-15 0.0080006 0.192612)
(-7.00026e-15 0.00763445 0.18827)
(-6.09103e-15 0.00725719 0.184185)
(-4.80519e-15 0.00686367 0.180356)
(-4.7281e-15 0.00645635 0.176785)
(-4.37648e-15 0.00604688 0.173465)
(-4.16721e-15 0.00564538 0.17039)
(-4.12334e-15 0.00526524 0.167542)
(-4.26718e-15 0.00491535 0.164904)
(-3.98065e-15 0.00461239 0.162472)
(-5.79456e-15 0.00435998 0.160212)
(-4.48068e-15 0.00415661 0.158112)
(-5.05212e-15 0.00400527 0.156128)
(-4.28158e-15 0.0038968 0.154228)
(-5.21243e-15 0.00382262 0.152388)
(-6.09327e-15 0.00377709 0.150585)
(-6.87293e-15 0.00375616 0.148803)
(-7.16795e-15 0.00375691 0.147025)
(-7.60804e-15 0.00377702 0.145239)
(-7.36196e-15 0.00381458 0.143434)
(-8.43634e-15 0.00386768 0.1416)
(-9.75252e-15 0.00393444 0.139732)
(-9.1047e-15 0.00401271 0.137826)
(-8.71819e-15 0.00409996 0.135879)
(-6.25914e-15 0.0041933 0.133891)
(-5.70904e-15 0.00428941 0.131866)
(-5.43817e-15 0.00438517 0.129806)
(-5.84724e-15 0.00447749 0.127717)
(-5.10048e-15 0.00456207 0.125605)
(-6.19584e-15 0.00463389 0.123479)
(-5.43131e-15 0.00469014 0.12135)
(-4.28234e-15 0.00472883 0.11922)
(-4.80846e-15 0.00474399 0.117101)
(-5.45573e-15 0.0047283 0.11501)
(-7.37324e-15 0.00467813 0.112961)
(-9.621e-15 0.00459106 0.110964)
(-8.28633e-15 0.00446197 0.109032)
(-7.95895e-15 0.00428625 0.107185)
(-7.93059e-15 0.00406074 0.105437)
(-8.38622e-15 0.00377724 0.103811)
(-8.83638e-15 0.00343084 0.102327)
(-8.905e-15 0.00300442 0.101002)
(-8.26636e-15 0.00249195 0.099889)
(-4.86713e-15 0.00185972 0.0989034)
(-2.34152e-15 0.00103308 0.0984513)
(-1.04576e-15 0.000301588 0.0980465)
(-4.93414e-16 -0.00022977 0.0980515)
(3.55629e-15 -0.000659702 0.0981142)
(7.34184e-15 -0.00101141 0.0981942)
(1.09052e-14 -0.00127717 0.0983593)
(1.41672e-14 -0.00146469 0.0985672)
(1.44098e-14 -0.00157452 0.0988792)
(1.52834e-14 -0.00164053 0.0990262)
(1.53288e-14 -0.00159366 0.0996339)
(2.43572e-16 0.0707073 1.45515)
(2.16775e-16 0.0672529 1.36496)
(3.58577e-16 0.0649604 1.2847)
(6.29661e-16 0.0633008 1.21226)
(5.35471e-16 0.0616175 1.14333)
(5.04918e-16 0.0599924 1.0781)
(7.76945e-16 0.0583586 1.01675)
(6.21865e-16 0.0566115 0.958842)
(4.62931e-16 0.0547305 0.90418)
(7.76477e-16 0.052716 0.852659)
(7.82849e-16 0.0505777 0.804163)
(7.92998e-16 0.0483448 0.75858)
(8.23623e-16 0.0460604 0.715815)
(9.02248e-16 0.0437735 0.675768)
(9.8583e-16 0.04153 0.638332)
(1.20108e-15 0.0393636 0.603396)
(1.43367e-15 0.0372891 0.570856)
(1.17615e-15 0.0353021 0.54062)
(6.4144e-16 0.0333868 0.512611)
(1.0405e-15 0.0315267 0.486755)
(9.06417e-16 0.0297155 0.462964)
(4.95064e-16 0.0279602 0.441125)
(8.80425e-16 0.0262798 0.421099)
(-1.0085e-16 0.0246977 0.402723)
(3.18311e-16 0.0232349 0.385827)
(8.51677e-16 0.0219041 0.370241)
(7.36962e-16 0.020708 0.355808)
(-4.38844e-17 0.0196401 0.342392)
(-5.84235e-17 0.0186879 0.329874)
(3.10258e-17 0.0178358 0.318154)
(-6.25754e-16 0.0170681 0.307151)
(-6.00098e-16 0.0163703 0.296795)
(-1.07836e-15 0.0157303 0.287026)
(-1.63131e-15 0.0151376 0.277793)
(-1.92159e-15 0.0145834 0.269053)
(-1.45241e-15 0.0140597 0.260768)
(-1.66019e-15 0.0135584 0.252907)
(-1.951e-15 0.0130716 0.245446)
(-2.23196e-15 0.012593 0.238366)
(-2.20286e-15 0.0121202 0.23165)
(-2.64498e-15 0.0116545 0.225283)
(-2.82628e-15 0.0112 0.219248)
(-4.68435e-15 0.0107608 0.213526)
(-5.40673e-15 0.0103379 0.2081)
(-6.1102e-15 0.00992727 0.202955)
(-6.69808e-15 0.00952262 0.19808)
(-7.19421e-15 0.00911614 0.193467)