/*--------------------------------*- C++ -*----------------------------------*\
| =========                 |                                                 |
| \\      /  F ield         | OpenFOAM: The Open Source CFD Toolbox           |
|  \\    /   O peration     | Version:  4.1                                   |
|   \\  /    A nd           | Web:      www.OpenFOAM.org                      |
|    \\/     M anipulation  |                                                 |
\*---------------------------------------------------------------------------*/
FoamFile
{
    version     2.0;
    format      ascii;
    class       volScalarField;
    location    "800";
    object      p;
}
// * * * * * * * * * * * * * * * * * * * * * * * * * * * * * * * * * * * * * //

dimensions      [0 2 -2 0 0 0 0];

internalField   nonuniform List<scalar> 
6820
(
-7.63387
-7.86071
-7.93762
-7.94965
-7.96901
-7.99108
-8.00764
-8.02048
-8.03163
-8.0412
-8.04907
-8.05537
-8.06021
-8.0636
-8.0655
-8.06585
-8.06453
-8.06139
-8.05625
-8.04883
-8.0388
-8.02571
-8.00896
-7.98774
-7.96088
-7.9267
-7.88244
-7.8241
-7.74213
-7.62764
-7.41805
-7.16556
-6.11076
-7.70585
-7.84687
-7.91048
-7.93083
-7.95463
-7.9786
-7.99656
-8.01041
-8.02221
-8.03224
-8.0405
-8.04712
-8.05224
-8.05586
-8.05795
-8.05846
-8.05728
-8.05426
-8.04922
-8.0419
-8.03196
-8.01898
-8.00239
-7.98142
-7.95502
-7.92174
-7.87935
-7.82513
-7.75312
-7.66175
-7.5296
-7.40671
-7.31972
-7.76326
-7.8513
-7.91142
-7.93641
-7.95881
-7.98105
-7.99853
-8.01223
-8.02388
-8.03383
-8.04205
-8.04868
-8.05382
-8.05749
-8.05966
-8.06027
-8.05923
-8.05639
-8.05158
-8.04456
-8.03502
-8.02256
-8.00669
-7.98674
-7.96182
-7.9308
-7.89209
-7.84405
-7.78381
-7.71327
-7.62875
-7.57651
-7.56246
-7.80202
-7.8604
-7.91461
-7.941
-7.96187
-7.98272
-7.99986
-8.01345
-8.02496
-8.03481
-8.043
-8.04963
-8.0548
-8.05853
-8.0608
-8.06155
-8.06068
-8.05808
-8.05358
-8.04697
-8.03796
-8.02624
-8.01136
-7.9928
-7.9699
-7.94189
-7.90786
-7.86721
-7.8194
-7.76794
-7.71593
-7.69237
-7.7019
-7.83316
-7.87298
-7.91887
-7.94512
-7.96502
-7.98462
-8.00129
-8.01472
-8.02608
-8.03584
-8.04401
-8.05067
-8.05591
-8.05975
-8.06218
-8.06313
-8.06253
-8.06027
-8.0562
-8.05015
-8.04188
-8.03113
-8.01757
-8.00081
-7.98045
-7.95609
-7.92742
-7.89468
-7.85879
-7.82381
-7.79505
-7.79098
-7.82022
-7.85929
-7.88679
-7.92455
-7.94982
-7.96885
-7.98716
-8.00321
-8.0164
-8.02759
-8.03724
-8.04539
-8.05208
-8.05741
-8.06139
-8.06401
-8.06522
-8.06495
-8.06312
-8.0596
-8.05425
-8.04689
-8.03733
-8.02534
-8.01071
-7.99325
-7.97289
-7.94981
-7.92482
-7.89959
-7.87807
-7.8657
-7.87423
-7.91081
-7.88145
-7.90075
-7.93147
-7.95509
-7.97318
-7.99024
-8.00556
-8.01845
-8.02944
-8.03897
-8.04709
-8.05383
-8.05926
-8.06341
-8.06627
-8.06779
-8.06792
-8.0666
-8.06373
-8.05921
-8.05291
-8.04471
-8.03451
-8.02222
-8.00787
-7.99164
-7.97406
-7.95623
-7.94011
-7.92917
-7.92807
-7.94412
-7.9822
-7.90057
-7.91442
-7.9393
-7.96083
-7.97789
-7.99378
-8.00833
-8.02085
-8.03163
-8.04103
-8.04911
-8.05591
-8.06147
-8.06582
-8.06895
-8.07083
-8.07143
-8.0707
-8.06857
-8.06498
-8.05987
-8.05318
-8.0449
-8.03508
-8.0239
-8.01175
-7.99932
-7.98786
-7.97928
-7.97646
-7.98302
-8.00349
-8.04093
-7.91735
-7.92756
-7.94768
-7.96698
-7.98295
-7.99775
-8.01151
-8.02361
-8.03416
-8.04342
-8.05147
-8.05834
-8.06404
-8.06862
-8.07206
-8.07436
-8.07548
-8.0754
-8.0741
-8.07153
-8.06769
-8.0626
-8.05633
-8.04902
-8.04097
-8.03268
-8.02494
-8.01897
-8.01648
-8.01977
-8.0315
-8.05444
-8.0904
-7.9323
-7.94003
-7.95638
-7.97347
-7.9883
-8.00209
-8.01506
-8.02672
-8.03702
-8.04614
-8.05417
-8.06111
-8.06698
-8.07181
-8.0756
-8.07835
-8.08004
-8.08068
-8.08026
-8.07878
-8.07629
-8.07285
-8.0686
-8.06376
-8.05871
-8.05399
-8.0504
-8.04905
-8.0514
-8.05922
-8.07438
-8.09857
-8.13275
-7.94581
-7.95181
-7.96518
-7.98022
-7.9939
-8.00675
-8.01897
-8.03016
-8.0402
-8.04919
-8.0572
-8.06423
-8.07028
-8.07539
-8.07956
-8.0828
-8.08511
-8.08651
-8.08701
-8.08667
-8.08555
-8.08378
-8.08152
-8.07907
-8.07681
-8.0753
-8.07531
-8.0778
-8.08394
-8.09506
-8.11244
-8.1371
-8.16948
-7.95813
-7.96291
-7.97396
-7.98714
-7.9997
-8.01167
-8.02318
-8.03391
-8.04369
-8.05256
-8.06056
-8.06768
-8.07394
-8.07935
-8.08393
-8.08769
-8.09065
-8.09284
-8.09431
-8.09512
-8.09539
-8.09525
-8.09492
-8.09471
-8.09501
-8.09635
-8.09942
-8.10503
-8.1141
-8.12759
-8.14637
-8.17101
-8.20167
-7.96948
-7.97336
-7.9826
-7.99416
-8.00566
-8.01681
-8.02766
-8.03795
-8.04748
-8.05623
-8.06423
-8.07147
-8.07795
-8.08368
-8.08869
-8.09299
-8.09663
-8.09963
-8.10208
-8.10406
-8.10568
-8.10713
-8.10863
-8.11049
-8.11309
-8.11691
-8.12256
-8.13067
-8.14198
-8.15715
-8.17675
-8.20107
-8.23012
-7.97999
-7.98322
-7.99103
-8.00121
-8.01172
-8.02212
-8.03238
-8.04225
-8.05154
-8.06019
-8.06821
-8.07557
-8.08229
-8.08836
-8.09382
-8.09869
-8.10301
-8.10684
-8.11027
-8.11338
-8.11633
-8.11929
-8.12249
-8.12624
-8.13087
-8.13684
-8.14461
-8.15472
-8.16771
-8.18403
-8.20405
-8.22789
-8.25546
-7.98979
-7.99253
-7.99922
-8.00823
-8.01785
-8.02757
-8.03728
-8.04678
-8.05585
-8.06442
-8.07247
-8.07997
-8.08694
-8.09337
-8.09929
-8.10473
-8.10975
-8.11441
-8.1188
-8.12302
-8.12724
-8.13161
-8.13638
-8.14182
-8.14824
-8.15601
-8.16553
-8.17721
-8.19144
-8.20853
-8.22868
-8.25194
-8.27817
-7.99895
-8.00131
-8.00713
-8.01517
-8.024
-8.03311
-8.04234
-8.0515
-8.06038
-8.06888
-8.07698
-8.08465
-8.09187
-8.09867
-8.10507
-8.11109
-8.11681
-8.12228
-8.1276
-8.13289
-8.13829
-8.14398
-8.15017
-8.15711
-8.16507
-8.17436
-8.1853
-8.19819
-8.21332
-8.23088
-8.251
-8.27362
-8.29863
-8.00754
-8.00961
-8.01474
-8.02197
-8.03012
-8.0387
-8.04751
-8.05638
-8.06509
-8.07356
-8.08172
-8.08956
-8.09707
-8.10424
-8.11111
-8.11772
-8.12412
-8.13038
-8.13661
-8.1429
-8.14941
-8.15631
-8.16377
-8.17202
-8.1813
-8.19185
-8.20392
-8.21774
-8.2335
-8.25133
-8.27126
-8.29325
-8.31715
-8.01559
-8.01744
-8.02203
-8.02861
-8.03618
-8.0443
-8.05276
-8.06137
-8.06996
-8.07841
-8.08667
-8.0947
-8.10249
-8.11004
-8.11739
-8.12457
-8.13164
-8.13866
-8.14574
-8.15298
-8.16051
-8.16849
-8.17709
-8.18648
-8.19687
-8.20845
-8.22142
-8.23593
-8.25212
-8.27005
-8.28973
-8.31108
-8.33397
-8.02315
-8.02482
-8.02899
-8.03504
-8.04213
-8.04986
-8.05803
-8.06644
-8.07494
-8.0834
-8.09177
-8.1
-8.10809
-8.11603
-8.12385
-8.13159
-8.1393
-8.14705
-8.15493
-8.16305
-8.17151
-8.18047
-8.19005
-8.20042
-8.21174
-8.22417
-8.23783
-8.25285
-8.26931
-8.28723
-8.3066
-8.32732
-8.34929
-8.03022
-8.03176
-8.0356
-8.04123
-8.04794
-8.05535
-8.06328
-8.07155
-8.07999
-8.08849
-8.09699
-8.10544
-8.11383
-8.12216
-8.13045
-8.13873
-8.14706
-8.15549
-8.16413
-8.17304
-8.18235
-8.19216
-8.20261
-8.21381
-8.22591
-8.239
-8.2532
-8.26857
-8.28518
-8.30301
-8.32203
-8.34216
-8.36329
-8.03682
-8.03825
-8.04184
-8.04715
-8.05356
-8.06073
-8.06848
-8.07665
-8.08507
-8.09364
-8.10229
-8.11098
-8.11968
-8.12839
-8.13713
-8.14593
-8.15485
-8.16393
-8.17325
-8.18289
-8.19295
-8.20352
-8.21471
-8.22662
-8.23934
-8.25297
-8.26756
-8.28318
-8.29983
-8.31751
-8.33618
-8.35574
-8.3761
-8.04293
-8.04429
-8.04769
-8.05277
-8.05895
-8.06594
-8.07358
-8.08169
-8.09014
-8.09881
-8.10763
-8.11656
-8.12557
-8.13466
-8.14385
-8.15315
-8.16261
-8.17229
-8.18225
-8.19255
-8.20328
-8.21451
-8.22633
-8.23882
-8.25205
-8.26609
-8.28097
-8.29673
-8.31337
-8.33086
-8.34915
-8.36818
-8.38784
-8.04854
-8.04985
-8.05313
-8.05803
-8.06406
-8.07094
-8.07852
-8.08663
-8.09514
-8.10394
-8.11296
-8.12214
-8.13147
-8.14094
-8.15055
-8.16033
-8.17031
-8.18054
-8.19107
-8.20196
-8.21327
-8.22507
-8.23743
-8.2504
-8.26404
-8.27839
-8.29348
-8.30931
-8.32587
-8.34314
-8.36107
-8.37959
-8.39861
-8.05364
-8.05491
-8.05811
-8.06292
-8.06886
-8.07569
-8.08326
-8.09143
-8.10004
-8.10899
-8.11822
-8.12767
-8.13732
-8.14715
-8.15718
-8.16741
-8.17787
-8.18861
-8.19966
-8.21107
-8.2229
-8.23519
-8.248
-8.26136
-8.27532
-8.2899
-8.30511
-8.32096
-8.33741
-8.35445
-8.37202
-8.39005
-8.40849
-8.05817
-8.05943
-8.06259
-8.06736
-8.07329
-8.08014
-8.08776
-8.09601
-8.10476
-8.11391
-8.12337
-8.1331
-8.14307
-8.15327
-8.16369
-8.17434
-8.18526
-8.19645
-8.20797
-8.21985
-8.23212
-8.24483
-8.25801
-8.27169
-8.2859
-8.30064
-8.31592
-8.33174
-8.34806
-8.36485
-8.38207
-8.39965
-8.41755
-8.06209
-8.06336
-8.06653
-8.07132
-8.0773
-8.08422
-8.09195
-8.10035
-8.10928
-8.11864
-8.12836
-8.13838
-8.14868
-8.15923
-8.17003
-8.18109
-8.19241
-8.20403
-8.21597
-8.22825
-8.24091
-8.25397
-8.26746
-8.28139
-8.29578
-8.31064
-8.32595
-8.3417
-8.35786
-8.3744
-8.39129
-8.40845
-8.42586
-8.06534
-8.06663
-8.06985
-8.07474
-8.08082
-8.08788
-8.09578
-8.10437
-8.11352
-8.12314
-8.13314
-8.14347
-8.15409
-8.16499
-8.17616
-8.18759
-8.1993
-8.2113
-8.22361
-8.23625
-8.24924
-8.2626
-8.27634
-8.29047
-8.305
-8.31992
-8.33522
-8.35088
-8.36688
-8.38318
-8.39974
-8.41651
-8.43346
-8.06784
-8.06917
-8.0725
-8.07753
-8.0838
-8.09107
-8.09919
-8.10803
-8.11745
-8.12735
-8.13765
-8.1483
-8.15925
-8.1705
-8.18202
-8.19381
-8.20587
-8.21822
-8.23087
-8.24382
-8.2571
-8.2707
-8.28464
-8.29893
-8.31355
-8.3285
-8.34376
-8.35932
-8.37515
-8.39121
-8.40747
-8.42388
-8.4404
-8.06949
-8.07089
-8.07437
-8.07963
-8.08616
-8.09371
-8.10212
-8.11127
-8.121
-8.13122
-8.14185
-8.15283
-8.16413
-8.17571
-8.18757
-8.1997
-8.2121
-8.22476
-8.23771
-8.25093
-8.26445
-8.27826
-8.29237
-8.30677
-8.32145
-8.33641
-8.35162
-8.36706
-8.38271
-8.39854
-8.41451
-8.43058
-8.44673
-8.07018
-8.07167
-8.07537
-8.08094
-8.08783
-8.09574
-8.10452
-8.11404
-8.12414
-8.13471
-8.1457
-8.15703
-8.16867
-8.18059
-8.19278
-8.20523
-8.21793
-8.23089
-8.2441
-8.25757
-8.27129
-8.28528
-8.29951
-8.314
-8.32872
-8.34366
-8.35881
-8.37414
-8.38962
-8.40522
-8.42093
-8.43669
-8.45248
-8.06973
-8.07135
-8.07536
-8.08137
-8.08873
-8.0971
-8.10633
-8.11628
-8.1268
-8.13778
-8.14915
-8.16085
-8.17284
-8.1851
-8.19761
-8.21036
-8.22335
-8.23657
-8.25002
-8.2637
-8.2776
-8.29173
-8.30607
-8.32061
-8.33535
-8.35026
-8.36533
-8.38054
-8.39585
-8.41125
-8.4267
-8.44218
-8.45765
-8.06795
-8.06975
-8.0742
-8.08079
-8.08876
-8.09771
-8.10749
-8.11796
-8.12896
-8.14038
-8.15216
-8.16424
-8.1766
-8.18919
-8.20202
-8.21507
-8.22833
-8.24179
-8.25546
-8.26933
-8.28339
-8.29764
-8.31207
-8.32666
-8.3414
-8.35628
-8.37128
-8.38637
-8.40153
-8.41674
-8.43196
-8.44718
-8.46236
-8.06458
-8.06663
-8.0717
-8.0791
-8.08786
-8.09752
-8.10796
-8.11904
-8.13061
-8.14253
-8.15476
-8.16724
-8.17996
-8.19289
-8.20601
-8.21933
-8.23283
-8.24651
-8.26036
-8.27438
-8.28857
-8.30291
-8.31739
-8.33201
-8.34674
-8.36157
-8.37649
-8.39146
-8.40647
-8.4215
-8.43651
-8.4515
-8.46643
-8.05923
-8.06167
-8.06765
-8.07619
-8.08597
-8.09648
-8.10767
-8.11944
-8.13162
-8.14408
-8.15678
-8.16971
-8.18282
-8.1961
-8.20955
-8.22316
-8.23691
-8.25082
-8.26487
-8.27905
-8.29337
-8.30781
-8.32236
-8.337
-8.35173
-8.36653
-8.38138
-8.39625
-8.41113
-8.426
-8.44083
-8.4556
-8.47029
-8.0514
-8.05444
-8.06179
-8.07193
-8.08306
-8.09471
-8.10691
-8.11954
-8.13239
-8.1454
-8.15855
-8.17185
-8.18527
-8.19882
-8.21249
-8.22629
-8.24022
-8.25427
-8.26844
-8.28273
-8.29712
-8.31161
-8.32619
-8.34084
-8.35555
-8.3703
-8.38507
-8.39984
-8.41461
-8.42933
-8.44401
-8.45861
-8.47314
-8.04023
-8.04439
-8.05406
-8.06623
-8.07861
-8.0913
-8.10462
-8.11831
-8.13207
-8.14586
-8.1597
-8.17359
-8.18754
-8.20153
-8.21558
-8.2297
-8.24389
-8.25817
-8.27251
-8.28694
-8.30144
-8.316
-8.33061
-8.34527
-8.35996
-8.37467
-8.38937
-8.40405
-8.4187
-8.43329
-8.4478
-8.4622
-8.47649
-8.02433
-8.0301
-8.04473
-8.06109
-8.0756
-8.0895
-8.1037
-8.11796
-8.13202
-8.14599
-8.15996
-8.17396
-8.18801
-8.20209
-8.21625
-8.23048
-8.24478
-8.25916
-8.27361
-8.28813
-8.30271
-8.31734
-8.33201
-8.34671
-8.36142
-8.37612
-8.39081
-8.40547
-8.42007
-8.43461
-8.44906
-8.46342
-8.47768
-8.00285
-8.00955
-8.02803
-8.04775
-8.06549
-8.08287
-8.10016
-8.11678
-8.13266
-8.14806
-8.16314
-8.17796
-8.19259
-8.2071
-8.22154
-8.23595
-8.25037
-8.2648
-8.27925
-8.29374
-8.30827
-8.32282
-8.33739
-8.35198
-8.36657
-8.38114
-8.39568
-8.41018
-8.42461
-8.43896
-8.4532
-8.46731
-8.48125
-7.96977
-8.00472
-8.03376
-8.04934
-8.0628
-8.07853
-8.09476
-8.11027
-8.12535
-8.14041
-8.15546
-8.17043
-8.18534
-8.20021
-8.21507
-8.22992
-8.24476
-8.25961
-8.27447
-8.28934
-8.30421
-8.31909
-8.33395
-8.3488
-8.36362
-8.3784
-8.39313
-8.4078
-8.42238
-8.43688
-8.45127
-8.46556
-8.47974
-7.82853
-7.93589
-8.00941
-8.04126
-8.06391
-8.08761
-8.10923
-8.12744
-8.14362
-8.15894
-8.17374
-8.18811
-8.20221
-8.21619
-8.23013
-8.24407
-8.25805
-8.27209
-8.28619
-8.30035
-8.31458
-8.32885
-8.34316
-8.35749
-8.37184
-8.38617
-8.40048
-8.41474
-8.42894
-8.44306
-8.45709
-8.47099
-8.48477
-7.27159
-7.32635
-8.2089
-8.68369
-8.73802
-8.75995
-8.80898
-8.84933
-8.88158
-8.91386
-8.94689
-8.97995
-9.0132
-9.04681
-9.08074
-9.11487
-9.1491
-9.18331
-9.21736
-9.25111
-9.28443
-9.31717
-9.34919
-9.38038
-9.41059
-9.43972
-9.46765
-9.49427
-9.51947
-9.54316
-9.56523
-9.5856
-9.60418
-9.62088
-9.6356
-9.64827
-9.65878
-9.66707
-9.67302
-9.67657
-9.6776
-9.67604
-9.67181
-9.66481
-9.65497
-9.64224
-9.62654
-9.60784
-9.5861
-9.56132
-9.53347
-9.50259
-9.46867
-9.43175
-9.39186
-9.34901
-9.30322
-9.25445
-9.20267
-9.14777
-9.0896
-9.02794
-8.9625
-8.89288
-8.81858
-8.73898
-8.65335
-8.5608
-8.4603
-8.35067
-8.2306
-8.09864
-7.95325
-7.79289
-7.61605
-7.42132
-7.20756
-6.9739
-6.7199
-6.44563
-6.15172
-5.83939
-5.51049
-5.16739
-4.81299
-4.45055
-4.08358
-3.71573
-3.35056
-2.99144
-2.64137
-2.30294
-1.97812
-1.66853
-1.3744
-1.09716
-0.832345
-0.587527
-0.335744
-0.13512
-7.84177
-7.99954
-8.33826
-8.6069
-8.68035
-8.72308
-8.77926
-8.82586
-8.86283
-8.89809
-8.93326
-8.96793
-9.00235
-9.03682
-9.07139
-9.10598
-9.14054
-9.17497
-9.20917
-9.243
-9.27635
-9.30909
-9.34108
-9.37222
-9.40237
-9.43142
-9.45927
-9.4858
-9.51091
-9.5345
-9.55649
-9.57677
-9.59525
-9.61186
-9.62649
-9.63907
-9.6495
-9.65769
-9.66356
-9.66702
-9.66797
-9.66632
-9.662
-9.65492
-9.645
-9.63219
-9.61642
-9.59765
-9.57584
-9.55099
-9.52308
-9.49213
-9.45815
-9.42116
-9.38118
-9.33823
-9.29232
-9.24341
-9.19145
-9.13633
-9.0779
-9.01592
-8.9501
-8.88003
-8.80521
-8.72502
-8.63872
-8.54541
-8.44409
-8.33358
-8.21258
-8.07967
-7.93337
-7.77215
-7.59455
-7.39923
-7.18509
-6.95131
-6.69751
-6.42378
-6.13077
-5.81971
-5.49242
-5.15125
-4.79903
-4.43894
-4.07443
-3.70903
-3.34621
-2.98925
-2.64107
-2.3042
-1.9805
-1.67161
-1.37764
-1.1002
-0.834286
-0.589036
-0.333358
-0.13812
-7.85133
-8.03446
-8.26491
-8.51475
-8.63437
-8.69513
-8.7539
-8.80479
-8.84594
-8.88375
-8.92068
-8.95671
-8.9921
-9.02726
-9.06229
-9.09721
-9.13197
-9.16651
-9.20075
-9.23457
-9.26787
-9.30053
-9.33242
-9.36344
-9.39347
-9.4224
-9.45011
-9.47651
-9.50149
-9.52496
-9.54682
-9.56698
-9.58535
-9.60184
-9.61636
-9.62883
-9.63916
-9.64725
-9.65302
-9.65638
-9.65723
-9.65549
-9.65108
-9.64391
-9.63392
-9.62102
-9.60518
-9.58634
-9.56446
-9.53955
-9.51158
-9.48056
-9.4465
-9.40943
-9.36936
-9.3263
-9.28024
-9.23116
-9.17898
-9.12361
-9.06486
-9.00251
-8.93625
-8.86566
-8.79025
-8.70938
-8.62232
-8.52819
-8.42597
-8.3145
-8.19251
-8.05861
-7.91135
-7.74925
-7.57091
-7.37504
-7.16058
-6.92678
-6.67329
-6.40023
-6.10829
-5.79867
-5.47317
-5.13412
-4.78425
-4.4267
-4.06481
-3.70201
-3.34167
-2.98699
-2.64079
-2.30553
-1.98303
-1.67487
-1.38108
-1.10344
-0.836464
-0.590731
-0.331393
-0.141169
-7.88197
-8.06391
-8.26332
-8.47521
-8.59984
-8.6687
-8.72984
-8.78442
-8.82945
-8.86974
-8.90831
-8.94557
-8.98186
-9.01762
-9.05305
-9.08821
-9.1231
-9.15768
-9.19188
-9.22563
-9.25881
-9.29133
-9.32307
-9.35393
-9.38379
-9.41254
-9.44008
-9.46631
-9.49113
-9.51444
-9.53615
-9.55616
-9.57439
-9.59075
-9.60514
-9.61749
-9.62769
-9.63567
-9.64133
-9.64458
-9.64533
-9.6435
-9.63899
-9.63173
-9.62165
-9.60868
-9.59276
-9.57385
-9.55192
-9.52694
-9.4989
-9.46782
-9.43369
-9.39653
-9.35635
-9.31316
-9.26694
-9.21765
-9.16523
-9.10955
-9.05044
-8.98765
-8.92088
-8.84971
-8.77362
-8.692
-8.6041
-8.50905
-8.40585
-8.29335
-8.17031
-8.03537
-7.88713
-7.72414
-7.54507
-7.34868
-7.13397
-6.90024
-6.64718
-6.37495
-6.08423
-5.77623
-5.45272
-5.11596
-4.76865
-4.41382
-4.05471
-3.69467
-3.33696
-2.98468
-2.64056
-2.307
-1.98575
-1.67836
-1.3848
-1.10697
-0.838985
-0.592736
-0.32995
-0.144373
-7.94478
-8.10538
-8.27462
-8.44681
-8.5667
-8.643
-8.70736
-8.76458
-8.81274
-8.85536
-8.8955
-8.93396
-8.97112
-9.00746
-9.04327
-9.07865
-9.11364
-9.14822
-9.18236
-9.21599
-9.24902
-9.28137
-9.31291
-9.34357
-9.37322
-9.40177
-9.42911
-9.45514
-9.47977
-9.50289
-9.52442
-9.54427
-9.56234
-9.57854
-9.59279
-9.60499
-9.61507
-9.62292
-9.62845
-9.63159
-9.63223
-9.63029
-9.62569
-9.61835
-9.60818
-9.59513
-9.57914
-9.56017
-9.53817
-9.51313
-9.48503
-9.45387
-9.41966
-9.3824
-9.34211
-9.29877
-9.25236
-9.20284
-9.15014
-9.09411
-9.03459
-8.97132
-8.90397
-8.83214
-8.75532
-8.67287
-8.58406
-8.48802
-8.38377
-8.27019
-8.14605
-8.01004
-7.86079
-7.69693
-7.51715
-7.3203
-7.10541
-6.87184
-6.61933
-6.34806
-6.05871
-5.75249
-5.43114
-5.09686
-4.75227
-4.40031
-4.04415
-3.687
-3.33203
-2.98225
-2.64031
-2.30852
-1.98857
-1.682
-1.3887
-1.1107
-0.841755
-0.594952
-0.328939
-0.147595
-8.00476
-8.13959
-8.28351
-8.42758
-8.54062
-8.6208
-8.68703
-8.7456
-8.79602
-8.84065
-8.88222
-8.92176
-8.95974
-8.99665
-9.03282
-9.0684
-9.10347
-9.13804
-9.1721
-9.20559
-9.23844
-9.27058
-9.30191
-9.33233
-9.36175
-9.39006
-9.41717
-9.44298
-9.46739
-9.49031
-9.51164
-9.5313
-9.54918
-9.56522
-9.5793
-9.59136
-9.60128
-9.60899
-9.6144
-9.61741
-9.61794
-9.61589
-9.61119
-9.60375
-9.5935
-9.58038
-9.56431
-9.54527
-9.52321
-9.4981
-9.46994
-9.43871
-9.40441
-9.36705
-9.32662
-9.28311
-9.23649
-9.18672
-9.13369
-9.07728
-9.01729
-8.95348
-8.88551
-8.81297
-8.73534
-8.65199
-8.56221
-8.46513
-8.35978
-8.24506
-8.11979
-7.98269
-7.83243
-7.66771
-7.48727
-7.29
-7.07502
-6.84172
-6.58987
-6.31969
-6.03186
-5.72758
-5.40853
-5.07688
-4.73516
-4.38623
-4.03313
-3.679
-3.32689
-2.9797
-2.64
-2.31005
-1.99146
-1.68575
-1.39275
-1.11459
-0.844734
-0.597338
-0.328328
-0.150756
-8.05825
-8.17092
-8.29445
-8.41776
-8.5219
-8.6021
-8.66887
-8.72798
-8.77983
-8.82601
-8.86874
-8.90919
-8.94787
-8.98528
-9.02177
-9.05752
-9.09264
-9.12718
-9.16113
-9.19446
-9.22711
-9.25902
-9.2901
-9.32027
-9.34943
-9.37748
-9.40433
-9.42989
-9.45406
-9.47675
-9.49786
-9.51731
-9.53499
-9.55084
-9.56474
-9.57663
-9.58639
-9.59396
-9.59922
-9.6021
-9.6025
-9.60034
-9.59554
-9.588
-9.57766
-9.56446
-9.54832
-9.52921
-9.50708
-9.48191
-9.45367
-9.42236
-9.38796
-9.35048
-9.3099
-9.2662
-9.21935
-9.16928
-9.1159
-9.05906
-8.99857
-8.93417
-8.86553
-8.79221
-8.71372
-8.62942
-8.53861
-8.44043
-8.33393
-8.21805
-8.09163
-7.95343
-7.80217
-7.63661
-7.45555
-7.25794
-7.04294
-6.81
-6.55894
-6.28997
-6.0038
-5.70159
-5.385
-5.05612
-4.71741
-4.37162
-4.02171
-3.6707
-3.32153
-2.97702
-2.63964
-2.31157
-1.99439
-1.68957
-1.39689
-1.11859
-0.847896
-0.599865
-0.328096
-0.153798
-8.10556
-8.20065
-8.30711
-8.41399
-8.50883
-8.5868
-8.65311
-8.71209
-8.76461
-8.81179
-8.85539
-8.89652
-8.93576
-8.97356
-9.01029
-9.04617
-9.08131
-9.11578
-9.14959
-9.18273
-9.21516
-9.24681
-9.27762
-9.3075
-9.33637
-9.36414
-9.39071
-9.416
-9.4399
-9.46233
-9.4832
-9.50241
-9.51988
-9.53551
-9.54922
-9.56092
-9.57051
-9.57791
-9.58302
-9.58575
-9.58602
-9.58374
-9.57881
-9.57118
-9.56074
-9.54745
-9.53124
-9.51205
-9.48985
-9.46461
-9.43629
-9.40488
-9.37038
-9.33276
-9.29201
-9.2481
-9.20099
-9.1506
-9.09683
-9.03953
-8.97849
-8.91345
-8.84407
-8.76994
-8.69053
-8.60524
-8.51335
-8.41403
-8.30635
-8.18928
-8.06169
-7.92239
-7.77016
-7.60379
-7.42216
-7.22427
-7.00934
-6.77687
-6.5267
-6.25907
-5.97468
-5.67467
-5.36066
-5.03467
-4.69907
-4.35655
-4.00992
-3.66211
-3.31597
-2.97419
-2.63919
-2.31305
-1.99732
-1.69342
-1.40111
-1.12269
-0.851208
-0.6025
-0.328216
-0.156671
-8.147
-8.2284
-8.32062
-8.41423
-8.50036
-8.57484
-8.63979
-8.69806
-8.75061
-8.79829
-8.84242
-8.884
-8.92362
-8.9617
-8.9986
-9.03453
-9.06964
-9.104
-9.13765
-9.17057
-9.20274
-9.23412
-9.26463
-9.2942
-9.32276
-9.35021
-9.37647
-9.40145
-9.42506
-9.44721
-9.46781
-9.48677
-9.50399
-9.51939
-9.53288
-9.54437
-9.55377
-9.56098
-9.56592
-9.5685
-9.56862
-9.5662
-9.56115
-9.5534
-9.54286
-9.52948
-9.51317
-9.4939
-9.47162
-9.44629
-9.41788
-9.38638
-9.35175
-9.31397
-9.27303
-9.22889
-9.18149
-9.13075
-9.07655
-9.01875
-8.95712
-8.8914
-8.82125
-8.74625
-8.66589
-8.57955
-8.48655
-8.38606
-8.27718
-8.15891
-8.03015
-7.88976
-7.73658
-7.56945
-7.3873
-7.1892
-6.97443
-6.74251
-6.49333
-6.22714
-5.94464
-5.64695
-5.33562
-5.01262
-4.68024
-4.34106
-3.9978
-3.65326
-3.3102
-2.97122
-2.63863
-2.31448
-2.00022
-1.69727
-1.40536
-1.12684
-0.854637
-0.605215
-0.328657
-0.159335
-8.18329
-8.25406
-8.33457
-8.41728
-8.49554
-8.56588
-8.62877
-8.68584
-8.73792
-8.78565
-8.83
-8.87181
-8.91164
-8.94987
-8.98684
-9.02276
-9.05779
-9.092
-9.12545
-9.15813
-9.19002
-9.22109
-9.25128
-9.28052
-9.30873
-9.33585
-9.36177
-9.38643
-9.40972
-9.43156
-9.45187
-9.47054
-9.4875
-9.50265
-9.5159
-9.52716
-9.53634
-9.54335
-9.5481
-9.5505
-9.55046
-9.54789
-9.5427
-9.53482
-9.52417
-9.51067
-9.49427
-9.4749
-9.45253
-9.4271
-9.39858
-9.36695
-9.33218
-9.29423
-9.25308
-9.20867
-9.16095
-9.10983
-9.05518
-8.99684
-8.93458
-8.86815
-8.79719
-8.72128
-8.63992
-8.55252
-8.45837
-8.35669
-8.2466
-8.12711
-7.99719
-7.85574
-7.70163
-7.53378
-7.35117
-7.15293
-6.93839
-6.70711
-6.45901
-6.19436
-5.91385
-5.61856
-5.31
-4.99008
-4.66099
-4.32522
-3.98538
-3.64417
-3.30424
-2.96809
-2.63796
-2.31581
-2.00306
-1.70109
-1.4096
-1.131
-0.858149
-0.607978
-0.329389
-0.161759
-8.21523
-8.27767
-8.34861
-8.42226
-8.49351
-8.5595
-8.61986
-8.67536
-8.72657
-8.77397
-8.81825
-8.86007
-8.89993
-8.93819
-8.97513
-9.01098
-9.04587
-9.0799
-9.11311
-9.14552
-9.17711
-9.20786
-9.2377
-9.26659
-9.29444
-9.3212
-9.34677
-9.37108
-9.39403
-9.41554
-9.43553
-9.4539
-9.47057
-9.48544
-9.49842
-9.50943
-9.51838
-9.52517
-9.52971
-9.53192
-9.53169
-9.52895
-9.52361
-9.51559
-9.5048
-9.49118
-9.47466
-9.45519
-9.4327
-9.40716
-9.37851
-9.34674
-9.3118
-9.27366
-9.23227
-9.18758
-9.13952
-9.08798
-9.03284
-8.97393
-8.91102
-8.84383
-8.77203
-8.69519
-8.6128
-8.5243
-8.42899
-8.3261
-8.21478
-8.0941
-7.96303
-7.82053
-7.66553
-7.49701
-7.314
-7.11569
-6.90144
-6.67088
-6.42394
-6.16091
-5.88246
-5.58964
-5.28393
-4.96714
-4.6414
-4.30908
-3.9727
-3.63486
-3.29809
-2.9648
-2.63714
-2.31702
-2.00581
-1.70484
-1.41381
-1.13516
-0.861713
-0.610762
-0.330377
-0.163923
-8.24351
-8.29933
-8.36245
-8.42853
-8.49358
-8.55526
-8.61283
-8.66649
-8.71653
-8.76329
-8.80722
-8.84885
-8.88859
-8.92674
-8.96357
-8.99927
-9.03398
-9.06778
-9.10073
-9.13284
-9.16411
-9.19451
-9.224
-9.25251
-9.28
-9.30638
-9.33158
-9.35552
-9.37811
-9.39928
-9.41893
-9.43698
-9.45334
-9.46791
-9.48062
-9.49136
-9.50005
-9.5066
-9.51092
-9.51291
-9.51249
-9.50956
-9.50405
-9.49586
-9.48493
-9.47117
-9.45451
-9.43491
-9.41229
-9.38661
-9.35783
-9.32589
-9.29076
-9.2524
-9.21075
-9.16575
-9.11731
-9.06533
-9.00968
-8.95016
-8.88657
-8.8186
-8.74593
-8.66812
-8.5847
-8.49507
-8.39859
-8.29449
-8.18195
-8.06007
-7.92787
-7.78435
-7.62851
-7.45936
-7.276
-7.07767
-6.86379
-6.63402
-6.38831
-6.12696
-5.85062
-5.56033
-5.25751
-4.94389
-4.62153
-4.2927
-3.95981
-3.62535
-3.29175
-2.96134
-2.63618
-2.3181
-2.00843
-1.70849
-1.41795
-1.13926
-0.865295
-0.61354
-0.331586
-0.165818
-8.26871
-8.3192
-8.3759
-8.43561
-8.49521
-8.55278
-8.60746
-8.65908
-8.70773
-8.75359
-8.79696
-8.83821
-8.87767
-8.9156
-8.95221
-8.98769
-9.02216
-9.0557
-9.08835
-9.12015
-9.15108
-9.18112
-9.21023
-9.23837
-9.26547
-9.29147
-9.31628
-9.33985
-9.36207
-9.38288
-9.40218
-9.41989
-9.43592
-9.45018
-9.46259
-9.47305
-9.48147
-9.48777
-9.49184
-9.4936
-9.49297
-9.48984
-9.48414
-9.47578
-9.46467
-9.45076
-9.43395
-9.4142
-9.39143
-9.3656
-9.33665
-9.30453
-9.26919
-9.23058
-9.18865
-9.14331
-9.09447
-9.04203
-8.98583
-8.9257
-8.86139
-8.79262
-8.71905
-8.64027
-8.55578
-8.46503
-8.36736
-8.26205
-8.1483
-8.02524
-7.89194
-7.74744
-7.59078
-7.42105
-7.2374
-7.03911
-6.82565
-6.59672
-6.35229
-6.09266
-5.81849
-5.53077
-5.23086
-4.92044
-4.60147
-4.27613
-3.94673
-3.61566
-3.28524
-2.9577
-2.63504
-2.31902
-2.01092
-1.71201
-1.42199
-1.14329
-0.868866
-0.61629
-0.332982
-0.167442
-8.2913
-8.33742
-8.38883
-8.44315
-8.49797
-8.55171
-8.6035
-8.65298
-8.70008
-8.74485
-8.78746
-8.82816
-8.86721
-8.9048
-8.94112
-8.97631
-9.01048
-9.04371
-9.07604
-9.10749
-9.13806
-9.16773
-9.19646
-9.22421
-9.25092
-9.27652
-9.30095
-9.32412
-9.34597
-9.36641
-9.38535
-9.40271
-9.41841
-9.43235
-9.44445
-9.45461
-9.46275
-9.46877
-9.47259
-9.47411
-9.47325
-9.46991
-9.464
-9.45545
-9.44416
-9.43007
-9.4131
-9.39318
-9.37025
-9.34424
-9.31511
-9.28278
-9.24721
-9.20834
-9.16609
-9.12039
-9.07114
-9.01821
-8.96144
-8.90066
-8.83562
-8.76603
-8.69155
-8.61178
-8.52623
-8.43434
-8.33549
-8.22898
-8.11404
-7.98981
-7.85543
-7.70999
-7.55256
-7.3823
-7.1984
-7.00019
-6.7872
-6.55915
-6.31604
-6.05818
-5.78619
-5.50106
-5.20407
-4.89685
-4.58128
-4.25942
-3.93351
-3.6058
-3.27855
-2.95389
-2.63373
-2.31976
-2.01323
-1.71537
-1.4259
-1.14722
-0.872395
-0.618988
-0.334528
-0.168803
-8.31166
-8.35414
-8.40115
-8.45091
-8.50154
-8.55175
-8.60073
-8.64804
-8.69348
-8.73701
-8.77872
-8.81873
-8.85724
-8.89439
-8.93031
-8.96515
-8.99897
-9.03185
-9.06382
-9.09491
-9.1251
-9.15439
-9.18272
-9.21008
-9.23638
-9.26159
-9.28562
-9.3084
-9.32986
-9.34992
-9.3685
-9.38551
-9.40086
-9.41447
-9.42625
-9.43611
-9.44396
-9.4497
-9.45326
-9.45452
-9.45342
-9.44985
-9.44373
-9.43497
-9.4235
-9.40922
-9.39206
-9.37196
-9.34884
-9.32265
-9.2933
-9.26075
-9.22493
-9.18577
-9.1432
-9.09712
-9.04742
-8.99398
-8.93664
-8.87519
-8.8094
-8.73898
-8.66358
-8.58281
-8.49619
-8.40317
-8.30315
-8.19545
-8.07933
-7.95397
-7.81855
-7.67219
-7.51404
-7.34328
-7.15918
-6.96111
-6.74863
-6.5215
-6.27974
-6.02365
-5.75387
-5.47132
-5.17725
-4.87322
-4.56101
-4.24262
-3.92016
-3.59581
-3.27171
-2.9499
-2.63222
-2.3203
-2.01535
-1.71856
-1.42966
-1.15101
-0.875855
-0.621616
-0.336189
-0.169915
-8.33009
-8.36952
-8.41283
-8.4587
-8.50565
-8.55264
-8.59894
-8.64409
-8.68782
-8.73003
-8.7707
-8.80992
-8.84777
-8.88438
-8.91984
-8.95425
-8.98767
-9.02016
-9.05174
-9.08244
-9.11224
-9.14112
-9.16905
-9.196
-9.2219
-9.2467
-9.27033
-9.29272
-9.31379
-9.33347
-9.35168
-9.36832
-9.38333
-9.3966
-9.40806
-9.41761
-9.42515
-9.43061
-9.43389
-9.4349
-9.43355
-9.42974
-9.4234
-9.41443
-9.40274
-9.38826
-9.37091
-9.35062
-9.3273
-9.3009
-9.27133
-9.23854
-9.20245
-9.16299
-9.12006
-9.07358
-9.02343
-8.96946
-8.91152
-8.84939
-8.78284
-8.71158
-8.63527
-8.55349
-8.4658
-8.37167
-8.27049
-8.16163
-8.04435
-7.91789
-7.78146
-7.63423
-7.47539
-7.30418
-7.11991
-6.92201
-6.71007
-6.48389
-6.2435
-5.98921
-5.72162
-5.44164
-5.15048
-4.84961
-4.54074
-4.22577
-3.90673
-3.5857
-3.26471
-2.94572
-2.63051
-2.32064
-2.01726
-1.72154
-1.43324
-1.15466
-0.87922
-0.624156
-0.337929
-0.170796
-8.34685
-8.38367
-8.42386
-8.46638
-8.5101
-8.55417
-8.59795
-8.641
-8.68301
-8.72383
-8.76339
-8.8017
-8.83882
-8.8748
-8.90973
-8.94365
-8.97661
-9.00867
-9.03983
-9.07011
-9.09949
-9.12796
-9.15548
-9.18201
-9.2075
-9.23189
-9.25511
-9.2771
-9.29778
-9.31708
-9.33491
-9.3512
-9.36585
-9.37878
-9.38991
-9.39914
-9.40639
-9.41156
-9.41456
-9.4153
-9.41369
-9.40964
-9.40307
-9.39387
-9.38197
-9.36728
-9.34972
-9.32922
-9.30569
-9.27906
-9.24926
-9.21621
-9.17984
-9.14005
-9.09677
-9.04987
-8.99924
-8.94474
-8.88619
-8.82338
-8.75606
-8.68396
-8.60672
-8.52395
-8.43521
-8.33996
-8.23765
-8.12764
-8.00923
-7.88171
-7.7443
-7.59624
-7.43676
-7.26514
-7.08075
-6.88305
-6.67168
-6.44646
-6.20745
-5.95495
-5.68955
-5.41212
-5.12383
-4.82608
-4.5205
-4.20891
-3.89324
-3.57547
-3.25756
-2.94137
-2.62859
-2.32075
-2.01894
-1.7243
-1.43661
-1.15813
-0.882467
-0.626592
-0.339716
-0.17147
-8.36212
-8.39671
-8.43422
-8.47386
-8.51474
-8.55617
-8.59761
-8.63863
-8.67894
-8.71833
-8.75672
-8.79407
-8.83037
-8.86566
-8.89998
-8.93336
-8.96583
-8.99741
-9.02812
-9.05796
-9.08691
-9.11494
-9.14204
-9.16814
-9.19321
-9.21719
-9.24
-9.26159
-9.28188
-9.30079
-9.31824
-9.33416
-9.34846
-9.36105
-9.37185
-9.38076
-9.3877
-9.39257
-9.39529
-9.39576
-9.39389
-9.3896
-9.38278
-9.37335
-9.36123
-9.34632
-9.32854
-9.30782
-9.28407
-9.25721
-9.22716
-9.19384
-9.15716
-9.11704
-9.07338
-9.02606
-8.97495
-8.9199
-8.86073
-8.79723
-8.72915
-8.6562
-8.57804
-8.49429
-8.4045
-8.30817
-8.20474
-8.09361
-7.97412
-7.84556
-7.70722
-7.55837
-7.39828
-7.22629
-7.04181
-6.84435
-6.63357
-6.40933
-6.17169
-5.92097
-5.65774
-5.38283
-5.09737
-4.80268
-4.50034
-4.19208
-3.87972
-3.56516
-3.25027
-2.93683
-2.62646
-2.32062
-2.02038
-1.72683
-1.43977
-1.16141
-0.885575
-0.628912
-0.341518
-0.17196
-8.37608
-8.40874
-8.44394
-8.48108
-8.51946
-8.5585
-8.59777
-8.63687
-8.6755
-8.71348
-8.75066
-8.78699
-8.82242
-8.85696
-8.89062
-8.9234
-8.95533
-8.98641
-9.01664
-9.04601
-9.0745
-9.1021
-9.12875
-9.15443
-9.17907
-9.20262
-9.22503
-9.24621
-9.2661
-9.28462
-9.3017
-9.31725
-9.33119
-9.34344
-9.3539
-9.36249
-9.36912
-9.3737
-9.37613
-9.37633
-9.3742
-9.36964
-9.36258
-9.35292
-9.34056
-9.32543
-9.30743
-9.28648
-9.26249
-9.23538
-9.20507
-9.17147
-9.13449
-9.09402
-9.04997
-9.00221
-8.95061
-8.89501
-8.83521
-8.77102
-8.70218
-8.62839
-8.54933
-8.4646
-8.37379
-8.27639
-8.17188
-8.05966
-7.93911
-7.80956
-7.67033
-7.52072
-7.36007
-7.18775
-7.00321
-6.80601
-6.59584
-6.37259
-6.13633
-5.88737
-5.62627
-5.35385
-5.07115
-4.77948
-4.48032
-4.1753
-3.86619
-3.55478
-3.24285
-2.93212
-2.62412
-2.32026
-2.02157
-1.7291
-1.44269
-1.16449
-0.888523
-0.631101
-0.343305
-0.172293
-8.38887
-8.41984
-8.45303
-8.48799
-8.52415
-8.56105
-8.59831
-8.63559
-8.67262
-8.70919
-8.74516
-8.78043
-8.81496
-8.8487
-8.88165
-8.9138
-8.94515
-8.97569
-9.0054
-9.03429
-9.06231
-9.08944
-9.11565
-9.14089
-9.1651
-9.18823
-9.21022
-9.23099
-9.25048
-9.26862
-9.28532
-9.3005
-9.31408
-9.32598
-9.33611
-9.34438
-9.3507
-9.35497
-9.35712
-9.35704
-9.35464
-9.34983
-9.34252
-9.33261
-9.32002
-9.30465
-9.28642
-9.26523
-9.241
-9.21364
-9.18306
-9.14916
-9.11186
-9.07104
-9.02659
-8.97839