/*--------------------------------*- C++ -*----------------------------------*\
| =========                 |                                                 |
| \\      /  F ield         | OpenFOAM: The Open Source CFD Toolbox           |
|  \\    /   O peration     | Version:  4.1                                   |
|   \\  /    A nd           | Web:      www.OpenFOAM.org                      |
|    \\/     M anipulation  |                                                 |
\*---------------------------------------------------------------------------*/
FoamFile
{
    version     2.0;
    format      ascii;
    class       surfaceScalarField;
    location    "800";
    object      phi;
}
// * * * * * * * * * * * * * * * * * * * * * * * * * * * * * * * * * * * * * //

dimensions      [0 3 -1 0 0 0 0];

internalField   nonuniform List<scalar> 
13452
(
5.98811e-05
3.87334e-07
5.95252e-05
3.55937e-07
5.92696e-05
2.55586e-07
5.90615e-05
2.0807e-07
5.88793e-05
1.82253e-07
5.87166e-05
1.62635e-07
5.85688e-05
1.47868e-07
5.84321e-05
1.36723e-07
5.83044e-05
1.27693e-07
5.81843e-05
1.20057e-07
5.80707e-05
1.13559e-07
5.79627e-05
1.08029e-07
5.78594e-05
1.03328e-07
5.776e-05
9.93548e-08
5.7664e-05
9.60455e-08
5.75706e-05
9.33617e-08
5.74793e-05
9.12876e-08
5.73895e-05
8.98315e-08
5.73005e-05
8.90282e-08
5.72115e-05
8.89458e-08
5.71218e-05
8.96965e-08
5.70304e-05
9.14575e-08
5.69359e-05
9.45058e-08
5.68366e-05
9.92846e-08
5.67301e-05
1.06532e-07
5.66125e-05
1.17536e-07
5.64778e-05
1.34756e-07
5.63149e-05
1.62897e-07
5.61011e-05
2.13748e-07
5.57934e-05
3.07725e-07
5.52638e-05
5.29603e-07
5.42144e-05
1.04938e-06
1.53826e-06
5.26762e-05
6.20749e-05
3.0276e-07
6.19987e-05
4.32111e-07
6.18517e-05
4.02673e-07
6.16884e-05
3.71292e-07
6.15293e-05
3.41407e-07
6.13798e-05
3.1214e-07
6.12402e-05
2.87438e-07
6.11095e-05
2.67439e-07
6.09864e-05
2.50756e-07
6.08699e-05
2.36528e-07
6.07592e-05
2.24324e-07
6.06534e-05
2.13833e-07
6.05519e-05
2.04819e-07
6.04541e-05
1.97119e-07
6.03595e-05
1.90624e-07
6.02676e-05
1.85271e-07
6.01779e-05
1.81031e-07
6.00898e-05
1.77917e-07
6.00029e-05
1.75984e-07
5.99165e-05
1.7534e-07
5.983e-05
1.76163e-07
5.97427e-05
1.7873e-07
5.96538e-05
1.83465e-07
5.9562e-05
1.91023e-07
5.94661e-05
2.02452e-07
5.93642e-05
2.19446e-07
5.92539e-05
2.45095e-07
5.91324e-05
2.84337e-07
5.89968e-05
3.49403e-07
5.88504e-05
4.54056e-07
5.87167e-05
6.63315e-07
5.87636e-05
1.00255e-06
1.63632e-06
5.86655e-05
6.38373e-05
2.26834e-07
6.38685e-05
4.00967e-07
6.38445e-05
4.26695e-07
6.37851e-05
4.30688e-07
6.37048e-05
4.21714e-07
6.36142e-05
4.02689e-07
6.35198e-05
3.81823e-07
6.34248e-05
3.6244e-07
6.33308e-05
3.44816e-07
6.32384e-05
3.28924e-07
6.31479e-05
3.14773e-07
6.30595e-05
3.02288e-07
6.29729e-05
2.91359e-07
6.28881e-05
2.81903e-07
6.28049e-05
2.73873e-07
6.27229e-05
2.67248e-07
6.26419e-05
2.62044e-07
6.25615e-05
2.58319e-07
6.24813e-05
2.56179e-07
6.24008e-05
2.55799e-07
6.23196e-05
2.57444e-07
6.22368e-05
2.61503e-07
6.21517e-05
2.68558e-07
6.20632e-05
2.79474e-07
6.19701e-05
2.95585e-07
6.18706e-05
3.1894e-07
6.17627e-05
3.53006e-07
6.16441e-05
4.02914e-07
6.15142e-05
4.79351e-07
6.13753e-05
5.92957e-07
6.12578e-05
7.80808e-07
6.12259e-05
1.03446e-06
1.47478e-06
6.13874e-05
6.5637e-05
1.7289e-07
6.56889e-05
3.4905e-07
6.57122e-05
4.03392e-07
6.57127e-05
4.30232e-07
6.56932e-05
4.41252e-07
6.5658e-05
4.37843e-07
6.56121e-05
4.27735e-07
6.5559e-05
4.15513e-07
6.55012e-05
4.02607e-07
6.54404e-05
3.89772e-07
6.53776e-05
3.77579e-07
6.53135e-05
3.66345e-07
6.52486e-05
3.56229e-07
6.51832e-05
3.47333e-07
6.51173e-05
3.39745e-07
6.5051e-05
3.33553e-07
6.49842e-05
3.28861e-07
6.49167e-05
3.25807e-07
6.48483e-05
3.24576e-07
6.47787e-05
3.25425e-07
6.47074e-05
3.28712e-07
6.4634e-05
3.34937e-07
6.45578e-05
3.44811e-07
6.44779e-05
3.59354e-07
6.43934e-05
3.80069e-07
6.43032e-05
4.09151e-07
6.42062e-05
4.50021e-07
6.41017e-05
5.0741e-07
6.39915e-05
5.89564e-07
6.38804e-05
7.04021e-07
6.37913e-05
8.69943e-07
6.37493e-05
1.07643e-06
1.36382e-06
6.38602e-05
6.74946e-05
1.351e-07
6.75432e-05
3.00463e-07
6.75779e-05
3.68614e-07
6.76013e-05
4.06843e-07
6.76126e-05
4.29931e-07
6.76119e-05
4.38609e-07
6.76009e-05
4.38759e-07
6.75815e-05
4.34849e-07
6.75555e-05
4.28631e-07
6.75241e-05
4.21125e-07
6.74885e-05
4.13177e-07
6.74495e-05
4.05366e-07
6.74077e-05
3.98066e-07
6.73635e-05
3.9155e-07
6.73172e-05
3.86048e-07
6.7269e-05
3.81763e-07
6.72189e-05
3.789e-07
6.7167e-05
3.77685e-07
6.71132e-05
3.78389e-07
6.70573e-05
3.8135e-07
6.6999e-05
3.87011e-07
6.6938e-05
3.95959e-07
6.68738e-05
4.08993e-07
6.68059e-05
4.27211e-07
6.67339e-05
4.52151e-07
6.66571e-05
4.85939e-07
6.65755e-05
5.31618e-07
6.64898e-05
5.93099e-07
6.64032e-05
6.76123e-07
6.63219e-05
7.85342e-07
6.62627e-05
9.29121e-07
6.62415e-05
1.09768e-06
1.29635e-06
6.6309e-05
6.94108e-05
1.08307e-07
6.9452e-05
2.59322e-07
6.94866e-05
3.33957e-07
6.95155e-05
3.77943e-07
6.95381e-05
4.07343e-07
6.95532e-05
4.23519e-07
6.95611e-05
4.30902e-07
6.95624e-05
4.33536e-07
6.95578e-05
4.33215e-07
6.9548e-05
4.30952e-07
6.95335e-05
4.27618e-07
6.9515e-05
4.23872e-07
6.94929e-05
4.2018e-07
6.94675e-05
4.1691e-07
6.94392e-05
4.14375e-07
6.94081e-05
4.12861e-07
6.93744e-05
4.12648e-07
6.9338e-05
4.14034e-07
6.9299e-05
4.17355e-07
6.92574e-05
4.23016e-07
6.92129e-05
4.31518e-07
6.91653e-05
4.435e-07
6.91145e-05
4.59798e-07
6.90602e-05
4.81506e-07
6.90023e-05
5.10078e-07
6.89408e-05
5.47412e-07
6.88765e-05
5.9599e-07
6.88108e-05
6.58738e-07
6.87477e-05
7.39245e-07
6.86932e-05
8.39808e-07
6.86596e-05
9.62767e-07
6.86573e-05
1.09994e-06
1.24554e-06
6.87081e-05
7.13857e-05
8.89848e-08
7.14198e-05
2.25203e-07
7.14515e-05
3.02229e-07
7.148e-05
3.49487e-07
7.1505e-05
3.82285e-07
7.15256e-05
4.02972e-07
7.15414e-05
4.15053e-07
7.15528e-05
4.22167e-07
7.15598e-05
4.26152e-07
7.15628e-05
4.28006e-07
7.15619e-05
4.28556e-07
7.15573e-05
4.28457e-07
7.15492e-05
4.28198e-07
7.1538e-05
4.2817e-07
7.15236e-05
4.28723e-07
7.15063e-05
4.30179e-07
7.14861e-05
4.32859e-07
7.1463e-05
4.37098e-07
7.14371e-05
4.43274e-07
7.14083e-05
4.51825e-07
7.13766e-05
4.63278e-07
7.13418e-05
4.78284e-07
7.13039e-05
4.97659e-07
7.1263e-05
5.22425e-07
7.12192e-05
5.53867e-07
7.11731e-05
5.93552e-07
7.11257e-05
6.43351e-07
7.10792e-05
7.0523e-07
7.10373e-05
7.81121e-07
7.10055e-05
8.71641e-07
7.09921e-05
9.76127e-07
7.10042e-05
1.08785e-06
1.1989e-06
7.10509e-05
7.34195e-05
7.47521e-08
7.34477e-05
1.97004e-07
7.34761e-05
2.73797e-07
7.35027e-05
3.22961e-07
7.35272e-05
3.57784e-07
7.35488e-05
3.81383e-07
7.35671e-05
3.96666e-07
7.35824e-05
4.06873e-07
7.35947e-05
4.13888e-07
7.3604e-05
4.18742e-07
7.36103e-05
4.2224e-07
7.36137e-05
4.25031e-07
7.36143e-05
4.27607e-07
7.36121e-05
4.30366e-07
7.36072e-05
4.33664e-07
7.35995e-05
4.37836e-07
7.35891e-05
4.43216e-07
7.35761e-05
4.50155e-07
7.35603e-05
4.5904e-07
7.35418e-05
4.70315e-07
7.35206e-05
4.84501e-07
7.34967e-05
5.02222e-07
7.34701e-05
5.24227e-07
7.34411e-05
5.51415e-07
7.34101e-05
5.84846e-07
7.3378e-05
6.25724e-07
7.3346e-05
6.75331e-07
7.33164e-05
7.34816e-07
7.32926e-05
8.04938e-07
7.3279e-05
8.85246e-07
7.32813e-05
9.73788e-07
7.33041e-05
1.06508e-06
1.15207e-06
7.33509e-05
7.55132e-05
6.40157e-08
7.55366e-05
1.73649e-07
7.55619e-05
2.48468e-07
7.55863e-05
2.98533e-07
7.56095e-05
3.34625e-07
7.56306e-05
3.60247e-07
7.56494e-05
3.77907e-07
7.56658e-05
3.90437e-07
7.568e-05
3.99716e-07
7.56919e-05
4.06822e-07
7.57016e-05
4.12564e-07
7.5709e-05
4.17592e-07
7.57142e-05
4.22409e-07
7.57172e-05
4.27421e-07
7.57178e-05
4.32988e-07
7.57162e-05
4.39449e-07
7.57123e-05
4.47138e-07
7.5706e-05
4.56405e-07
7.56975e-05
4.67632e-07
7.56865e-05
4.81244e-07
7.56733e-05
4.97731e-07
7.56579e-05
5.17658e-07
7.56404e-05
5.41678e-07
7.56213e-05
5.70533e-07
7.56011e-05
6.05042e-07
7.55808e-05
6.46048e-07
7.55618e-05
6.94329e-07
7.55462e-05
7.50393e-07
7.55369e-05
8.14226e-07
7.55374e-05
8.84787e-07
7.55514e-05
9.59737e-07
7.55818e-05
1.03467e-06
1.10403e-06
7.56299e-05
7.76679e-05
5.57113e-08
7.76873e-05
1.54201e-07
7.77099e-05
2.25945e-07
7.77323e-05
2.76078e-07
7.7754e-05
3.12904e-07
7.77743e-05
3.39959e-07
7.77928e-05
3.59472e-07
7.78093e-05
3.73882e-07
7.7824e-05
3.84997e-07
7.78369e-05
3.93924e-07
7.7848e-05
4.01476e-07
7.78573e-05
4.08309e-07
7.78648e-05
4.14937e-07
7.78704e-05
4.21779e-07
7.78742e-05
4.29199e-07
7.78761e-05
4.37538e-07
7.78761e-05
4.47127e-07
7.78742e-05
4.58306e-07
7.78704e-05
4.71438e-07
7.78647e-05
4.8692e-07
7.78573e-05
5.05191e-07
7.78482e-05
5.26741e-07
7.78378e-05
5.52107e-07
7.78264e-05
5.81864e-07
7.78149e-05
6.16593e-07
7.78041e-05
6.5682e-07
7.77955e-05
7.02915e-07
7.7791e-05
7.54923e-07
7.77929e-05
8.12365e-07
7.78037e-05
8.7394e-07
7.78261e-05
9.37357e-07
7.78616e-05
9.99128e-07
1.05509e-06
7.79106e-05
7.98849e-05
4.91238e-08
7.99012e-05
1.37875e-07
7.99213e-05
2.05916e-07
7.99419e-05
2.55426e-07
7.99623e-05
2.92539e-07
7.99817e-05
3.20569e-07
7.99996e-05
3.41528e-07
8.0016e-05
3.57506e-07
8.00308e-05
3.70183e-07
8.00441e-05
3.80668e-07
8.00558e-05
3.89769e-07
8.00659e-05
3.98139e-07
8.00746e-05
4.06302e-07
8.00817e-05
4.14683e-07
8.00872e-05
4.23649e-07
8.00912e-05
4.33541e-07
8.00937e-05
4.44683e-07
8.00946e-05
4.57401e-07
8.0094e-05
4.72032e-07
8.0092e-05
4.88933e-07
8.00887e-05
5.08484e-07
8.00843e-05
5.31091e-07
8.00792e-05
5.57171e-07
8.0074e-05
5.87136e-07
8.00692e-05
6.21355e-07
8.00659e-05
6.60089e-07
8.00655e-05
7.03402e-07
8.00693e-05
7.51032e-07
8.00795e-05
8.02253e-07
8.00977e-05
8.55711e-07
8.01257e-05
9.09359e-07
8.01643e-05
9.60464e-07
1.00599e-06
8.02135e-05
8.21658e-05
4.37686e-08
8.21796e-05
1.24031e-07
8.21975e-05
1.88072e-07
8.22165e-05
2.36407e-07
8.22356e-05
2.73416e-07
8.22542e-05
3.02035e-07
8.22716e-05
3.24085e-07
8.22878e-05
3.41356e-07
8.23026e-05
3.55376e-07
8.2316e-05
3.67222e-07
8.23281e-05
3.77688e-07
8.23388e-05
3.87414e-07
8.23482e-05
3.96921e-07
8.23562e-05
4.06636e-07
8.2363e-05
4.16926e-07
8.23684e-05
4.28124e-07
8.23725e-05
4.40543e-07
8.23754e-05
4.54489e-07
8.23772e-05
4.70269e-07
8.23779e-05
4.88194e-07
8.23778e-05
5.08582e-07
8.23772e-05
5.3175e-07
8.23764e-05
5.58001e-07
8.23759e-05
5.876e-07
8.23765e-05
6.20737e-07
8.23791e-05
6.57467e-07
8.23849e-05
6.9764e-07
8.23951e-05
7.40812e-07
8.24112e-05
7.86154e-07
8.24345e-05
8.32384e-07
8.24661e-05
8.77757e-07
8.25064e-05
9.20157e-07
9.57378e-07
8.25551e-05
8.45122e-05
3.93134e-08
8.45241e-05
1.12155e-07
8.45401e-05
1.72115e-07
8.45576e-05
2.18857e-07
8.45756e-05
2.55417e-07
8.45934e-05
2.84287e-07
8.46103e-05
3.07106e-07
8.46263e-05
3.2541e-07
8.46411e-05
3.40566e-07
8.46547e-05
3.53595e-07
8.46671e-05
3.65264e-07
8.46784e-05
3.76193e-07
8.46884e-05
3.86889e-07
8.46973e-05
3.97775e-07
8.4705e-05
4.09209e-07
8.47116e-05
4.21512e-07
8.47171e-05
4.34981e-07
8.47217e-05
4.49896e-07
8.47255e-05
4.66528e-07
8.47285e-05
4.85142e-07
8.47311e-05
5.05989e-07
8.47336e-05
5.29305e-07
8.47363e-05
5.55288e-07
8.47398e-05
5.84077e-07
8.47448e-05
6.1572e-07
8.47522e-05
6.50121e-07
8.47628e-05
6.86995e-07
8.47778e-05
7.25805e-07
8.47983e-05
7.65715e-07
8.48251e-05
8.05575e-07
8.48589e-05
8.43942e-07
8.48999e-05
8.79189e-07
9.09722e-07
8.49475e-05
8.6926e-05
3.55267e-08
8.69363e-05
1.01836e-07
8.69506e-05
1.57768e-07
8.69669e-05
2.0261e-07
8.69839e-05
2.38421e-07
8.70009e-05
2.67247e-07
8.70175e-05
2.90541e-07
8.70332e-05
3.09627e-07
8.70481e-05
3.25712e-07
8.7062e-05
3.39747e-07
8.70748e-05
3.5246e-07
8.70865e-05
3.64442e-07
8.70972e-05
3.76182e-07
8.71069e-05
3.88086e-07
8.71156e-05
4.00501e-07
8.71234e-05
4.13728e-07
8.71303e-05
4.28044e-07
8.71365e-05
4.437e-07
8.71421e-05
4.60927e-07
8.71473e-05
4.79942e-07
8.71524e-05
5.00934e-07
8.71576e-05
5.24062e-07
8.71635e-05
5.49434e-07
8.71705e-05
5.77089e-07
8.71792e-05
6.06965e-07
8.71905e-05
6.38868e-07
8.7205e-05
6.72433e-07
8.72237e-05
7.07096e-07
8.72474e-05
7.42072e-07
8.72766e-05
7.76363e-07
8.73117e-05
8.08801e-07
8.73528e-05
8.38142e-07
8.63237e-07
8.73993e-05
8.94088e-05
3.2244e-08
8.94179e-05
9.27482e-08
8.94309e-05
1.44774e-07
8.9446e-05
1.87504e-07
8.94621e-05
2.22309e-07
8.94785e-05
2.50828e-07
8.94947e-05
2.7433e-07
8.95104e-05
2.93956e-07
8.95254e-05
3.10766e-07
8.95395e-05
3.25625e-07
8.95527e-05
3.39218e-07
8.95651e-05
3.52101e-07
8.95765e-05
3.64735e-07
8.95871e-05
3.77506e-07
8.95969e-05
3.90741e-07
8.96059e-05
4.04721e-07
8.96142e-05
4.19694e-07
8.9622e-05
4.3588e-07
8.96295e-05
4.53474e-07
8.96368e-05
4.7264e-07
8.96442e-05
4.93513e-07
8.96521e-05
5.16184e-07
8.96608e-05
5.40687e-07
8.96709e-05
5.66982e-07
8.9683e-05
5.94933e-07
8.96976e-05
6.24283e-07
8.97154e-05
6.54636e-07
8.9737e-05
6.85441e-07
8.97631e-05
7.15991e-07
8.9794e-05
7.45444e-07
8.98299e-05
7.72867e-07
8.98708e-05
7.97314e-07
8.17958e-07
8.99161e-05
9.19628e-05
2.93455e-08
9.19709e-05
8.46317e-08
9.19827e-05
1.32903e-07
9.19969e-05
1.73378e-07
9.20122e-05
2.0696e-07
9.20281e-05
2.34939e-07
9.2044e-05
2.58404e-07
9.20596e-05
2.78342e-07
9.20747e-05
2.95671e-07
9.20892e-05
3.11173e-07
9.21029e-05
3.25479e-07
9.21159e-05
3.39103e-07
9.21282e-05
3.52478e-07
9.21397e-05
3.65961e-07
9.21506e-05
3.79856e-07
9.21609e-05
3.94418e-07
9.21707e-05
4.09867e-07
9.21802e-05
4.2639e-07
9.21896e-05
4.44142e-07
9.2199e-05
4.63244e-07
9.22087e-05
4.83778e-07
9.22191e-05
5.0578e-07
9.22306e-05
5.29225e-07
9.22435e-05
5.54016e-07
9.22585e-05
5.7997e-07
9.2276e-05
6.06798e-07
9.22965e-05
6.34104e-07
9.23206e-05
6.61375e-07
9.23486e-05
6.87993e-07
9.23808e-05
7.13262e-07
9.24172e-05
7.36444e-07
9.24577e-05
7.56825e-07
7.7381e-07
9.25018e-05
9.45898e-05
2.67411e-08
9.45971e-05
7.72779e-08
9.46081e-05
1.2195e-07
9.46214e-05
1.60076e-07
9.46361e-05
1.92252e-07
9.46515e-05
2.19482e-07
9.46673e-05
2.42688e-07
9.46829e-05
2.62718e-07
9.46982e-05
2.80368e-07
9.4713e-05
2.9633e-07
9.47273e-05
3.11178e-07
9.4741e-05
3.25383e-07
9.47542e-05
3.39341e-07
9.47668e-05
3.5338e-07
9.47788e-05
3.67775e-07
9.47905e-05
3.82754e-07
9.48019e-05
3.98505e-07
9.48131e-05
4.15184e-07
9.48243e-05
4.32909e-07
9.48358e-05
4.51759e-07
9.48478e-05
4.71775e-07
9.48606e-05
4.92945e-07
9.48747e-05
5.15202e-07
9.48903e-05
5.38411e-07
9.49079e-05
5.6236e-07
9.49279e-05
5.86757e-07
9.49508e-05
6.11221e-07
9.49769e-05
6.35291e-07
9.50064e-05
6.58442e-07
9.50396e-05
6.80104e-07
9.50763e-05
6.99702e-07
9.51165e-05
7.16697e-07
7.30664e-07
9.51596e-05
9.72919e-05
2.4362e-08
9.72987e-05
7.05175e-08
9.73089e-05
1.11731e-07
9.73215e-05
1.47446e-07
9.73357e-05
1.78061e-07
9.73508e-05
2.04354e-07
9.73664e-05
2.27098e-07
9.73821e-05
2.47015e-07
9.73977e-05
2.64791e-07
9.7413e-05
2.81033e-07
9.74279e-05
2.96252e-07
9.74424e-05
3.10876e-07
9.74565e-05
3.25259e-07
9.74702e-05
3.39697e-07
9.74835e-05
3.54435e-07
9.74966e-05
3.6967e-07
9.75096e-05
3.85561e-07
9.75225e-05
4.02232e-07
9.75357e-05
4.19765e-07
9.75492e-05
4.38206e-07
9.75634e-05
4.57559e-07
9.75786e-05
4.77779e-07
9.7595e-05
4.98766e-07
9.76131e-05
5.20364e-07
9.76331e-05
5.42353e-07
9.76554e-05
5.64445e-07
9.76803e-05
5.86292e-07
9.77081e-05
6.07491e-07
9.7739e-05
6.27601e-07
9.77729e-05
6.46164e-07
9.78099e-05
6.62733e-07
9.78497e-05
6.76904e-07
6.88378e-07
9.7892e-05
0.000100071
2.21531e-08
0.000100078
6.42102e-08
0.000100087
1.02083e-07
0.000100099
1.35342e-07
0.000100113
1.64262e-07
0.000100128
1.89449e-07
0.000100144
2.11542e-07
0.000100159
2.31154e-07
0.000100175
2.48868e-07
0.000100191
2.65213e-07
0.000100207
2.80637e-07
0.000100222
2.95517e-07
0.000100237
3.10169e-07
0.000100252
3.24853e-07
0.000100267
3.39781e-07
0.000100281
3.5512e-07
0.000100296
3.71001e-07
0.000100311
3.87514e-07
0.000100326
4.04715e-07
0.000100341
4.22618e-07
0.000100358
4.41199e-07
0.000100375
4.60386e-07
0.000100394
4.80064e-07
0.000100414
5.00063e-07
0.000100436
5.20167e-07
0.000100461
5.40106e-07
0.000100487
5.59569e-07
0.000100517
5.78211e-07
0.000100548
5.95667e-07
0.000100583
6.11573e-07
0.00010062
6.25584e-07
0.00010066
6.374e-07
6.46814e-07
0.000100701
0.00010293
2.00695e-08
0.000102936
5.82379e-08
0.000102945
9.28602e-08
0.000102957
1.23622e-07
0.000102971
1.5073e-07
0.000102985
1.74656e-07
0.000103001
1.95923e-07
0.000103017
2.15048e-07
0.000103033
2.32524e-07
0.00010305
2.48799e-07
0.000103066
2.64263e-07
0.000103083
2.79243e-07
0.000103099
2.94012e-07
0.000103115
3.08793e-07
0.000103131
3.23765e-07
0.000103147
3.39068e-07
0.000103163
3.54801e-07
0.000103179
3.71028e-07
0.000103196
3.87777e-07
0.000103214
4.05039e-07
0.000103232
4.22768e-07
0.000103252
4.40876e-07
0.000103273
4.59236e-07
0.000103295
4.7768e-07
0.000103319
4.95999e-07
0.000103345
5.13951e-07
0.000103374
5.31261e-07
0.000103404
5.4764e-07
0.000103437
5.6279e-07
0.000103472
5.76423e-07
0.00010351
5.88278e-07
0.000103549
5.98132e-07
6.05844e-07
0.00010359
0.000105871
1.80733e-08
0.000105876
5.24986e-08
0.000105885
8.39282e-08
0.000105897
1.12153e-07
0.00010591
1.3734e-07
0.000105925
1.59859e-07
0.000105941
1.8014e-07
0.000105957
1.98607e-07
0.000105974
2.15674e-07
0.000105991
2.31716e-07
0.000106008
2.47062e-07
0.000106026
2.61989e-07
0.000106043
2.76728e-07
0.00010606
2.91466e-07
0.000106078
3.06349e-07
0.000106095
3.21485e-07
0.000106113
3.36949e-07
0.000106131
3.52778e-07
0.00010615
3.68979e-07
0.00010617
3.85523e-07
0.00010619
4.02347e-07
0.000106212
4.19356e-07
0.000106234
4.36419e-07
0.000106259
4.53372e-07
0.000106285
4.70025e-07
0.000106313
4.86159e-07
0.000106342
5.01541e-07
0.000106374
5.15929e-07
0.000106408
5.29084e-07
0.000106443
5.4078e-07
0.000106481
5.5082e-07
0.00010652
5.59043e-07
5.65357e-07
0.00010656
0.000108895
1.61314e-08
0.000108901
4.69016e-08
0.00010891
7.51639e-08
0.000108921
1.00802e-07
0.000108934
1.23962e-07
0.000108949
1.44941e-07
0.000108965
1.64081e-07
0.000108982
1.81732e-07
0.000109
1.98229e-07
0.000109018
2.13882e-07
0.000109036
2.2896e-07
0.000109054
2.43691e-07
0.000109072
2.58264e-07
0.000109091
2.72827e-07
0.00010911
2.87496e-07
0.000109129
3.02351e-07
0.000109149
3.17439e-07
0.000109169
3.32778e-07
0.000109189
3.48355e-07
0.000109211
3.64126e-07
0.000109233
3.80019e-07
0.000109256
3.95933e-07
0.000109281
4.11738e-07
0.000109307
4.27284e-07
0.000109335
4.42395e-07
0.000109364
4.56883e-07
0.000109395
4.7055e-07
0.000109428
4.83198e-07
0.000109462
4.94634e-07
0.000109498
5.04686e-07
0.000109536
5.13206e-07
0.000109575
5.2008e-07
5.25249e-07
0.000109615
0.000112006
1.42139e-08
0.000112012
4.13639e-08
0.000112021
6.64504e-08
0.000112032
8.94395e-08
0.000112046
1.10468e-07
0.000112061
1.29775e-07
0.000112077
1.47632e-07
0.000112095
1.64316e-07
0.000112113
1.80095e-07
0.000112131
1.95213e-07
0.00011215
2.09882e-07
0.00011217
2.24283e-07
0.00011219
2.38562e-07
0.00011221
2.52832e-07
0.00011223
2.67177e-07
0.000112251
2.81649e-07
0.000112272
2.96273e-07
0.000112293
3.11048e-07
0.000112316
3.25945e-07
0.000112339
3.4091e-07
0.000112363
3.55864e-07
0.000112388
3.70704e-07
0.000112415
3.8531e-07
0.000112443
3.99541e-07
0.000112472
4.13242e-07
0.000112502
4.26252e-07
0.000112535
4.38404e-07
0.000112568
4.49538e-07
0.000112603
4.59504e-07
0.00011264
4.68168e-07
0.000112678
4.75422e-07
0.000112717
4.81186e-07
4.85429e-07
0.000112756
0.000115206
1.22923e-08
0.000115212
3.58063e-08
0.000115221
5.76735e-08
0.000115232
7.79338e-08
0.000115246
9.67226e-08
0.000115262
1.14231e-07
0.000115278
1.30669e-07
0.000115297
1.46248e-07
0.000115315
1.61169e-07
0.000115335
1.75617e-07
0.000115355
1.8975e-07
0.000115376
2.03698e-07
0.000115397
2.17569e-07
0.000115418
2.31439e-07
0.00011544
2.45362e-07
0.000115462
2.59366e-07
0.000115485
2.73455e-07
0.000115509
2.8761e-07
0.000115533
3.0179e-07
0.000115558
3.15933e-07
0.000115584
3.29957e-07
0.000115611
3.43764e-07
0.000115639
3.57239e-07
0.000115668
3.70255e-07
0.000115698
3.82679e-07
0.00011573
3.94371e-07
0.000115764
4.05196e-07
0.000115798
4.15024e-07
0.000115834
4.23738e-07
0.000115871
4.31239e-07
0.000115909
4.37448e-07
0.000115948
4.4231e-07
4.45814e-07
0.000115987
0.000118498
1.03389e-08
0.000118503
3.01502e-08
0.000118512
4.8718e-08
0.000118524
6.61499e-08
0.000118538
8.25836e-08
0.000118554
9.81691e-08
0.000118572
1.13059e-07
0.000118591
1.27404e-07
0.000118611
1.41342e-07
0.000118631
1.54999e-07
0.000118653
1.68478e-07
0.000118674
1.81866e-07
0.000118697
1.95227e-07
0.00011872
2.08606e-07
0.000118743
2.22026e-07
0.000118767
2.35492e-07
0.000118791
2.4899e-07
0.000118816
2.62485e-07
0.000118842
2.75928e-07
0.000118869
2.8925e-07
0.000118897
3.02371e-07
0.000118925
3.15194e-07
0.000118955
3.27615e-07
0.000118985
3.39522e-07
0.000119017
3.50798e-07
0.00011905
3.61327e-07
0.000119085
3.70998e-07
0.00011912
3.79708e-07
0.000119156
3.87367e-07
0.000119194
3.93902e-07
0.000119232
3.99257e-07
0.000119271
4.03398e-07
4.06325e-07
0.00011931
0.000121883
8.32476e-09
0.000121889
2.43136e-08
0.000121898
3.94623e-08
0.000121911
5.39437e-08
0.000121925
6.78986e-08
0.000121942
8.14383e-08
0.00012196
9.466e-08
0.00012198
1.07653e-07
0.000122001
1.20495e-07
0.000122023
1.33252e-07
0.000122045
1.45978e-07
0.000122068
1.58712e-07
0.000122092
1.71478e-07
0.000122116
1.84289e-07
0.000122141
1.97141e-07
0.000122167
2.10017e-07
0.000122193
2.22884e-07
0.00012222
2.35697e-07
0.000122247
2.48397e-07
0.000122276
2.60915e-07
0.000122305
2.73168e-07
0.000122335
2.85067e-07
0.000122366
2.96518e-07
0.000122398
3.07421e-07
0.000122431
3.17676e-07
0.000122465
3.27187e-07
0.000122501
3.35865e-07
0.000122537
3.43628e-07
0.000122574
3.50408e-07
0.000122611
3.56151e-07
0.00012265
3.60821e-07
0.000122689
3.64397e-07
3.66888e-07
0.000122728
0.000125366
6.21836e-09
0.000125372
1.82068e-08
0.000125381
2.97729e-08
0.000125394
4.11561e-08
0.00012541
5.24988e-08
0.000125427
6.3871e-08
0.000125446
7.53115e-08
0.000125467
8.68474e-08
0.000125489
9.84959e-08
0.000125512
1.10265e-07
0.000125536
1.22154e-07
0.000125561
1.34157e-07
0.000125586
1.46261e-07
0.000125612
1.58445e-07
0.000125638
1.7068e-07
0.000125665
1.82928e-07
0.000125693
1.95141e-07
0.000125721
2.07264e-07
0.000125751
2.19231e-07
0.000125781
2.3097e-07
0.000125811
2.42403e-07
0.000125843
2.53446e-07
0.000125875
2.64013e-07
0.000125909
2.74017e-07
0.000125943
2.83374e-07
0.000125978
2.92005e-07
0.000126014
2.99837e-07
0.000126051
3.06807e-07
0.000126089
3.12864e-07
0.000126127
3.17972e-07
0.000126166
3.22105e-07
0.000126205
3.25254e-07
3.27435e-07
0.000126244
0.000128947
3.9832e-09
0.000128954
1.17258e-08
0.000128964
1.94959e-08
0.000128978
2.76045e-08
0.000128994
3.61921e-08
0.000129013
4.5278e-08
0.000129033
5.48357e-08
0.000129055
6.48259e-08
0.000129078
7.5202e-08
0.000129103
8.59111e-08
0.000129128
9.68995e-08
0.000129154
1.08115e-07
0.000129181
1.19507e-07
0.000129208
1.31023e-07
0.000129236
1.4261e-07
0.000129265
1.5421e-07
0.000129294
1.65762e-07
0.000129324
1.772e-07
0.000129355
1.88456e-07
0.000129387
1.99455e-07
0.000129419
2.10122e-07
0.000129452
2.2038e-07
0.000129486
2.30152e-07
0.000129521
2.39361e-07
0.000129556
2.47938e-07
0.000129592
2.55816e-07
0.000129629
2.62938e-07
0.000129667
2.69256e-07
0.000129705
2.74733e-07
0.000129743
2.79342e-07
0.000129782
2.8307e-07
0.000129822
2.85914e-07
2.87895e-07
0.000129861
0.000132631
1.57473e-09
0.000132638
4.74375e-09
0.00013265
8.4446e-09
0.000132664
1.30717e-08
0.000132681
1.87535e-08
0.000132701
2.54409e-08
0.000132723
3.30287e-08
0.000132747
4.14043e-08
0.000132771
5.04516e-08
0.000132797
6.00535e-08
0.000132824
7.01002e-08
0.000132852
8.04934e-08
0.00013288
9.11444e-08
0.000132909
1.01971e-07
0.000132939
1.12896e-07
0.000132969
1.23844e-07
0.000133
1.34741e-07
0.000133032
1.45515e-07
0.000133064
1.56091e-07
0.000133097
1.66398e-07
0.000133131
1.76361e-07
0.000133165
1.8591e-07
0.000133201
1.94975e-07
0.000133236
2.03491e-07
0.000133273
2.11399e-07
0.00013331
2.18645e-07
0.000133348
2.25183e-07
0.000133386
2.30976e-07
0.000133425
2.35998e-07
0.000133464
2.40233e-07
0.000133503
2.43672e-07
0.000133543
2.4632e-07
2.48199e-07
0.000133583
0.000136421
-1.06473e-09
0.000136429
-2.90353e-09
0.000136441
-3.61772e-09
0.000136456
-2.71126e-09
0.000136475
-8.81459e-11
0.000136497
4.1015e-09
0.00013652
9.6535e-09
0.000136545
1.63718e-08
0.000136571
2.40627e-08
0.000136599
3.25381e-08
0.000136627
4.16286e-08
0.000136657
5.11888e-08
0.000136687
6.10925e-08
0.000136717
7.12282e-08
0.000136749
8.14957e-08
0.000136781
9.18039e-08
0.000136814
1.02068e-07
0.000136847
1.12209e-07
0.000136881
1.22149e-07
0.000136915
1.31817e-07
0.000136951
1.41143e-07
0.000136986
1.5006e-07
0.000137023
1.58508e-07
0.00013706
1.6643e-07
0.000137098
1.73775e-07
0.000137136
1.805e-07
0.000137174
1.86569e-07
0.000137213
1.91954e-07
0.000137253
1.96637e-07
0.000137292
2.00607e-07
0.000137332
2.03864e-07
0.000137372
2.06414e-07
2.08281e-07
0.000137412
0.000140319
-4.01401e-09
0.000140327
-1.14397e-08
0.000140341
-1.70058e-08
0.000140358
-2.00882e-08
0.000140379
-2.06675e-08
0.000140402
-1.90508e-08
0.000140427
-1.55694e-08
0.000140454
-1.05159e-08
0.000140482
-4.17331e-09
0.000140511
3.19001e-09
0.000140542
1.13412e-08
0.000140573
2.00865e-08
0.000140605
2.92622e-08
0.000140637
3.87282e-08
0.00014067
4.83632e-08
0.000140704
5.80612e-08
0.000140738
6.77281e-08
0.000140773
7.72786e-08
0.000140809
8.66349e-08
0.000140845
9.57252e-08
0.000140882
1.04483e-07
0.000140919
1.12849e-07
0.000140957
1.20767e-07
0.000140995
1.28188e-07
0.000141033
1.3507e-07
0.000141073
1.41378e-07
0.000141112
1.47084e-07
0.000141152
1.52166e-07
0.000141192
1.56613e-07
0.000141232
1.60419e-07
0.000141272
1.63587e-07
0.000141313
1.66124e-07
1.68053e-07
0.000141353
0.000144328
-7.3874e-09
0.000144338
-2.11866e-08
0.000144353
-3.21557e-08
0.000144372
-3.95119e-08
0.000144395
-4.3408e-08
0.00014442
-4.43976e-08
0.000144448
-4.29727e-08
0.000144477
-3.95388e-08
0.000144507
-3.44877e-08
0.000144538
-2.81808e-08
0.000144571
-2.09178e-08
0.000144604
-1.29405e-08
0.000144637
-4.44877e-09
0.000144672
4.38991e-09
0.000144707
1.3435e-08
0.000144742
2.25678e-08
0.000144778
3.1686e-08
0.000144815
4.07006e-08
0.000144852
4.95326e-08
0.00014489
5.81119e-08
0.000144928
6.6376e-08
0.000144966
7.42694e-08
0.000145005
8.17431e-08
0.000145045
8.87548e-08
0.000145085
9.52691e-08
0.000145125
1.01257e-07
0.000145165
1.06697e-07
0.000145206
1.11574e-07
0.000145246
1.15879e-07
0.000145287
1.19612e-07
0.000145328
1.22778e-07
0.000145369
1.25386e-07
1.27458e-07
0.000145409
0.000148452
-1.13605e-08
0.000148463
-3.26373e-08
0.000148481
-4.9695e-08
0.000148503
-6.15833e-08
0.000148528
-6.88473e-08
0.000148556
-7.24223e-08
0.000148586
-7.29782e-08
0.000148618
-7.10486e-08
0.000148651
-6.71641e-08
0.000148684
-6.17975e-08
0.000148719
-5.53201e-08
0.000148754
-4.80212e-08
0.000148789
-4.01358e-08
0.000148826
-3.18563e-08
0.000148862
-2.33393e-08
0.0001489
-1.47132e-08
0.000148938
-6.08564e-09
0.000148976
2.45247e-09
0.000149014
1.08229e-08
0.000149054
1.89583e-08
0.000149093
2.68001e-08
0.000149133
3.4298e-08
0.000149173
4.14087e-08
0.000149214
4.80958e-08
0.000149255
5.43296e-08
0.000149296
6.00868e-08
0.000149338
6.53505e-08
0.000149379
7.01099e-08
0.000149421
7.43599e-08
0.000149462
7.81009e-08
0.000149504
8.13382e-08
0.000149545
8.40808e-08
8.63483e-08
0.000149586
0.000152694
-1.62153e-08
0.000152708
-4.6591e-08
0.000152729
-7.05835e-08
0.000152754
-8.71292e-08
0.000152783
-9.76482e-08
0.000152814
-1.03667e-07
0.000152847
-1.06031e-07
0.000152882
-1.05418e-07
0.000152917
-1.02529e-07
0.000152953
-9.79539e-08
0.00015299
-9.21308e-08
0.000153028
-8.53935e-08
0.000153065
-7.80109e-08
0.000153104
-7.01979e-08
0.000153143
-6.21244e-08
0.000153182
-5.39259e-08
0.000153221
-4.57127e-08
0.000153261
-3.75758e-08
0.000153302
-2.9591e-08
0.000153343
-2.18219e-08
0.000153384
-1.43222e-08
0.000153425
-7.13686e-09
0.000153467
-3.03579e-10
0.000153509
6.14679e-09
0.000153551
1.21898e-08
0.000153593
1.78069e-08
0.000153636
2.29852e-08
0.000153678
2.77171e-08
0.00015372
3.20006e-08
0.000153763
3.5838e-08
0.000153805
3.92367e-08
0.000153847
4.22085e-08
4.47715e-08
0.000153888
0.000157058
-2.24719e-08
0.000157075
-6.43505e-08
0.000157101
-9.62463e-08
0.000157131
-1.17403e-07
0.000157165
-1.30934e-07
0.0001572
-1.39068e-07
0.000157237
-1.42817e-07
0.000157275
-1.43113e-07
0.000157313
-1.40898e-07
0.000157352
-1.36876e-07
0.000157391
-1.31528e-07
0.000157431
-1.25218e-07
0.000157471
-1.18235e-07
0.000157512
-1.10805e-07
0.000157553
-1.03101e-07
0.000157594
-9.52593e-08
0.000157636
-8.73873e-08
0.000157678
-7.95734e-08
0.00015772
-7.18893e-08
0.000157763
-6.43941e-08
0.000157806
-5.71365e-08
0.000157849
-5.01567e-08
0.000157892
-4.3488e-08
0.000157935
-3.71566e-08
0.000157978
-3.11835e-08
0.000158022
-2.55838e-08
0.000158065
-2.03681e-08
0.000158108
-1.55423e-08
0.000158152
-1.11084e-08
0.000158194
-7.06494e-09
0.000158237
-3.40797e-09
0.000158279
-1.32165e-10
2.77645e-09
0.000158321
0.000161547
-3.13524e-08
0.000161572
-8.85694e-08
0.000161604
-1.28377e-07
0.00016164
-1.5336e-07
0.000161678
-1.69763e-07
0.000161719
-1.79931e-07
0.000161761
-1.84784e-07
0.000161804
-1.85642e-07
0.000161847
-1.83763e-07
0.00016189
-1.79965e-07
0.000161933
-1.74771e-07
0.000161976
-1.6858e-07
0.00016202
-1.61705e-07
0.000162063
-1.54378e-07
0.000162107
-1.46772e-07
0.000162151
-1.39019e-07
0.000162195
-1.31225e-07
0.000162239
-1.23472e-07
0.000162283
-1.15827e-07
0.000162326
-1.08344e-07
0.00016237
-1.01069e-07
0.000162414
-9.40371e-08
0.000162458
-8.7278e-08
0.000162502
-8.08154e-08
0.000162545
-7.46672e-08
0.000162588
-6.88469e-08
0.000162631
-6.33632e-08
0.000162674
-5.82207e-08
0.000162716
-5.342e-08
0.000162758
-4.89579e-08
0.0001628
-4.4827e-08
0.000162841
-4.10152e-08
-3.75116e-08
0.000162881
0.000166166
-4.41076e-08
0.000166205
-1.26807e-07
0.000166249
-1.73064e-07
0.000166295
-1.99449e-07
0.000166343
-2.1744e-07
0.000166392
-2.28615e-07
0.000166441
-2.33742e-07
0.00016649
-2.34574e-07
0.000166538
-2.3253e-07
0.000166587
-2.28403e-07
0.000166635
-2.22723e-07
0.000166682
-2.15929e-07
0.000166729
-2.08369e-07
0.000166775
-2.00302e-07
0.00016682
-1.91922e-07
0.000166864
-1.8338e-07
0.000166908
-1.74795e-07
0.000166951
-1.66259e-07
0.000166993
-1.57845e-07
0.000167034
-1.49612e-07
0.000167074
-1.41604e-07
0.000167114
-1.33859e-07
0.000167153
-1.26402e-07
0.000167192
-1.19254e-07
0.00016723
-1.12432e-07
0.000167267
-1.05944e-07
0.000167303
-9.97972e-08
0.000167339
-9.39932e-08
0.000167374
-8.85321e-08
0.000167408