/*--------------------------------*- C++ -*----------------------------------*\
| =========                 |                                                 |
| \\      /  F ield         | OpenFOAM: The Open Source CFD Toolbox           |
|  \\    /   O peration     | Version:  4.1                                   |
|   \\  /    A nd           | Web:      www.OpenFOAM.org                      |
|    \\/     M anipulation  |                                                 |
\*---------------------------------------------------------------------------*/
FoamFile
{
    version     2.0;
    format      ascii;
    class       volVectorField;
    location    "800";
    object      U;
}
// * * * * * * * * * * * * * * * * * * * * * * * * * * * * * * * * * * * * * //

dimensions      [0 1 -1 0 0 0 0];

internalField   nonuniform List<vector> 
6820
(
(7.30076 0.0105784 0)
(7.26066 0.0145399 0)
(7.22719 0.0116116 0)
(7.19817 0.0088918 0)
(7.17426 0.00729676 0)
(7.15367 0.00634283 0)
(7.13496 0.00573855 0)
(7.11768 0.00533719 0)
(7.10162 0.00504595 0)
(7.08658 0.00481642 0)
(7.0724 0.00462929 0)
(7.05894 0.00447662 0)
(7.0461 0.0043538 0)
(7.03379 0.00425786 0)
(7.02192 0.00418711 0)
(7.01041 0.004141 0)
(6.9992 0.00411997 0)
(6.9882 0.00412558 0)
(6.97733 0.00416073 0)
(6.96653 0.0042301 0)
(6.95568 0.00434073 0)
(6.9447 0.00450328 0)
(6.93342 0.00473394 0)
(6.92169 0.00505826 0)
(6.90925 0.00551808 0)
(6.89574 0.0061867 0)
(6.88062 0.00720014 0)
(6.86278 0.00883219 0)
(6.84103 0.0117079 0)
(6.80901 0.017198 0)
(6.77007 0.0286597 0)
(6.65286 0.070248 0)
(6.63979 -0.0294838 0)
(7.3396 0.012948 0)
(7.34154 0.0168193 0)
(7.32732 0.0138364 0)
(7.30715 0.0119874 0)
(7.28756 0.0109489 0)
(7.26941 0.0100965 0)
(7.25237 0.00941866 0)
(7.23638 0.00890391 0)
(7.22139 0.00849497 0)
(7.20725 0.00815902 0)
(7.19383 0.00788365 0)
(7.18104 0.00766088 0)
(7.16879 0.00748425 0)
(7.15702 0.00734967 0)
(7.14566 0.00725518 0)
(7.13464 0.00720054 0)
(7.12391 0.00718713 0)
(7.1134 0.00721814 0)
(7.10306 0.00729901 0)
(7.09283 0.00743805 0)
(7.08262 0.00764759 0)
(7.07237 0.00794592 0)
(7.06197 0.00836057 0)
(7.05131 0.00893408 0)
(7.04026 0.00973552 0)
(7.0286 0.0108803 0)
(7.01614 0.0125855 0)
(7.00241 0.0152312 0)
(6.98753 0.0197947 0)
(6.96978 0.0276097 0)
(6.95492 0.0454667 0)
(6.93756 0.0768982 0)
(6.97917 0.170822 0)
(7.33613 0.0108741 0)
(7.34462 0.0173199 0)
(7.34579 0.0178697 0)
(7.34012 0.0178782 0)
(7.33147 0.0174238 0)
(7.3215 0.0166044 0)
(7.31078 0.0157933 0)
(7.29981 0.0151136 0)
(7.2889 0.014546 0)
(7.27816 0.0140691 0)
(7.26764 0.0136731 0)
(7.25736 0.0133498 0)
(7.24729 0.0130924 0)
(7.23745 0.0128971 0)
(7.22779 0.012763 0)
(7.2183 0.012691 0)
(7.20893 0.0126845 0)
(7.19966 0.0127493 0)
(7.19044 0.0128946 0)
(7.18121 0.0131338 0)
(7.17193 0.0134865 0)
(7.16251 0.0139807 0)
(7.15288 0.0146577 0)
(7.14294 0.015579 0)
(7.13254 0.0168406 0)
(7.12151 0.0185936 0)
(7.10966 0.0211027 0)
(7.09666 0.0247808 0)
(7.08253 0.0305584 0)
(7.06663 0.0395004 0)
(7.05201 0.0556711 0)
(7.03848 0.0799865 0)
(7.0508 0.126609 0)
(7.33465 0.00788232 0)
(7.34191 0.0151074 0)
(7.34712 0.0174407 0)
(7.34828 0.0186845 0)
(7.34686 0.0192155 0)
(7.3437 0.0191491 0)
(7.3391 0.0188433 0)
(7.33348 0.0184854 0)
(7.32722 0.0181232 0)
(7.32055 0.0177808 0)
(7.31361 0.0174778 0)
(7.30651 0.017224 0)
(7.29929 0.0170245 0)
(7.292 0.0168834 0)
(7.28466 0.0168053 0)
(7.27727 0.0167963 0)
(7.26983 0.0168639 0)
(7.26233 0.0170188 0)
(7.25474 0.0172749 0)
(7.24703 0.0176517 0)
(7.23917 0.0181759 0)
(7.23109 0.0188849 0)
(7.22274 0.0198321 0)
(7.21404 0.0210946 0)
(7.20488 0.0227885 0)
(7.19515 0.0250885 0)
(7.18472 0.0282776 0)
(7.17346 0.0327711 0)
(7.16148 0.0393496 0)
(7.14881 0.0488322 0)
(7.1374 0.0634491 0)
(7.12818 0.0825533 0)
(7.13107 0.111099 0)
(7.334 0.00602359 0)
(7.33938 0.0130427 0)
(7.3447 0.0160235 0)
(7.34792 0.0178456 0)
(7.34963 0.0190484 0)
(7.35018 0.0196463 0)
(7.34953 0.0198911 0)
(7.34783 0.0199713 0)
(7.34532 0.0199591 0)
(7.34217 0.0198978 0)
(7.33851 0.0198237 0)
(7.33444 0.0197619 0)
(7.33003 0.019729 0)
(7.32534 0.0197381 0)
(7.32042 0.0198014 0)
(7.31528 0.0199309 0)
(7.30994 0.02014 0)
(7.3044 0.0204444 0)
(7.29866 0.0208639 0)
(7.2927 0.0214239 0)
(7.2865 0.0221577 0)
(7.28003 0.0231108 0)
(7.27324 0.0243457 0)
(7.26608 0.02595 0)
(7.25849 0.0280497 0)
(7.25041 0.0308257 0)
(7.24181 0.034549 0)
(7.2327 0.0395915 0)
(7.22328 0.0465445 0)
(7.21392 0.0559794 0)
(7.20598 0.0690124 0)
(7.20076 0.0849887 0)
(7.20238 0.105337 0)
(7.33365 0.00478002 0)
(7.33758 0.0112543 0)
(7.34215 0.0145222 0)
(7.34564 0.0166281 0)
(7.34826 0.0181734 0)
(7.35024 0.0191694 0)
(7.35148 0.0197991 0)
(7.35195 0.0202327 0)
(7.35176 0.0205424 0)
(7.35098 0.0207702 0)
(7.34968 0.0209542 0)
(7.34793 0.0211244 0)
(7.34578 0.021303 0)
(7.34326 0.0215087 0)
(7.34042 0.0217587 0)
(7.33728 0.02207 0)
(7.33385 0.0224606 0)
(7.33014 0.022951 0)
(7.32617 0.0235657 0)
(7.32191 0.0243349 0)
(7.31736 0.0252976 0)
(7.3125 0.0265046 0)
(7.30731 0.0280237 0)
(7.30177 0.0299469 0)
(7.29585 0.0324 0)
(7.28954 0.0355549 0)
(7.28287 0.0396492 0)
(7.27596 0.0449859 0)
(7.26907 0.0519763 0)
(7.26266 0.0609719 0)
(7.25774 0.0724458 0)
(7.2554 0.0858311 0)
(7.2575 0.100998 0)
(7.33343 0.00388676 0)
(7.33634 0.00974926 0)
(7.34013 0.0131379 0)
(7.34337 0.0153885 0)
(7.34606 0.0170941 0)
(7.34839 0.0183091 0)
(7.35029 0.0191748 0)
(7.35169 0.0198422 0)
(7.35263 0.0203831 0)
(7.35314 0.0208367 0)
(7.35324 0.0212381 0)
(7.35295 0.021617 0)
(7.3523 0.0219966 0)
(7.3513 0.0223972 0)
(7.34998 0.0228382 0)
(7.34836 0.0233391 0)
(7.34643 0.0239209 0)
(7.34421 0.024607 0)
(7.34169 0.0254251 0)
(7.33888 0.0264088 0)
(7.33577 0.0275999 0)
(7.33236 0.0290522 0)
(7.32863 0.0308346 0)
(7.32458 0.0330374 0)
(7.32023 0.0357783 0)
(7.3156 0.0392092 0)
(7.31077 0.0435244 0)
(7.30589 0.0489508 0)
(7.30126 0.0557503 0)
(7.29732 0.0641038 0)
(7.29479 0.0741323 0)
(7.29449 0.0853414 0)
(7.29726 0.0971628 0)
(7.3333 0.00323162 0)
(7.33547 0.008503 0)
(7.33859 0.0118952 0)
(7.3415 0.0142196 0)
(7.34402 0.0160068 0)
(7.3463 0.0173501 0)
(7.34832 0.0183627 0)
(7.35001 0.0191783 0)
(7.35138 0.019871 0)
(7.35245 0.0204805 0)
(7.35323 0.0210405 0)
(7.35372 0.0215798 0)
(7.35392 0.0221216 0)
(7.35384 0.0226863 0)
(7.35348 0.0232941 0)
(7.35286 0.0239653 0)
(7.35196 0.0247222 0)
(7.35079 0.0255898 0)
(7.34935 0.026597 0)
(7.34764 0.0277791 0)
(7.34566 0.0291787 0)
(7.34341 0.0308491 0)
(7.34088 0.0328571 0)
(7.3381 0.0352862 0)
(7.3351 0.0382403 0)
(7.33193 0.0418458 0)
(7.32869 0.046251 0)
(7.32556 0.0516125 0)
(7.32281 0.0580788 0)
(7.32082 0.0657118 0)
(7.32011 0.0744588 0)
(7.32123 0.0839 0)
(7.32458 0.0934493 0)
(7.33321 0.0027427 0)
(7.33487 0.00747213 0)
(7.33744 0.0107868 0)
(7.34 0.0131408 0)
(7.34231 0.0149724 0)
(7.34445 0.0163974 0)
(7.3464 0.01751 0)
(7.34812 0.0184265 0)
(7.3496 0.0192222 0)
(7.35087 0.0199393 0)
(7.35192 0.0206115 0)
(7.35275 0.0212675 0)
(7.35336 0.0219311 0)
(7.35376 0.0226232 0)
(7.35394 0.0233641 0)
(7.35389 0.0241749 0)
(7.35363 0.0250781 0)
(7.35313 0.0260992 0)
(7.35241 0.0272676 0)
(7.35147 0.028618 0)
(7.3503 0.0301922 0)
(7.3489 0.0320409 0)
(7.3473 0.0342254 0)
(7.34552 0.0368192 0)
(7.3436 0.0399094 0)
(7.34161 0.0435949 0)
(7.33966 0.0479813 0)
(7.33793 0.0531663 0)
(7.33665 0.0592179 0)
(7.33613 0.0661232 0)
(7.33674 0.0737551 0)
(7.33882 0.0817645 0)
(7.34256 0.0896614 0)
(7.33315 0.00236911 0)
(7.33444 0.00661531 0)
(7.33656 0.00980065 0)
(7.33882 0.0121495 0)
(7.34092 0.0140015 0)
(7.3429 0.0154797 0)
(7.34474 0.0166655 0)
(7.34639 0.0176583 0)
(7.34787 0.0185312 0)
(7.34917 0.0193285 0)
(7.35031 0.0200843 0)
(7.35127 0.0208278 0)
(7.35206 0.0215837 0)
(7.35268 0.0223735 0)
(7.35313 0.0232182 0)
(7.3534 0.024139 0)
(7.35349 0.0251589 0)
(7.3534 0.026303 0)
(7.35313 0.0276002 0)
(7.35269 0.0290841 0)
(7.35206 0.0307939 0)
(7.35128 0.0327758 0)
(7.35035 0.0350838 0)
(7.34932 0.0377798 0)
(7.34822 0.040933 0)
(7.34714 0.0446159 0)
(7.3462 0.0488978 0)
(7.34553 0.0538302 0)
(7.34535 0.0594278 0)
(7.34588 0.0656354 0)
(7.34738 0.0723031 0)
(7.35007 0.0791456 0)
(7.35403 0.0857833 0)
(7.33312 0.0020763 0)
(7.33413 0.00589823 0)
(7.3359 0.00892388 0)
(7.33788 0.0112384 0)
(7.33979 0.0130917 0)
(7.34161 0.0146023 0)
(7.34333 0.0158424 0)
(7.34492 0.0168959 0)
(7.34635 0.0178313 0)
(7.34764 0.0186935 0)
(7.34878 0.0195168 0)
(7.34979 0.0203305 0)
(7.35065 0.02116 0)
(7.35137 0.0220276 0)
(7.35195 0.0229546 0)
(7.35239 0.0239626 0)
(7.35269 0.0250744 0)
(7.35284 0.0263146 0)
(7.35286 0.027711 0)
(7.35274 0.0292951 0)
(7.35249 0.0311025 0)
(7.35214 0.0331741 0)
(7.3517 0.0355555 0)
(7.35121 0.0382965 0)
(7.35073 0.0414489 0)
(7.35034 0.0450622 0)
(7.35014 0.0491762 0)
(7.35026 0.053809 0)
(7.35086 0.058942 0)
(7.35211 0.0644999 0)
(7.35419 0.0703357 0)
(7.35722 0.0762194 0)
(7.36123 0.0818656 0)
(7.33309 0.001841 0)
(7.33391 0.0052927 0)
(7.33539 0.00814355 0)
(7.33713 0.0104003 0)
(7.33886 0.0122382 0)
(7.34054 0.0137641 0)
(7.34216 0.0150425 0)
(7.34366 0.0161442 0)
(7.34505 0.0171315 0)
(7.34631 0.0180483 0)
(7.34745 0.0189288 0)
(7.34847 0.0198019 0)
(7.34936 0.0206932 0)
(7.35014 0.0216254 0)
(7.3508 0.0226198 0)
(7.35134 0.0236982 0)
(7.35177 0.0248827 0)
(7.35208 0.0261972 0)
(7.35229 0.0276677 0)
(7.3524 0.029323 0)
(7.35243 0.0311947 0)
(7.35239 0.0333177 0)
(7.35231 0.0357288 0)
(7.35224 0.0384664 0)
(7.35223 0.0415666 0)
(7.35236 0.0450598 0)
(7.3527 0.0489632 0)
(7.35339 0.0532724 0)
(7.35453 0.0579498 0)
(7.35625 0.0629139 0)
(7.35867 0.0680319 0)
(7.36187 0.0731205 0)
(7.36583 0.0779673 0)
(7.33307 0.00164738 0)
(7.33374 0.00477582 0)
(7.33499 0.00744704 0)
(7.33652 0.00962779 0)
(7.3381 0.0114359 0)
(7.33966 0.0129622 0)
(7.34117 0.0142647 0)
(7.34261 0.0154029 0)
(7.34394 0.0164323 0)
(7.34518 0.0173951 0)
(7.34631 0.0183245 0)
(7.34734 0.0192486 0)
(7.34826 0.0201928 0)
(7.34908 0.0211796 0)
(7.3498 0.0222303 0)
(7.35042 0.0233659 0)
(7.35095 0.0246079 0)
(7.35139 0.0259789 0)
(7.35175 0.0275026 0)
(7.35204 0.0292047 0)
(7.35228 0.0311125 0)
(7.35249 0.0332545 0)
(7.3527 0.0356596 0)
(7.35296 0.0383551 0)
(7.35332 0.0413643 0)
(7.35384 0.0447022 0)
(7.35459 0.0483701 0)
(7.35568 0.0523489 0)
(7.35719 0.0565922 0)
(7.35922 0.0610204 0)
(7.36183 0.065519 0)
(7.36507 0.0699426 0)
(7.36891 0.0741335 0)
(7.33306 0.0014845 0)
(7.33362 0.00432923 0)
(7.33469 0.00682241 0)
(7.33604 0.00891399 0)
(7.33747 0.0106796 0)
(7.33892 0.0121935 0)
(7.34034 0.0135068 0)
(7.34171 0.0146701 0)
(7.34301 0.0157321 0)
(7.34422 0.0167325 0)
(7.34535 0.0177027 0)
(7.34638 0.0186701 0)
(7.34733 0.0196591 0)
(7.34819 0.0206917 0)
(7.34897 0.0217887 0)
(7.34966 0.0229703 0)
(7.35028 0.0242566 0)
(7.35084 0.0256685 0)
(7.35133 0.0272274 0)
(7.35178 0.0289555 0)
(7.35221 0.0308755 0)
(7.35264 0.0330099 0)
(7.3531 0.03538 0)
(7.35363 0.0380041 0)
(7.35428 0.0408946 0)
(7.3551 0.0440551 0)
(7.35617 0.0474759 0)
(7.35756 0.0511299 0)
(7.35933 0.0549679 0)
(7.36154 0.058917 0)
(7.36424 0.0628804 0)
(7.36746 0.0667438 0)
(7.37115 0.0703895 0)
(7.33305 0.00134464 0)
(7.33353 0.00393832 0)
(7.33445 0.00625866 0)
(7.33565 0.00825189 0)
(7.33696 0.00996426 0)
(7.3383 0.0114543 0)
(7.33965 0.0127664 0)
(7.34096 0.0139438 0)
(7.34222 0.0150289 0)
(7.34342 0.0160579 0)
(7.34454 0.0170608 0)
(7.34559 0.0180634 0)
(7.34657 0.019089 0)
(7.34747 0.0201588 0)
(7.3483 0.0212926 0)
(7.34907 0.0225092 0)
(7.34978 0.0238276 0)
(7.35044 0.0252663 0)
(7.35107 0.0268442 0)
(7.35167 0.0285799 0)
(7.35227 0.0304917 0)
(7.35289 0.0325966 0)
(7.35356 0.0349092 0)
(7.35432 0.0374399 0)
(7.35522 0.040193 0)
(7.3563 0.0431639 0)
(7.35761 0.0463362 0)
(7.35921 0.0496788 0)
(7.36116 0.0531439 0)
(7.36348 0.0566667 0)
(7.36622 0.0601672 0)
(7.36937 0.0635555 0)
(7.3729 0.0667436 0)
(7.33304 0.00122225 0)
(7.33345 0.00359142 0)
(7.33426 0.00574577 0)
(7.33534 0.0076346 0)
(7.33654 0.00928454 0)
(7.33779 0.0107405 0)
(7.33907 0.0120406 0)
(7.34033 0.0132214 0)
(7.34156 0.0143199 0)
(7.34274 0.0153688 0)
(7.34387 0.0163959 0)
(7.34494 0.0174253 0)
(7.34594 0.0184791 0)
(7.34689 0.0195771 0)
(7.34779 0.0207378 0)
(7.34863 0.0219789 0)
(7.34943 0.0233174 0)
(7.3502 0.0247696 0)
(7.35094 0.0263516 0)
(7.35169 0.0280787 0)
(7.35244 0.0299649 0)
(7.35324 0.0320222 0)
(7.3541 0.0342595 0)
(7.35507 0.0366812 0)
(7.35617 0.0392854 0)
(7.35745 0.042062 0)
(7.35896 0.0449908 0)
(7.36073 0.0480398 0)
(7.36279 0.0511648 0)
(7.36518 0.0543097 0)
(7.36792 0.057409 0)
(7.37099 0.060392 0)
(7.37436 0.0631925 0)
(7.33304 0.00111322 0)
(7.3334 0.00327923 0)
(7.33411 0.00527477 0)
(7.33508 0.00705537 0)
(7.33619 0.00863519 0)
(7.33737 0.0100481 0)
(7.33859 0.011326 0)
(7.33981 0.0125002 0)
(7.34101 0.0136026 0)
(7.34219 0.0146624 0)
(7.34332 0.0157048 0)
(7.3444 0.0167524 0)
(7.34545 0.0178255 0)
(7.34644 0.0189426 0)
(7.3474 0.0201206 0)
(7.34832 0.0213755 0)
(7.34921 0.0227224 0)
(7.35008 0.0241755 0)
(7.35094 0.0257481 0)
(7.35182 0.027452 0)
(7.35273 0.0292976 0)
(7.35368 0.0312926 0)
(7.35472 0.0334412 0)
(7.35586 0.0357431 0)
(7.35714 0.0381922 0)
(7.35859 0.0407749 0)
(7.36024 0.0434695 0)
(7.36213 0.046245 0)
(7.36428 0.0490617 0)
(7.36671 0.0518719 0)
(7.36941 0.0546222 0)
(7.3724 0.0572573 0)
(7.37563 0.059727 0)
(7.33304 0.00101444 0)
(7.33335 0.00299418 0)
(7.334 0.00483768 0)
(7.33488 0.00650767 0)
(7.33591 0.00801087 0)
(7.33703 0.00937247 0)
(7.33819 0.010619 0)
(7.33938 0.0117771 0)
(7.34056 0.012874 0)
(7.34173 0.0139355 0)
(7.34287 0.0149845 0)
(7.34398 0.0160415 0)
(7.34506 0.0171249 0)
(7.3461 0.0182517 0)
(7.34712 0.0194372 0)
(7.34812 0.0206955 0)
(7.34909 0.0220398 0)
(7.35007 0.0234819 0)
(7.35105 0.0250325 0)
(7.35205 0.0267005 0)
(7.35309 0.0284929 0)
(7.35419 0.0304138 0)
(7.35538 0.0324639 0)
(7.35667 0.0346393 0)
(7.3581 0.036931 0)
(7.35968 0.0393238 0)
(7.36146 0.0417959 0)
(7.36344 0.0443185 0)
(7.36564 0.0468566 0)
(7.36808 0.0493702 0)
(7.37076 0.051816 0)
(7.37365 0.0541505 0)
(7.37675 0.0563356 0)
(7.33303 0.000923452 0)
(7.33332 0.0027301 0)
(7.3339 0.00442737 0)
(7.33472 0.0059852 0)
(7.33569 0.0074062 0)
(7.33675 0.0087091 0)
(7.33787 0.00991565 0)
(7.33903 0.0110484 0)
(7.3402 0.0121308 0)
(7.34137 0.0131851 0)
(7.34252 0.0142318 0)
(7.34366 0.0152892 0)
(7.34477 0.016374 0)
(7.34587 0.0175012 0)
(7.34695 0.0186844 0)
(7.34802 0.019936 0)
(7.34908 0.0212671 0)
(7.35015 0.0226872 0)
(7.35124 0.0242047 0)
(7.35236 0.0258258 0)
(7.35352 0.0275546 0)
(7.35475 0.0293924 0)
(7.35607 0.0313369 0)
(7.35749 0.0333821 0)
(7.35905 0.0355173 0)
(7.36074 0.0377267 0)
(7.36261 0.0399893 0)
(7.36466 0.0422791 0)
(7.3669 0.0445659 0)
(7.36933 0.0468161 0)
(7.37196 0.0489951 0)
(7.37478 0.0510684 0)
(7.37775 0.053007 0)
(7.33303 0.000838302 0)
(7.33329 0.00248181 0)
(7.33383 0.00403747 0)
(7.3346 0.00548188 0)
(7.33551 0.00681576 0)
(7.33653 0.00805312 0)
(7.33762 0.00921172 0)
(7.33876 0.0103106 0)
(7.33992 0.0113695 0)
(7.34109 0.0124078 0)
(7.34226 0.0134434 0)
(7.34342 0.0144924 0)
(7.34458 0.0155696 0)
(7.34572 0.016688 0)
(7.34686 0.0178596 0)
(7.34801 0.0190948 0)
(7.34915 0.0204028 0)
(7.35031 0.021791 0)
(7.3515 0.0232655 0)
(7.35273 0.0248303 0)
(7.35401 0.0264871 0)
(7.35535 0.0282349 0)
(7.35679 0.0300695 0)
(7.35832 0.0319835 0)
(7.35997 0.0339651 0)
(7.36176 0.035999 0)
(7.3637 0.0380656 0)
(7.36579 0.0401418 0)
(7.36805 0.0422018 0)
(7.37047 0.0442178 0)
(7.37306 0.0461619 0)
(7.37579 0.0480069 0)
(7.37865 0.0497306 0)
(7.33303 0.00075735 0)
(7.33327 0.00224491 0)
(7.33378 0.00366222 0)
(7.3345 0.00499191 0)
(7.33538 0.00623411 0)
(7.33636 0.00739955 0)
(7.33743 0.00850267 0)
(7.33855 0.00955937 0)
(7.3397 0.0105864 0)
(7.34088 0.0116001 0)
(7.34207 0.0126159 0)
(7.34327 0.0136478 0)
(7.34446 0.0147086 0)
(7.34566 0.0158095 0)
(7.34686 0.0169604 0)
(7.34807 0.0181702 0)
(7.3493 0.0194459 0)
(7.35055 0.0207933 0)
(7.35183 0.0222163 0)
(7.35315 0.0237169 0)
(7.35453 0.0252952 0)
(7.35598 0.0269482 0)
(7.35751 0.0286707 0)
(7.35914 0.0304541 0)
(7.36088 0.0322867 0)
(7.36274 0.0341539 0)
(7.36472 0.0360379 0)
(7.36685 0.0379185 0)
(7.36912 0.0397738 0)
(7.37152 0.0415809 0)
(7.37405 0.0433173 0)
(7.3767 0.0449616 0)
(7.37946 0.0464967 0)
(7.33303 0.000679194 0)
(7.33326 0.00201551 0)
(7.33374 0.00329636 0)
(7.33443 0.00450963 0)
(7.33528 0.00565577 0)
(7.33624 0.0067432 0)
(7.33728 0.00778368 0)
(7.3384 0.00879041 0)
(7.33956 0.00977728 0)
(7.34075 0.0107581 0)
(7.34196 0.0117458 0)
(7.34319 0.0127523 0)
(7.34442 0.0137882 0)
(7.34567 0.014863 0)
(7.34694 0.0159849 0)
(7.34821 0.0171607 0)
(7.34951 0.018396 0)
(7.35084 0.0196946 0)
(7.35221 0.0210588 0)
(7.35362 0.0224891 0)
(7.35509 0.0239838 0)
(7.35663 0.0255392 0)
(7.35824 0.0271487 0)
(7.35995 0.0288038 0)
(7.36175 0.0304931 0)
(7.36367 0.0322028 0)
(7.3657 0.0339172 0)
(7.36784 0.0356187 0)
(7.3701 0.037289 0)
(7.37248 0.0389093 0)
(7.37496 0.0404613 0)
(7.37754 0.0419282 0)
(7.38021 0.0432969 0)
(7.33303 0.000602582 0)
(7.33325 0.00179013 0)
(7.33371 0.00293493 0)
(7.33438 0.00402954 0)
(7.33521 0.00507516 0)
(7.33615 0.00607869 0)
(7.33719 0.00704969 0)
(7.3383 0.00799897 0)
(7.33947 0.00893793 0)
(7.34068 0.00987786 0)
(7.34192 0.0108294 0)
(7.34318 0.0118024 0)
(7.34446 0.0128055 0)
(7.34576 0.0138462 0)
(7.34708 0.0149312 0)
(7.34842 0.0160654 0)
(7.34979 0.0172529 0)
(7.35119 0.0184959 0)
(7.35263 0.0197954 0)
(7.35412 0.0211504 0)
(7.35567 0.0225582 0)
(7.35729 0.0240141 0)
(7.35898 0.0255115 0)
(7.36075 0.0270416 0)
(7.36261 0.0285936 0)
(7.36456 0.0301552 0)
(7.36662 0.0317123 0)
(7.36877 0.03325 0)
(7.37102 0.0347528 0)
(7.37337 0.0362054 0)
(7.3758 0.037593 0)
(7.37831 0.0389024 0)
(7.38089 0.0401234 0)
(7.33302 0.000526362 0)
(7.33324 0.0015655 0)
(7.3337 0.00257318 0)
(7.33435 0.00354614 0)
(7.33517 0.00448658 0)
(7.3361 0.00540038 0)
(7.33714 0.00629529 0)
(7.33826 0.00718002 0)
(7.33944 0.00806365 0)
(7.34067 0.00895516 0)
(7.34194 0.00986301 0)
(7.34324 0.0107949 0)
(7.34456 0.0117576 0)
(7.34591 0.012757 0)
(7.34728 0.0137978 0)
(7.34869 0.0148836 0)
(7.35012 0.0160168 0)
(7.35159 0.0171985 0)
(7.3531 0.0184283 0)
(7.35467 0.0197043 0)
(7.35628 0.021023 0)
(7.35796 0.0223791 0)
(7.35971 0.023766 0)
(7.36154 0.0251751 0)
(7.36344 0.0265965 0)
(7.36543 0.028019 0)
(7.3675 0.0294305 0)
(7.36965 0.0308181 0)
(7.37189 0.0321691 0)
(7.3742 0.0334707 0)
(7.37659 0.0347112 0)
(7.37904 0.03588 0)
(7.38154 0.0369694 0)
(7.33302 0.00044942 0)
(7.33324 0.00133845 0)
(7.33369 0.0022064 0)
(7.33434 0.00305382 0)
(7.33515 0.00388406 0)
(7.33609 0.0047023 0)
(7.33714 0.00551473 0)
(7.33827 0.00632813 0)
(7.33947 0.00714945 0)
(7.34073 0.00798547 0)
(7.34202 0.00884252 0)
(7.34336 0.0097263 0)
(7.34473 0.0106418 0)
(7.34612 0.011593 0)
(7.34755 0.0125832 0)
(7.34901 0.0136146 0)
(7.35051 0.0146881 0)
(7.35204 0.0158037 0)
(7.35362 0.0169601 0)
(7.35524 0.0181544 0)
(7.35692 0.0193828 0)
(7.35865 0.0206397 0)
(7.36045 0.0219185 0)
(7.36232 0.0232111 0)
(7.36426 0.0245086 0)
(7.36626 0.0258008 0)
(7.36834 0.0270775 0)
(7.3705 0.0283276 0)
(7.37271 0.0295404 0)
(7.375 0.0307058 0)
(7.37733 0.0318141 0)
(7.37972 0.0328569 0)
(7.38215 0.0338284 0)
(7.33302 0.00037063 0)
(7.33324 0.00110575 0)
(7.33369 0.00182972 0)
(7.33435 0.00254672 0)
(7.33517 0.00326129 0)
(7.33612 0.00397805 0)
(7.33718 0.00470178 0)
(7.33833 0.00543744 0)
(7.33955 0.00618994 0)
(7.34084 0.00696394 0)
(7.34217 0.0077637 0)
(7.34355 0.00859299 0)
(7.34496 0.00945496 0)
(7.3464 0.0103521 0)
(7.34788 0.0112861 0)
(7.3494 0.0122578 0)
(7.35095 0.013267 0)
(7.35254 0.0143128 0)
(7.35417 0.0153929 0)
(7.35585 0.016504 0)
(7.35758 0.0176418 0)
(7.35936 0.0188007 0)
(7.3612 0.0199744 0)
(7.36311 0.0211554 0)
(7.36507 0.0223355 0)
(7.36709 0.0235059 0)
(7.36917 0.0246576 0)
(7.37132 0.0257815 0)
(7.37351 0.0268685 0)
(7.37576 0.0279104 0)
(7.37806 0.0288995 0)
(7.38039 0.029829 0)
(7.38275 0.0306944 0)
(7.33302 0.000288793 0)
(7.33325 0.000863954 0)
(7.3337 0.00143793 0)
(7.33437 0.00201848 0)
(7.3352 0.00261137 0)
(7.33617 0.00322063 0)
(7.33726 0.00384964 0)
(7.33844 0.00450155 0)
(7.33969 0.00517925 0)
(7.34101 0.00588532 0)
(7.34238 0.00662199 0)
(7.3438 0.00739111 0)
(7.34525 0.00819413 0)
(7.34675 0.00903196 0)
(7.34828 0.00990491 0)
(7.34984 0.0108126 0)
(7.35145 0.0117539 0)
(7.35309 0.0127269 0)
(7.35477 0.0137288 0)
(7.3565 0.0147558 0)
(7.35827 0.0158035 0)
(7.3601 0.0168664 0)
(7.36197 0.0179384 0)
(7.3639 0.0190126 0)
(7.36588 0.0200818 0)
(7.36791 0.0211383 0)
(7.37 0.0221742 0)
(7.37213 0.023182 0)
(7.3743 0.0241542 0)
(7.37652 0.0250839 0)
(7.37877 0.0259651 0)
(7.38105 0.0267922 0)
(7.38335 0.0275619 0)
(7.33303 0.000202557 0)
(7.33325 0.000609174 0)
(7.33373 0.00102513 0)
(7.33441 0.00146196 0)
(7.33527 0.00192656 0)
(7.33627 0.00242223 0)
(7.33739 0.00295075 0)
(7.3386 0.00351338 0)
(7.33989 0.00411094 0)
(7.34125 0.00474389 0)
(7.34266 0.00541242 0)
(7.34412 0.00611652 0)
(7.34562 0.00685595 0)
(7.34716 0.00763015 0)
(7.34874 0.00843813 0)
(7.35036 0.00927841 0)
(7.35201 0.010149 0)
(7.3537 0.0110472 0)
(7.35543 0.0119697 0)
(7.3572 0.0129126 0)
(7.35901 0.0138712 0)
(7.36087 0.0148403 0)
(7.36277 0.0158142 0)
(7.36472 0.0167866 0)
(7.36671 0.017751 0)
(7.36875 0.0187008 0)
(7.37083 0.0196294 0)
(7.37294 0.0205302 0)
(7.3751 0.0213971 0)
(7.37728 0.0222246 0)
(7.37949 0.0230076 0)
(7.38172 0.0237418 0)
(7.38396 0.0244247 0)
(7.33303 0.000110312 0)
(7.33327 0.000336802 0)
(7.33376 0.00058441 0)
(7.33448 0.000868833 0)
(7.33537 0.00119797 0)
(7.33641 0.00157392 0)
(7.33756 0.00199653 0)
(7.33882 0.00246496 0)
(7.34015 0.00297784 0)
(7.34156 0.00353336 0)
(7.34301 0.00412961 0)
(7.34452 0.00476471 0)
(7.34607 0.00543679 0)
(7.34766 0.00614386 0)
(7.34928 0.00688375 0)
(7.35094 0.00765399 0)
(7.35264 0.00845178 0)
(7.35437 0.00927389 0)
(7.35614 0.0101166 0)
(7.35795 0.0109759 0)
(7.3598 0.0118471 0)
(7.36168 0.0127251 0)
(7.36361 0.0136047 0)
(7.36557 0.0144803 0)
(7.36757 0.015346 0)
(7.36961 0.0161962 0)
(7.37168 0.0170251 0)
(7.37379 0.0178273 0)
(7.37592 0.0185977 0)
(7.37807 0.0193318 0)
(7.38024 0.0200255 0)
(7.38243 0.0206753 0)
(7.38462 0.0212794 0)
(7.33303 1.00265e-05 0)
(7.33328 4.10476e-05 0)
(7.33381 0.000107174 0)
(7.33457 0.000228997 0)
(7.33551 0.000415018 0)
(7.3366 0.000665293 0)
(7.3378 0.000977125 0)
(7.33911 0.00134724 0)
(7.3405 0.00177183 0)
(7.34195 0.00224667 0)
(7.34345 0.00276764 0)
(7.34501 0.00333095 0)
(7.3466 0.00393309 0)
(7.34824 0.00457071 0)
(7.34991 0.00524047 0)
(7.35161 0.00593903 0)
(7.35335 0.00666288 0)
(7.35513 0.00740832 0)
(7.35693 0.00817141 0)
(7.35878 0.00894791 0)
(7.36065 0.00973332 0)
(7.36256 0.0105229 0)
(7.3645 0.0113118 0)
(7.36648 0.0120949 0)
(7.36849 0.0128671 0)
(7.37053 0.0136235 0)
(7.37259 0.0143593 0)
(7.37468 0.0150699 0)
(7.37678 0.0157511 0)
(7.37891 0.0163991 0)
(7.38104 0.0170108 0)
(7.38319 0.0175833 0)
(7.38533 0.0181153 0)
(7.33303 -0.000101014 0)
(7.33331 -0.000285754 0)
(7.33388 -0.000417685 0)
(7.33469 -0.000470231 0)
(7.3357 -0.000435212 0)
(7.33685 -0.000316063 0)
(7.33812 -0.000118929 0)
(7.33949 0.000149949 0)
(7.34093 0.000483818 0)
(7.34244 0.000875692 0)
(7.344 0.00131912 0)
(7.3456 0.00180845 0)
(7.34725 0.00233864 0)
(7.34893 0.00290506 0)
(7.35065 0.00350336 0)
(7.35239 0.0041294 0)
(7.35417 0.0047791 0)
(7.35598 0.00544837 0)
(7.35782 0.00613305 0)
(7.35969 0.00682888 0)
(7.36159 0.00753147 0)
(7.36352 0.00823638 0)
(7.36548 0.00893907 0)
(7.36747 0.00963505 0)
(7.36948 0.0103198 0)
(7.37151 0.0109892 0)
(7.37357 0.0116389 0)
(7.37564 0.0122652 0)
(7.37773 0.0128647 0)
(7.37982 0.0134341 0)
(7.38193 0.0139711 0)
(7.38403 0.0144732 0)
(7.38614 0.0149394 0)
(7.33303 -0.000226652 0)
(7.33334 -0.000654331 0)
(7.33397 -0.00100515 0)
(7.33487 -0.00124516 0)
(7.33596 -0.00136883 0)
(7.33719 -0.00138557 0)
(7.33853 -0.0013058 0)
(7.33997 -0.00113903 0)
(7.34148 -0.000895539 0)
(7.34305 -0.000585791 0)
(7.34467 -0.000219046 0)
(7.34633 0.000196889 0)
(7.34802 0.0006553 0)
(7.34975 0.00115026 0)
(7.35151 0.0016765 0)
(7.3533 0.0022292 0)
(7.35512 0.00280388 0)
(7.35696 0.00339623 0)
(7.35884 0.00400204 0)
(7.36073 0.00461716 0)
(7.36266 0.00523744 0)
(7.36461 0.00585876 0)
(7.36658 0.00647706 0)
(7.36857 0.00708832 0)
(7.37059 0.0076887 0)
(7.37262 0.00827447 0)
(7.37466 0.00884218 0)
(7.37672 0.00938864 0)
(7.37879 0.00991098 0)
(7.38086 0.0104067 0)
(7.38293 0.0108737 0)
(7.38501 0.0113102 0)
(7.38707 0.0117155 0)
(7.33304 -0.000372615 0)
(7.33339 -0.00108057 0)
(7.3341 -0.00167662 0)
(7.33511 -0.00211738 0)
(7.3363 -0.00240521 0)
(7.33763 -0.00256065 0)
(7.33907 -0.00260047 0)
(7.34059 -0.00253796 0)
(7.34218 -0.00238698 0)
(7.34382 -0.00216112 0)
(7.3455 -0.00187203 0)
(7.34722 -0.00152936 0)
(7.34897 -0.00114143 0)
(7.35075 -0.000715489 0)
(7.35255 -0.000257875 0)
(7.35438 0.00022583 0)
(7.35623 0.000730583 0)
(7.35811 0.00125173 0)
(7.36001 0.00178491 0)
(7.36194 0.00232596 0)
(7.36388 0.0028709 0)
(7.36585 0.0034159 0)
(7.36783 0.00395726 0)
(7.36983 0.00449143 0)
(7.37185 0.00501506 0)
(7.37387 0.005525 0)
(7.37591 0.00601834 0)
(7.37796 0.00649243 0)
(7.38001 0.00694492 0)
(7.38206 0.00737377 0)
(7.38411 0.00777728 0)
(7.38616 0.00815397 0)
(7.38819 0.00850322 0)
(7.33305 -0.000548017 0)
(7.33346 -0.00158852 0)
(7.3343 -0.00246329 0)
(7.33545 -0.00311939 0)
(7.33678 -0.00357387 0)
(7.33823 -0.0038617 0)
(7.33978 -0.00400814 0)
(7.3414 -0.00403466 0)
(7.34308 -0.00396311 0)
(7.3448 -0.00381243 0)
(7.34656 -0.00359705 0)
(7.34834 -0.0033281 0)
(7.35015 -0.00301478 0)
(7.35198 -0.00266478 0)
(7.35383 -0.00228451 0)
(7.3557 -0.00187948 0)
(7.3576 -0.00145456 0)
(7.35951 -0.00101418 0)
(7.36144 -0.000562449 0)
(7.36339 -0.000103201 0)
(7.36536 0.00035991 0)
(7.36734 0.000823411 0)
(7.36934 0.001284 0)
(7.37135 0.00173855 0)
(7.37337 0.00218414 0)
(7.37539 0.00261804 0)
(7.37743 0.00303775 0)
(7.37946 0.00344106 0)
(7.3815 0.00382599 0)
(7.38353 0.0041909 0)
(7.38556 0.00453441 0)
(7.38758 0.00485549 0)
(7.38958 0.00515381 0)
(7.33306 -0.000769778 0)
(7.33358 -0.0022182 0)
(7.3346 -0.00340177 0)
(7.33596 -0.00428233 0)
(7.33747 -0.00492245 0)
(7.33909 -0.00537039 0)
(7.34077 -0.00564632 0)
(7.34252 -0.00577308 0)
(7.3443 -0.00578007 0)
(7.3461 -0.0056931 0)
(7.34793 -0.00553148 0)
(7.34978 -0.00531035 0)
(7.35165 -0.00504226 0)
(7.35354 -0.00473739 0)
(7.35544 -0.00440385 0)
(7.35736 -0.00404814 0)
(7.3593 -0.00367569 0)
(7.36126 -0.00329107 0)
(7.36322 -0.00289826 0)
(7.36521 -0.00250077 0)
(7.3672 -0.00210178 0)
(7.3692 -0.00170419 0)
(7.37122 -0.00131068 0)
(7.37324 -0.00092374 0)
(7.37526 -0.000545665 0)
(7.37729 -0.000178555 0)
(7.37931 0.000175687 0)
(7.38133 0.000515357 0)
(7.38335 0.000838957 0)
(7.38536 0.00114518 0)
(7.38736 0.00143292 0)
(7.38934 0.00170118 0)
(7.39131 0.00194943 0)
(7.33308 -0.00106648 0)
(7.33379 -0.00306774 0)
(7.3351 -0.0045841 0)
(7.33672 -0.0056072 0)
(7.33845 -0.00632072 0)
(7.34026 -0.00683477 0)
(7.34214 -0.00718433 0)
(7.34406 -0.0073971 0)
(7.34601 -0.00750359 0)
(7.34796 -0.00752627 0)
(7.34992 -0.00747962 0)
(7.35188 -0.00737484 0)
(7.35386 -0.00722171 0)
(7.35583 -0.00702851 0)
(7.35781 -0.00680214 0)
(7.3598 -0.00654857 0)
(7.36178 -0.00627305 0)
(7.36378 -0.00598027 0)
(7.36577 -0.00567442 0)
(7.36776 -0.00535929 0)
(7.36976 -0.00503831 0)
(7.37175 -0.00471462 0)
(7.37374 -0.00439107 0)
(7.37573 -0.00407025 0)
(7.37771 -0.00375452 0)
(7.37968 -0.00344597 0)
(7.38164 -0.00314648 0)
(7.38358 -0.00285767 0)
(7.38551 -0.00258094 0)
(7.38742 -0.00231743 0)
(7.38931 -0.00206804 0)
(7.39118 -0.00183335 0)
(7.39303 -0.00161352 0)
(7.3331 -0.00144792 0)
(7.33415 -0.00420777 0)
(7.33607 -0.00631304 0)
(7.33822 -0.00776489 0)
(7.34032 -0.00874872 0)
(7.34242 -0.00937379 0)
(7.34457 -0.00971797 0)
(7.34674 -0.00986381 0)
(7.3489 -0.00987808 0)
(7.35105 -0.00980312 0)
(7.35317 -0.00966588 0)
(7.35528 -0.00948543 0)
(7.35735 -0.0092752 0)
(7.3594 -0.00904404 0)
(7.36141 -0.00879778 0)
(7.36338 -0.00854047 0)
(7.36532 -0.00827511 0)
(7.36723 -0.00800401 0)
(7.3691 -0.0077291 0)
(7.37094 -0.00745207 0)
(7.37274 -0.00717451 0)
(7.37452 -0.00689794 0)
(7.37626 -0.0066238 0)
(7.37797 -0.00635351 0)
(7.37965 -0.00608842 0)
(7.3813 -0.00582979 0)
(7.38293 -0.00557882 0)
(7.38452 -0.0053366 0)
(7.38608 -0.00510413 0)
(7.38762 -0.00488233 0)
(7.38913 -0.00467204 0)
(7.3906 -0.00447417 0)
(7.39205 -0.00428937 0)
(7.33311 -0.00228413 0)
(7.33485 -0.00521413 0)
(7.33794 -0.00688059 0)
(7.34136 -0.00825305 0)
(7.34468 -0.00954373 0)
(7.34787 -0.0106127 0)
(7.35088 -0.0114181 0)
(7.35363 -0.0120073 0)
(7.3561 -0.0124209 0)
(7.35832 -0.0126801 0)
(7.36029 -0.0128054 0)
(7.36205 -0.0128199 0)
(7.3636 -0.0127452 0)
(7.36497 -0.0125992 0)
(7.36619 -0.0123972 0)
(7.36727 -0.0121519 0)
(7.36823 -0.011874 0)
(7.3691 -0.0115723 0)
(7.36987 -0.011254 0)
(7.37057 -0.010925 0)
(7.37121 -0.0105902 0)
(7.37179 -0.0102536 0)
(7.37233 -0.00991832 0)
(7.37284 -0.00958709 0)
(7.37331 -0.00926206 0)
(7.37376 -0.00894499 0)
(7.37419 -0.00863727 0)
(7.3746 -0.00834003 0)
(7.37499 -0.00805409 0)
(7.37537 -0.00778007 0)
(7.37573 -0.00751833 0)
(7.37608 -0.00726908 0)
(7.37642 -0.00703218 0)
(7.3363 -0.00651743 0)
(7.34557 -0.0134872 0)
(7.35343 -0.0156874 0)
(7.35888 -0.0161915 0)
(7.36267 -0.0161557 0)
(7.36523 -0.0157417 0)
(7.36659 -0.015079 0)
(7.36685 -0.0143339 0)
(7.36623 -0.0135995 0)
(7.36494 -0.0129038 0)
(7.36313 -0.0122537 0)
(7.36094 -0.0116515 0)
(7.35847 -0.0110965 0)
(7.35582 -0.0105845 0)
(7.35304 -0.0101106 0)
(7.35021 -0.00966988 0)
(7.34736 -0.00925833 0)
(7.34452 -0.00887236 0)
(7.34173 -0.00850903 0)
(7.339 -0.00816598 0)
(7.33634 -0.00784134 0)
(7.33377 -0.00753364 0)
(7.3313 -0.00724177 0)
(7.32892 -0.00696486 0)
(7.32663 -0.00670221 0)
(7.32445 -0.00645331 0)
(7.32237 -0.00621771 0)
(7.32039 -0.00599502 0)
(7.31849 -0.00578488 0)
(7.3167 -0.00558688 0)
(7.31499 -0.00540047 0)
(7.31337 -0.00522503 0)
(7.31184 -0.00505909 0)
(7.32508 -0.00546999 0)
(7.31334 -0.0121256 0)
(7.29927 -0.0150435 0)
(7.28288 -0.016133 0)
(7.26681 -0.0163125 0)
(7.25211 -0.0158766 0)
(7.23866 -0.0150367 0)
(7.22632 -0.0139929 0)
(7.21505 -0.0128807 0)
(7.20483 -0.0117745 0)
(7.19556 -0.0107152 0)
(7.18713 -0.00972603 0)
(7.17945 -0.00881822 0)
(7.17244 -0.00799451 0)
(7.16602 -0.00725255 0)
(7.16014 -0.00658729 0)