/*--------------------------------*- C++ -*----------------------------------*\
| =========                 |                                                 |
| \\      /  F ield         | OpenFOAM: The Open Source CFD Toolbox           |
|  \\    /   O peration     | Version:  4.1                                   |
|   \\  /    A nd           | Web:      www.OpenFOAM.org                      |
|    \\/     M anipulation  |                                                 |
\*---------------------------------------------------------------------------*/
FoamFile
{
    version     2.0;
    format      ascii;
    class       volScalarField;
    location    "1200";
    object      p;
}
// * * * * * * * * * * * * * * * * * * * * * * * * * * * * * * * * * * * * * //

dimensions      [0 2 -2 0 0 0 0];

internalField   nonuniform List<scalar> 
26785
(
-68.5632
-63.4989
-63.3832
-65.758
-69.0609
-72.9853
-76.825
-79.9169
-81.9299
-82.7295
-82.2208
-80.3817
-77.3176
-73.3789
-68.9755
-64.1128
-58.5542
-52.1912
-45.045
-37.2342
-28.938
-20.2676
-11.3125
-2.2221
6.84726
15.7171
24.0665
31.4459
37.4035
41.4822
43.0568
41.4638
36.3956
27.9373
16.4963
2.98098
-11.2064
-24.4815
-35.6258
-44.0385
-49.8043
-53.5988
-56.545
-59.9972
-65.1763
-72.9171
-83.5902
-96.793
-111.387
-126.641
-141.934
-156.578
-170.905
-185.564
-200.769
-216.393
-232.184
-247.871
-263.202
-277.966
-291.982
-305.091
-317.155
-327.979
-337.483
-345.557
-352.319
-358.253
-363.746
-367.724
-369.74
-369.344
-367.745
-367.615
-371.495
-379.744
-390.08
-401.442
-414.155
-426.293
-431.201
-418.221
-383.893
-337.59
-297.075
-271.836
-260.253
-254.616
-251.09
-236.42
-199.687
-145.739
-101.978
-83.2039
-64.7236
-39.1838
-24.0975
-21.092
-17.585
-7.3681
-68.595
-63.485
-63.3773
-65.7723
-69.0883
-73.0161
-76.8522
-79.9419
-81.955
-82.755
-82.2459
-80.4054
-77.3381
-73.3971
-68.9963
-64.1382
-58.583
-52.2216
-45.0746
-37.2613
-28.9629
-20.2892
-11.3288
-2.23244
6.84487
15.7265
24.0899
31.4824
37.4518
41.5416
43.1213
41.5208
36.4343
27.9487
16.4701
2.91107
-11.3171
-24.6175
-35.7675
-44.1641
-49.8932
-53.6321
-56.5113
-59.8998
-65.0298
-72.7421
-83.4226
-96.6908
-111.345
-126.641
-141.992
-156.657
-170.976
-185.625
-200.826
-216.45
-232.242
-247.929
-263.26
-278.023
-292.039
-305.149
-317.222
-328.057
-337.573
-345.645
-352.37
-358.301
-363.868
-367.897
-369.96
-369.439
-367.586
-367.317
-371.359
-379.854
-390.309
-401.791
-414.799
-427.65
-433.372
-420.703
-385.739
-337.975
-296.291
-270.541
-259.42
-255.135
-252.93
-239.093
-201.202
-144.755
-102.158
-84.1392
-63.8104
-37.9608
-24.0939
-21.4647
-19.0699
-8.64382
-68.6681
-63.4602
-63.3938
-65.8188
-69.1526
-73.0813
-76.9089
-79.9942
-82.0074
-82.8079
-82.2978
-80.4539
-77.3799
-73.4341
-69.039
-64.1915
-58.644
-52.2866
-45.1377
-37.319
-29.0155
-20.3342
-11.3625
-2.25354
6.83962
15.7439
24.1334
31.5496
37.5406
41.6519
43.2435
41.6334
36.5183
27.988
16.4463
2.81397
-11.4814
-24.8211
-35.9769
-44.3429
-50.0078
-53.6511
-56.415
-59.6927
-64.7328
-72.3811
-83.051
-96.4208
-111.185
-126.557
-142.032
-156.762
-171.085
-185.733
-200.937
-216.568
-232.367
-248.058
-263.39
-278.15
-292.164
-305.274
-317.356
-328.204
-337.736
-345.808
-352.474
-358.408
-364.101
-368.228
-370.399
-369.637
-367.271
-366.798
-371.156
-380.081
-390.785
-402.501
-416.132
-430.518
-437.965
-425.92
-389.415
-338.577
-294.629
-267.867
-257.644
-255.76
-256.604
-245.761
-206.503
-142.224
-100.099
-84.0948
-64.372
-38.5747
-24.5622
-20.714
-18.3292
-9.33634
-68.7862
-63.4222
-63.4635
-65.9116
-69.2588
-73.1811
-76.9955
-80.0751
-82.0883
-82.8895
-82.3778
-80.5288
-77.444
-73.4912
-69.1062
-64.276
-58.7412
-52.3894
-45.2366
-37.4083
-29.096
-20.4022
-11.4128
-2.28505
6.83137
15.769
24.1975
31.6505
37.6772
41.8258
43.4418
41.8239
36.6705
28.0745
16.4376
2.69429
-11.7025
-25.1013
-36.2661
-44.5883
-50.1621
-53.6699
-56.2717
-59.3948
-64.3077
-71.859
-82.4886
-95.9654
-110.882
-126.334
-141.99
-156.836
-171.189
-185.851
-201.073
-216.721
-232.534
-248.235
-263.571
-278.332
-292.344
-305.452
-317.545
-328.406
-337.958
-346.037
-352.626
-358.573
-364.43
-368.714
-371.088
-370.001
-366.864
-366.149
-370.908
-380.312
-391.378
-403.422
-418.015
-434.777
-444.718
-433.643
-395.141
-339.963
-292.559
-264.161
-255.388
-255.739
-261.688
-255.419
-215.262
-146.36
-102.676
-85.4989
-66.6028
-44.016
-29.3563
-22.126
-17.1173
-8.7796
-68.9685
-63.3593
-63.5904
-66.0554
-69.4076
-73.3148
-77.1122
-80.185
-82.1985
-83.0005
-82.487
-80.631
-77.5319
-73.5703
-69.1997
-64.3935
-58.8755
-52.5305
-45.3715
-37.5293
-29.2046
-20.4937
-11.4807
-2.32816
6.8188
15.8007
24.2817
31.7855
37.863
42.0665
43.7212
42.0989
36.8995
28.2197
16.4581
2.56826
-11.9636
-25.4424
-36.6225
-44.8914
-50.3503
-53.6855
-56.0807
-59.0087
-63.761
-71.1844
-81.7335
-95.301
-110.427
-125.946
-141.816
-156.834
-171.252
-185.953
-201.212
-216.893
-232.732
-248.452
-263.798
-278.562
-292.574
-305.68
-317.783
-328.658
-338.233
-346.33
-352.824
-358.791
-364.82
-369.339
-372.038
-370.512
-366.298
-365.371
-370.497
-380.278
-391.653
-404.002
-419.762
-439.333
-452
-442.044
-401.498
-342.175
-290.988
-260.101
-254.595
-257.38
-262.537
-257.9
-226.114
-154.472
-109.562
-88.2039
-67.69
-47.1315
-32.7718
-23.8487
-17.4162
-9.64571
-69.2296
-63.2703
-63.7512
-66.2477
-69.5974
-73.4808
-77.2581
-80.3235
-82.3375
-83.141
-82.6255
-80.7611
-77.6444
-73.6725
-69.3209
-64.5455
-59.0488
-52.7117
-45.5437
-37.683
-29.3419
-20.6087
-11.5656
-2.38244
6.80201
15.8387
24.3851
31.9527
38.0961
42.3721
44.0804
42.4587
37.2079
28.4285
16.5159
2.44644
-12.2543
-25.836
-37.0415
-45.2514
-50.5751
-53.7014
-55.8459
-58.541
-63.1043
-70.3741
-80.8014
-94.4209
-109.784
-125.358
-141.462
-156.712
-171.236
-186.011
-201.331
-217.065
-232.946
-248.695
-264.061
-278.834
-292.848
-305.953
-318.066
-328.953
-338.551
-346.689
-353.065
-359.053
-365.239
-370.079
-373.35
-371.442
-365.725
-364.685
-369.97
-380.472
-392.35
-405.033
-421.801
-443.758
-458.989
-449.779
-407.814
-345.916
-294.919
-262.735
-255.265
-257.704
-261.699
-255.037
-224.368
-160.025
-115.842
-91.5022
-69.8179
-50.1537
-35.4883
-24.9907
-17.4584
-9.65594
-69.5706
-63.1678
-63.9234
-66.4833
-69.8253
-73.6771
-77.4319
-80.4899
-82.5051
-83.3108
-82.7936
-80.9197
-77.7823
-73.7987
-69.4712
-64.7335
-59.2621
-52.9335
-45.7531
-37.8687
-29.5069
-20.746
-11.6664
-2.44698
6.78119
15.8822
24.5052
32.148
38.3703
42.7354
44.5121
42.8977
37.5932
28.7028
16.6164
2.33499
-12.5711
-26.2833
-37.5287
-45.6762
-50.8446
-53.7239
-55.5708
-57.9951
-62.3432
-69.4383
-79.7103
-93.3343
-108.918
-124.543
-140.887
-156.425
-171.11
-185.999
-201.411
-217.22
-233.161
-248.954
-264.351
-279.142
-293.164
-306.268
-318.387
-329.284
-338.904
-347.112
-353.35
-359.389
-365.709
-371.034
-374.865
-372.549
-365.186
-364.551
-369.699
-380.706
-393.122
-406.502
-424.566
-448.596
-466.534
-457.471
-413.825
-351.076
-300.164
-266.303
-257.043
-258.248
-260.392
-252.082
-220.989
-163.664
-120.624
-94.9927
-72.467
-53.184
-38.2446
-26.5446
-17.9719
-9.94539
-70.0314
-63.0741
-64.1044
-66.7604
-70.0886
-73.9016
-77.6322
-80.6832
-82.7004
-83.5092
-82.9909
-81.1068
-77.9462
-73.9501
-69.6519
-64.959
-59.5165
-53.1965
-45.9996
-38.0858
-29.6987
-20.9044
-11.7818
-2.52103
6.75652
15.9305
24.6403
32.3679
38.681
43.1509
45.0115
43.4129
38.0552
29.0448
16.7613
2.23075
-12.9241
-26.7979
-38.0972
-46.1754
-51.1649
-53.7556
-55.2567
-57.3754
-61.487
-68.3916
-78.4797
-92.0575
-107.83
-123.517
-140.076
-155.944
-170.846
-185.894
-201.433
-217.344
-233.365
-249.22
-264.66
-279.48
-293.517
-306.622
-318.744
-329.642
-339.278
-347.592
-353.687
-359.846
-366.192
-372.15
-376.974
-374.117
-364.884
-364.59
-370.181
-381.146
-393.787
-407.658
-426.581
-451.556
-469.346
-460.884
-419.662
-356.709
-305.23
-271.166
-260.149
-258.832
-258.043
-247.779
-217.114
-165.843
-124.883
-98.5435
-75.4409
-56.2689
-40.9704
-28.3567
-18.8536
-10.3685
-70.5824
-63.0185
-64.3048
-67.0785
-70.3846
-74.1521
-77.8572
-80.9019
-82.9224
-83.7356
-83.2171
-81.3224
-78.1364
-74.1275
-69.8647
-65.2231
-59.8128
-53.5008
-46.2827
-38.3332
-29.9164
-21.0829
-11.9108
-2.60403
6.72794
15.9829
24.7888
32.6099
39.0249
43.6152
45.5759
44.0034
38.5956
29.4566
16.9494
2.12732
-13.323
-27.3872
-38.749
-46.7464
-51.5325
-53.7937
-54.9037
-56.688
-60.5491
-67.2536
-77.1349
-90.6164
-106.549
-122.313
-139.031
-155.248
-170.421
-185.677
-201.381
-217.423
-233.548
-249.483
-264.984
-279.846
-293.908
-307.016
-319.134
-330.019
-339.65
-348.111
-354.036
-360.315
-366.637
-373.219
-378.884
-376.057
-365.711
-364.923
-371.588
-382.59
-395.294
-409.389
-428.598
-453.698
-469.404
-459.174
-420.14
-361.641
-311.072
-277.868
-264.424
-260.069
-255.911
-243.276
-213.469
-167.675
-129.295
-102.408
-79.0079
-59.7306
-43.8672
-30.3399
-19.922
-10.6007
-71.1907
-63.0146
-64.5269
-67.4347
-70.7104
-74.426
-78.105
-81.1447
-83.1698
-83.9888
-83.4714
-81.5662
-78.3533
-74.3321
-70.1109
-65.5273
-60.1516
-53.8463
-46.6015
-38.61
-30.1591
-21.2806
-12.0527
-2.69567
6.69529
16.0391
24.9494
32.8718
39.3995
44.1258
46.2031
44.6684
39.2149
29.9383
17.1777
2.01855
-13.7738
-28.0519
-39.4808
-47.3846
-51.9456
-53.839
-54.514
-55.9402
-59.5425
-66.0448
-75.7018
-89.0367
-105.1
-120.979
-137.769
-154.328
-169.819
-185.332
-201.241
-217.445
-233.7
-249.737
-265.317
-280.237
-294.335
-307.452
-319.557
-330.402
-339.992
-348.619
-354.399
-360.832
-366.888
-373.623
-379.937
-377.494
-367.954
-366.855
-374.405
-385.091
-397.56
-411.634
-430.578
-454.906
-468.612
-457.606
-420.408
-365.906
-317.39
-285.04
-269.322
-261.939
-254.644
-239.914
-211.057
-169.87
-133.868
-106.608
-83.0201
-63.4532
-46.941
-32.5511
-21.2878
-11.1072
-71.8323
-63.0766
-64.7726
-67.8253
-71.0625
-74.7207
-78.3733
-81.4096
-83.441
-84.2675
-83.7528
-81.8379
-78.5972
-74.565
-70.3924
-65.8729
-60.5334
-54.2327
-46.9554
-38.9153
-30.426
-21.4968
-12.2068
-2.79582
6.65828
16.0983
25.121
33.1516
39.8021
44.6795
46.8898
45.4055
39.9116
30.4879
17.4419
1.89924
-14.279
-28.7892
-40.2864
-48.0842
-52.4025
-53.8912
-54.0886
-55.1376
-58.4789
-64.7843
-74.2022
-87.3488
-103.491
-119.54
-136.333
-153.189
-169.034
-184.849
-201.002
-217.401
-233.812
-249.975
-265.655
-280.651
-294.799
-307.934
-320.016
-330.783
-340.239
-349.026
-354.723
-361.016
-366.819
-373.712
-380.687
-379.567
-371.836
-370.832
-378.115
-388.679
-400.707
-414.507
-432.566
-454.796
-466.08
-455.052
-420.345
-369.365
-323.659
-292.14
-274.604
-264.433
-254.294
-237.722
-209.675
-172.246
-138.305
-110.927
-87.1381
-67.1221
-49.9088
-34.6974
-22.6108
-11.3984
-72.4732
-63.2181
-65.045
-68.2465
-71.4372
-75.0331
-78.6599
-81.6948
-83.7343
-84.5704
-84.0603
-82.1368
-78.8682
-74.8274
-70.7109
-66.2613
-60.9588
-54.6601
-47.3439
-39.2484
-30.7169
-21.7312
-12.373
-2.90472
6.61639
16.16
25.3023
33.447
40.2299
45.2725
47.6314
46.2109
40.683
31.1017
17.7364
1.76552
-14.8373
-29.5902
-41.1535
-48.8341
-52.898
-53.9482
-53.6258
-54.2841
-57.3693
-63.4917
-72.6571
-85.5811
-101.743
-117.97
-134.748
-151.846
-168.064
-184.222
-200.656
-217.282
-233.877
-250.191
-265.993
-281.086
-295.303
-308.469
-320.522
-331.149
-340.292
-349.216
-354.999
-361.204
-367.163
-374.559
-382.136
-382.551
-376.732
-376.046
-382.479
-393.154
-404.691
-417.934
-434.594
-453.68
-462.267
-451.188
-419.316
-372.438
-329.908
-299.263
-280.243
-267.523
-254.79
-236.587
-209.173
-174.692
-142.489
-115.204
-91.2364
-70.7392
-52.8488
-36.8847
-24.0236
-11.8234
-73.1239
-63.4478
-65.3472
-68.6942
-71.8309
-75.3604
-78.9623
-81.9981
-84.0479
-84.8957
-84.3925
-82.4621
-79.1665
-75.121
-71.0688
-66.6942
-61.4286
-55.1284
-47.7662
-39.6086
-31.0315
-21.9835
-12.5513
-3.02289
6.56881
16.2234
25.492
33.7557
40.6798
45.9006
48.423
47.0807
41.5257
31.7749
18.0562
1.61626
-15.4433
-30.4425
-42.0678
-49.6231
-53.4283
-54.0071
-53.1154
-53.3776
-56.2228
-62.1857
-71.0858
-83.7521
-99.8894
-116.238
-133.015
-150.318
-166.918
-183.449
-200.198
-217.083
-233.89
-250.379
-266.329
-281.542
-295.85
-309.069
-321.099
-331.607
-340.402
-349.192
-355.497
-362.094
-369.006
-376.829
-384.447
-386.141
-382.287
-382.153
-387.552
-398.237
-409.466
-421.859
-436.782
-452.255
-458.068
-447.082
-417.982
-375.551
-336.23
-306.461
-286.183
-271.151
-256.077
-236.458
-209.532
-177.277
-146.47
-119.371
-95.248
-74.2684
-55.7139
-39.0316
-25.4141
-12.1791
-73.7849
-63.7707
-65.6824
-69.1645
-72.2396
-75.6994
-79.2779
-82.3173
-84.3798
-85.2415
-84.748
-82.8129
-79.4922
-75.4473
-71.4684
-67.1732
-61.943
-55.6372
-48.2216
-39.995
-31.3693
-22.2537
-12.7417
-3.15104
6.5146
16.2876
25.6884
34.0755
41.1492
46.5598
49.26
48.0112
42.4357
32.5023
18.3968
1.45177
-16.0917
-31.337
-43.0212
-50.446
-53.9967
-54.0684
-52.5198
-52.3979
-55.0345
-60.8902
-69.5095
-81.8811
-97.9536
-114.372
-131.147
-148.627
-165.605
-182.534
-199.626
-216.797
-233.844
-250.536
-266.659
-282.017
-296.441
-309.746
-321.805
-332.322
-340.824
-349.687
-356.617
-364.193
-371.994
-380.165
-387.886
-390.575
-388.461
-388.976
-393.657
-403.766
-414.82
-426.259
-439.253
-451.33
-454.234
-443.472
-416.911
-378.813
-342.556
-313.642
-292.291
-275.206
-258.078
-237.25
-210.671
-180.047
-150.322
-123.424
-99.1603
-77.7135
-58.5194
-41.1508
-26.8013
-12.5631
-74.4482
-64.1909
-66.0541
-69.6539
-72.6597
-76.0469
-79.604
-82.6501
-84.7279
-85.6061
-85.1251
-83.1882
-79.8455
-75.8085
-71.912
-67.6996
-62.5021
-56.1856
-48.7088
-40.4066
-31.7301
-22.5413
-12.9441
-3.28984
6.45279
16.3516
25.8901
34.404
41.6353
47.2463
50.1384
48.9989
43.4092
33.2787
18.7545
1.27099
-16.7834
-32.2737
-44.0145
-51.3056
-54.6106
-54.1195
-51.8214
-51.311
-53.7598
-59.6069
-67.9636
-79.9901
-95.9538
-112.444
-129.173
-146.797
-164.143
-181.481
-198.939
-216.423
-233.736
-250.658
-266.981
-282.511
-297.08
-310.508
-322.753
-333.428
-341.735
-350.869
-358.608
-367.215
-375.766
-384.37
-392.351
-395.895
-395.293
-396.506
-400.904
-409.825
-420.477
-431.07
-442.167
-451.319
-451.454
-440.823
-416.502
-382.297
-348.802
-320.688
-298.436
-279.583
-260.7
-238.841
-212.471
-183.01
-154.101
-127.378
-102.967
-81.0637
-61.251
-43.2127
-28.1392
-12.9342
-75.1101
-64.7156
-66.4654
-70.1584
-73.0872
-76.3996
-79.938
-82.9943
-85.09
-85.9875
-85.5223
-83.5871
-80.2267
-76.2066
-72.402
-68.2741
-63.1053
-56.7721
-49.2261
-40.842
-32.113
-22.8459
-13.1585
-3.43994
6.3825
16.4149
26.0953
34.7386
42.1352
47.9563
51.054
50.0405
44.4423
34.0999
19.1262
1.07031
-17.5246
-33.258
-45.0516
-52.2094
-55.2976
-54.0989
-51.0449
-50.1094
-52.3523
-58.2816
-66.4842
-78.1112
-93.8992
-110.54
-127.131
-144.853
-162.55
-180.301
-198.14
-215.959
-233.563
-250.74
-267.291
-283.023
-297.77
-311.435
-324.045
-334.955
-343.35
-352.872
-361.474
-371.001
-380.266
-389.364
-397.667
-402.041
-402.84
-404.772
-409.062
-416.629
-426.386
-436.162
-445.544
-452.05
-450.191
-439.431
-417.013
-386.098
-354.96
-327.551
-304.558
-284.219
-263.854
-241.106
-214.825
-186.166
-157.847
-131.248
-106.666
-84.3158
-63.9071
-45.2109
-29.4135
-13.3047
-75.7727
-65.3495
-66.9191
-70.6748
-73.5184
-76.7544
-80.2774
-83.3474
-85.4642
-86.3842
-85.9385
-84.0087
-80.6361
-76.6439
-72.9404
-68.8969
-63.751
-57.3948
-49.7715
-41.2998
-32.5174
-23.1669
-13.3847
-3.60189
6.30299
16.4764
26.3022
35.0767
42.6458
48.6855
52.0025
51.1326
45.5314
34.9622
19.5097
0.845853
-18.3208
-34.2906
-46.13
-53.1619
-56.1268
-53.9645
-50.1893
-48.8029
-50.8002
-56.8227
-65.0369
-76.2966
-91.7881
-108.672
-125.08
-142.819
-160.844
-179.003
-197.232
-215.403
-233.321
-250.782
-267.588
-283.551
-298.553
-312.613
-325.71
-336.965
-345.809
-355.772
-365.126
-375.441
-385.423
-395.072
-403.763
-408.983
-411.083
-413.682
-417.873
-424.293
-432.709
-441.47
-449.216
-453.371
-450.392
-439.407
-418.521
-390.273
-361.067
-334.255
-310.662
-289.087
-267.47
-243.945
-217.649
-189.514
-161.592
-135.051
-110.269
-87.4761
-66.4923
-47.1442
-30.6084
-13.6708
-76.4284
-66.0889
-67.4172
-71.1996
-73.9494
-77.1081
-80.6194
-83.7075
-85.8489
-86.7947
-86.3725
-84.4526
-81.0744
-77.1229
-73.5285
-69.5674
-64.4369
-58.0505
-50.3424
-41.7781
-32.9421
-23.5033
-13.6223
-3.77616
6.21366
16.5357
26.5089
35.4159
43.164
49.4282
52.9782
52.2708
46.6719
35.8629
19.905
0.597461
-19.17
-35.3618
-47.2382
-54.1483
-57.1067
-53.7538
-49.228
-47.3868
-49.1061
-55.1914
-63.5159
-74.5653
-89.6752
-106.736
-123.066
-140.722
-159.049
-177.598
-196.219
-214.758
-233.011
-250.78
-267.872
-284.122
-299.51
-314.087
-327.718
-339.514
-349.121
-359.596
-369.592
-380.507
-391.195
-401.434
-410.593
-416.654
-419.909
-423.075
-427.126
-432.639
-439.616
-447.063
-453.168
-455.518
-451.795
-440.677
-420.994
-394.846
-367.182
-340.858
-316.777
-294.175
-271.493
-247.276
-220.879
-193.05
-165.363
-138.81
-113.791
-90.5548
-69.014
-49.0158
-31.7101
-14.0331
-77.0733
-66.9287
-67.9585
-71.7289
-74.3766
-77.4574
-80.9616
-84.0725
-86.2424
-87.2181
-86.8237
-84.918
-81.5423
-77.646
-74.1669
-70.2833
-65.1587
-58.7345
-50.9347
-42.2744
-33.3852
-23.8535
-13.8706
-3.96299
6.11417
16.5919
26.7129
35.7535
43.6863
50.1774
53.9743
53.4492
47.8573
36.8005
20.3148
0.33064
-20.062
-36.4538
-48.3596
-55.1578
-58.1495
-53.5071
-48.1473
-45.8557
-47.2696
-53.4159
-61.8362
-72.8837
-87.7112
-104.646
-121.077
-138.597
-157.186
-176.099
-195.109
-214.024
-232.631
-250.735
-268.151
-284.793
-300.691
-315.827
-330.076
-342.65
-353.207
-364.285
-374.887
-386.237
-397.573
-408.41
-418.088
-424.949
-429.182
-432.802
-436.682
-441.42
-447.138
-453.127
-457.685
-458.704
-454.287
-443.094
-424.351
-399.823
-373.367
-347.426
-322.939
-299.472
-275.878
-251.035
-224.467
-196.773
-169.184
-142.546
-117.256
-93.5725
-71.4886
-50.8403
-32.7264
-14.3945
-77.7162
-67.8692
-68.5436
-72.2594
-74.7961
-77.7993
-81.3017
-84.4408
-86.6439
-87.6536
-87.2913
-85.4044
-82.0408
-78.2151
-74.8546
-71.0402
-65.9095
-59.4396
-51.5432
-42.7852
-33.8438
-24.2151
-14.1281
-4.16202
6.00469
16.6444
26.9113
36.0859
44.208
50.9241
54.9838
54.6594
49.0799
37.7743
20.744
0.0547075
-20.9831
-37.5453
-49.4752
-56.192
-59.1963
-53.2342
-46.9448
-44.2041
-45.2906
-51.5228
-59.9588
-71.2015
-86.0078
-102.436
-119.058
-136.474
-155.274
-174.516
-193.906
-213.205
-232.184
-250.645
-268.468
-285.627
-302.076
-317.818
-332.842
-346.349
-357.955
-369.722
-380.935
-392.631
-404.536
-415.96
-426.173
-433.758
-438.792
-442.766
-446.475
-450.536
-455.172
-459.804
-462.987
-462.89
-457.81
-446.528
-428.503
-405.207
-379.677
-354.02
-329.179
-304.975
-280.589
-255.174
-228.377
-200.686
-173.083
-146.296
-120.705
-96.5712
-73.9499
-52.6536
-33.721
-14.7649
-78.3233
-68.9034
-69.1725
-72.7873
-75.2042
-78.1307
-81.6376
-84.8108
-87.0523
-88.1007
-87.7746
-85.9111
-82.5711
-78.831
-75.5883
-71.8308
-66.679
-60.1557
-52.1612
-43.3068
-34.3139
-24.5843
-14.3924
-4.37166
5.88645
16.6927
27.1005
36.4091
44.7222
51.6587
55.9994
55.8898
50.3328
38.7852
21.1993
-0.220433
-21.9188
-38.6122
-50.5664
-57.2511
-60.2005
-52.9337
-45.6289
-42.4272
-43.1838
-49.5299
-57.8811
-69.4735
-84.4531
-100.236
-116.968
-134.361
-153.323
-172.86
-192.617
-212.304
-231.67
-250.549
-268.885
-286.606
-303.623
-320.101
-336.029
-350.544
-363.263
-375.785
-387.615
-399.631
-412.048
-424.048
-434.783
-443
-448.678
-452.93
-456.482
-459.962
-463.655
-467.098
-469.07
-467.973
-462.279
-450.879
-433.379
-410.999
-386.162
-360.696
-335.533
-310.69
-285.611
-259.666
-232.597
-204.809
-177.105
-150.119
-124.204
-99.6148
-76.4474
-54.5172
-34.8236
-15.163
-78.8822
-70.0016
-69.8375
-73.3085
-75.5969
-78.4487
-81.9672
-85.1816
-87.4674
-88.559
-88.273
-86.4378
-83.1344
-79.4924
-76.3626
-72.6446
-67.4538
-60.8713
-52.7823
-43.836
-34.7907
-24.9563
-14.6595
-4.58838
5.76231
16.7367
27.2767
36.718
45.22
52.372
57.0124
57.1277
51.6118
39.8355
21.6882
-0.486088
-22.8541
-39.6263
-51.6117
-58.3547
-61.1262
-52.5568
-44.2092
-40.5248
-40.968
-47.4485
-55.6551
-67.7003
-82.8336
-98.1192
-114.816
-132.254
-151.339
-171.138
-191.25
-211.327
-231.112
-250.484
-269.394
-287.695
-305.372
-322.717
-339.604
-355.175
-369.04
-382.356
-394.809
-407.166
-420.076
-432.642
-443.872
-452.627
-458.817
-463.286
-466.701
-469.685
-472.559
-474.965
-475.872
-473.882
-467.615
-456.067
-438.929
-417.21
-392.868
-367.509
-342.047
-316.646
-290.955
-264.514
-237.141
-209.183
-181.315
-154.09
-127.831
-102.771
-79.0328
-56.4969
-36.1606
-15.6085
-79.4203
-71.1356
-70.5308
-73.819
-75.9704
-78.7503
-82.2889
-85.5526
-87.8891
-89.0284
-88.7865
-86.9846
-83.7317
-80.1963
-77.1697
-73.4688
-68.2208
-61.5763
-53.4026
-44.3723
-35.2706
-25.3266
-14.9251
-4.80622
5.63733
16.7765
27.4359
37.0072
45.691
53.0566
58.0115
58.363
52.916
40.9296
22.2183
-0.73468
-23.7724
-40.5549
-52.589
-59.5224
-61.9979
-52.0218
-42.6784
-38.4955
-38.6748
-45.2853
-53.3504
-65.9157
-81.0488
-96.0646
-112.63
-130.146
-149.323
-169.359
-189.812
-210.287
-230.542
-250.476
-269.966
-288.882
-307.361
-325.653
-343.526
-360.189
-375.205
-389.33
-402.414
-415.177
-428.602
-441.725
-453.413
-462.62
-469.212
-473.844
-477.134
-479.69
-481.858
-483.368
-483.346
-480.558
-473.759
-462.032
-445.119
-423.855
-399.853
-374.535
-348.797
-322.906
-296.668
-269.756
-242.054
-213.868
-185.779
-158.274
-131.636
-106.072
-81.7252
-58.6098
-37.7399
-16.1021
-79.9204
-72.2939
-71.249
-74.3143
-76.3204
-79.033
-82.6019
-85.9237
-88.318
-89.5094
-89.3155
-87.552
-84.3624
-80.9376
-78.0011
-74.2926
-68.9718
-62.2669
-54.0225
-44.9184
-35.752
-25.6927
-15.1851
-5.01723
5.5191
16.8132
27.5746
37.2703
46.1232
53.7059
58.9814
59.5915
54.2476
42.0725
22.7966
-0.95942
-24.6549
-41.3613
-53.4834
-60.777
-62.7847
-51.2662
-41.024
-36.3363
-36.3561
-43.0436
-51.0412
-64.1621
-79.124
-94.054
-110.432
-128.031
-147.276
-167.528
-188.309
-209.205
-229.985
-250.486
-270.569
-290.219
-309.608
-328.874
-347.767
-365.542
-381.684
-396.618
-410.355
-423.632
-437.629
-451.296
-463.398
-472.973
-479.871
-484.617
-487.786
-489.974
-491.538
-492.284
-491.459
-487.966
-480.672
-468.74
-451.941
-430.974
-407.195
-381.879
-355.891
-329.567
-302.827
-275.453
-247.386
-218.91
-190.533
-162.685
-135.616
-109.501
-84.5059
-60.8178
-39.4492
-16.6238
-80.315
-73.4624
-71.9867
-74.7892
-76.6426
-79.2952
-82.9062
-86.2964
-88.7555
-90.0033
-89.8608
-88.1406
-85.0243
-81.7105
-78.8492
-75.1102
-69.7072
-62.9461
-54.6454
-45.478
-36.2355
-26.0547
-15.4384
-5.21155
5.41953
16.8507
27.6922
37.4999
46.5035
54.3113
59.9107
60.8171
55.6106
43.269
23.4284
-1.15476
-25.4808
-42.0064
-54.2872
-62.2142
-63.414
-50.2573
-39.2392
-34.0418
-34.0815
-40.7451
-48.7899
-62.3832
-77.1078
-92.021
-108.249
-125.91
-145.199
-165.637
-186.746
-208.095
-229.407
-250.479
-271.235
-291.743
-312.09
-332.355
-352.302
-371.185
-388.409
-404.154
-418.599
-432.538
-447.178
-461.368
-473.824
-483.685
-490.802
-495.617
-498.672
-500.551
-501.618
-501.727
-500.22
-496.106
-488.351
-476.189
-459.421
-438.639
-415.005
-389.668
-363.451
-336.725
-309.497
-281.641
-253.154
-224.311
-195.564
-167.299
-139.736
-113.02
-87.3472
-63.0725
-41.1667
-17.1511
-80.6093
-74.6047
-72.7296
-75.2375
-76.9332
-79.5364
-83.2033
-86.6728
-89.204
-90.5118
-90.4232
-88.7503
-85.7132
-82.5091
-79.7093
-75.9228
-70.4349
-63.6218
-55.2748
-46.0542
-36.726
-26.4197
-15.6922
-5.38118
5.35593
16.8972
27.7898
37.6849
46.8211
54.8661
60.809
62.0508
57.0082
44.5221
24.1167
-1.31619
-26.2265
-42.4447
-54.9709
-63.9307
-63.8529
-48.9839
-37.3152
-31.6022
-31.9418
-38.3276
-46.6693
-60.3711
-75.037
-89.9059
-106.082
-123.724
-143.037
-163.675
-185.121
-206.934
-228.778
-250.461
-272.01
-293.451
-314.777
-336.082
-357.103
-377.073
-395.334
-411.914
-427.173
-441.94
-457.282
-471.954
-484.693
-494.754
-502.015
-506.867
-509.833
-511.481
-512.167
-511.771
-509.694
-505.032
-496.841
-484.43
-467.627
-446.948
-423.402
-398.017
-371.562
-344.427
-316.69
-288.307
-259.331
-230.034
-200.832
-172.075
-143.959
-116.602
-90.2313
-65.3452
-42.8344
-17.673
-80.8811
-75.693
-73.462
-75.6526
-77.1894
-79.7582
-83.4962
-87.0563
-89.6659
-91.0359
-91.0026
-89.3789
-86.423
-83.3283
-80.5802
-76.7364
-71.1652
-64.303
-55.9132
-46.654
-37.2424
-26.811
-15.9731
-5.54506
5.31941
16.9314
27.8454
37.8124
47.0847
55.3944
61.7117
63.3021
58.4419
45.8335
24.8642
-1.43702
-26.861
-42.6133
-55.4581
-65.7796
-64.0589
-47.4341
-35.2364
-29.0003
-30.0274
-35.9617
-44.9951
-58.1715
-72.9471
-87.6704
-103.829
-121.408
-140.747
-161.589
-183.401
-205.689
-228.099
-250.496
-272.923
-295.316
-317.652
-340.036
-362.139
-383.167
-402.436
-419.929
-436.15
-451.902
-467.972
-483.057
-495.996
-506.179
-513.531
-518.42
-521.358
-522.887
-523.328
-522.554
-520.004
-514.849
-506.234
-493.547
-476.648
-455.995
-432.466
-406.976
-380.238
-352.653
-324.361
-295.396
-265.862
-236.035
-206.302
-176.989
-148.269
-120.237
-93.1531
-67.6274
-44.451
-18.1888
-81.1447
-76.7162
-74.1741
-76.0281
-77.4101
-79.9643
-83.7889
-87.4505
-90.1433
-91.5759
-91.5965
-90.0218
-87.1458
-84.1651
-81.4629
-77.5576
-71.9063
-64.9955
-56.5625
-47.2869
-37.7944
-27.2308
-16.279
-5.70988
5.2929
16.923
27.8401
37.9005
47.3487
55.9564
62.6462
64.5718
59.9114
47.2051
25.6748
-1.50392
-27.3409
-42.4345
-55.6465
-67.4356
-63.9334
-45.5912
-32.9851
-26.2258
-28.5313
-34.107
-44.064
-56.0383
-70.9297
-85.2371
-101.371
-118.895
-138.312
-159.393
-181.583
-204.37
-227.42
-250.621
-273.954
-297.311
-320.706
-344.198
-367.378
-389.441
-409.734
-428.272
-445.628
-462.475
-479.249
-494.663
-507.72
-517.968
-525.398
-530.381
-533.405
-534.958
-535.295
-534.257
-531.305
-525.681
-516.626
-503.613
-486.541
-465.817
-442.207
-416.525
-389.432
-361.341
-332.446
-302.851
-272.702
-242.281
-211.955
-182.031
-152.665
-123.931
-96.1153
-69.9209
-46.0381
-18.7025
-81.3523
-77.672
-74.8574
-76.3579
-77.5971
-80.16
-84.0858
-87.8586
-90.6363
-92.1292
-92.1998
-90.6712
-87.874
-85.0195
-82.3594
-78.3901
-72.6609
-65.6987
-57.2244
-47.9466
-38.3665
-27.6778
-16.6002
-5.8457
5.33645
16.9771
27.8631
37.9871
47.6459
56.5724
63.6087
65.8565
61.4159
48.6372
26.5526
-1.49713
-27.6116
-41.8377
-55.4104
-68.6549
-63.3086
-43.4388
-30.5303
-23.1942
-27.2542
-32.6925
-43.6764
-53.5692
-68.6464
-82.4329
-98.6156
-116.172
-135.748
-157.109
-179.703
-203.035
-226.795
-250.835
-275.073
-299.431
-323.932
-348.55
-372.796
-395.891
-417.278
-437.03
-455.681
-473.669
-491.081
-506.736
-519.852
-530.153
-537.718
-542.915
-546.183
-547.918
-548.275
-547.044
-543.711
-537.6
-528.057
-514.643
-497.297
-476.386
-452.579
-426.605
-399.081
-370.428
-340.891
-310.627
-279.819
-248.755
-217.787
-187.207
-157.156
-127.69
-99.1231
-72.231
-47.6165
-19.218
-81.4388
-78.5512
-75.503
-76.637
-77.7554
-80.3507
-84.3905
-88.2818
-91.143
-92.6906
-92.8041
-91.3163
-88.6027
-85.8931
-83.2695
-79.2335
-73.4268
-66.4084
-57.8967
-48.6216
-38.9556
-28.1639
-16.9667
-6.01128
5.37632
17.0781
27.9613
38.1514
48.0286
57.2361
64.5873
67.1553
62.9558
50.1302
27.502
-1.39259
-27.6156
-40.7816
-54.6688
-69.2326
-62.0266
-40.9585
-27.8369
-19.8863
-25.5111
-31.5298
-43.3525
-51.7225
-65.8359
-79.2887
-95.6183
-113.289
-133.088
-154.765
-177.802
-201.734
-226.238
-251.109
-276.266
-301.674
-327.317
-353.068
-378.372
-402.531
-425.133
-446.281
-466.339
-485.439
-503.403
-519.235
-532.403
-542.817
-550.648
-556.238
-559.926
-561.971
-562.411
-560.993
-557.246
-550.59
-540.483
-526.579
-508.85
-487.633
-463.515
-437.154
-409.13
-379.874
-349.666
-318.706
-287.206
-255.458
-223.804
-192.525
-161.752
-131.526
-102.182
-74.5627
-49.1975
-19.738
-81.3415
-79.3302
-76.0992
-76.8621
-77.8929
-80.54
-84.7057
-88.7195
-91.6585
-93.2518
-93.3979
-91.9461
-89.3327
-86.7856
-84.1909
-80.0847
-74.2004
-67.1248
-58.5804
-49.3084
-39.569
-28.6947
-17.3999
-6.27747
5.29022
17.1029
28.0695
38.3694
48.4776
57.9576
65.5836
68.4721
64.5355
51.6908
28.536
-1.15452
-27.2892
-39.2546
-53.574
-69.065
-59.9385
-38.1658
-24.7665
-15.9045
-22.2073
-30.836
-42.7139
-50.4302
-63.1863
-76.1798
-92.5511
-110.372
-130.413
-152.418
-175.919
-200.469
-225.71
-251.413
-277.528
-304.027
-330.832
-357.712
-384.081
-409.389
-433.369
-456.07
-477.575
-497.703
-516.14
-532.137
-545.422
-556.099
-564.398
-570.576
-574.821
-577.228
-577.73
-576.064
-571.826
-564.546
-553.798
-539.318
-521.11
-499.481
-474.955
-448.131
-419.556
-389.665
-358.764
-327.086
-294.865
-262.395
-230.013
-197.994
-166.462
-135.445
-105.297
-76.9201
-50.7852
-20.2639
-81.1469
-79.9819
-76.6301
-77.0329
-78.0182
-80.7296
-85.0324
-89.1679
-92.1755
-93.8017
-93.9693
-92.5535
-90.0686
-87.693
-85.1201
-80.9408
-74.9814
-67.8526
-59.281
-50.0098
-40.2013
-29.2548
-17.881
-6.61408
5.11696
17.0667
28.1754
38.6385
48.9892
58.7349
66.6111
69.8175
66.1621
53.3279
29.6786
-0.732716
-26.5593
-37.2862
-52.2019
-68.6979
-57.1839
-34.8957
-21.1345
-11.2469
-17.422
-29.919
-41.6136
-49.4549
-60.8393
-73.1405
-89.3428
-107.317
-127.646
-150.031
-174.033
-199.21
-225.188
-251.751
-278.862
-306.469
-334.429
-362.423
-389.909
-416.519
-442.057
-466.414
-489.317
-510.363
-529.234
-545.457
-559.022
-570.189
-579.181
-586.102
-590.949
-593.672
-594.139
-592.119
-587.301
-579.329
-567.88
-552.76
-533.999
-511.878
-486.87
-459.523
-430.358
-399.806
-368.192
-335.773
-302.8
-269.573
-236.422
-203.623
-171.294
-139.455
-108.474
-79.3075
-52.3802
-20.7967
-81.0207
-80.5273
-77.0834
-77.1525
-78.1379
-80.9198
-85.3691
-89.6211
-92.6843
-94.3287
-94.5092
-93.1401
-90.8157
-88.61
-86.0536
-81.8021
-75.7764
-68.5985
-59.9974
-50.7233
-40.8512
-29.84
-18.4014
-6.99669
4.90573
17.0218
28.3085
38.9591
49.5527
59.5513
67.6672
71.1989
67.8398
55.0419
30.9425
-0.0900842
-25.3769
-35.0121
-50.1589
-67.0117
-53.4451
-31.0214
-16.8561
-6.13868
-12.3627
-28.4784
-39.8783
-47.7552
-58.1549
-69.8975
-85.9032
-104.086
-124.791
-147.631
-172.172
-197.987
-224.716
-252.16
-280.275
-308.973
-338.056
-367.166
-395.895
-424.011
-451.267
-477.287
-501.47
-523.336
-542.667
-559.274
-573.368
-585.291
-595.162
-602.879
-608.265
-611.172
-611.466
-608.985
-603.518
-594.813
-582.629
-566.832
-547.467
-524.798
-499.252
-471.337
-441.547
-410.309
-377.959
-344.774
-311.018
-276.996
-243.038
-209.417
-176.255
-143.561
-111.718
-81.7289
-53.983
-21.3373
-81.0044
-80.9942
-77.4552
-77.2278
-78.2547
-81.1107
-85.7121
-90.0716
-93.1743
-94.823
-95.0164
-93.7167
-91.5761
-89.5319
-86.9893
-82.6734
-76.5945