/*--------------------------------*- C++ -*----------------------------------*\
| =========                 |                                                 |
| \\      /  F ield         | OpenFOAM: The Open Source CFD Toolbox           |
|  \\    /   O peration     | Version:  4.1                                   |
|   \\  /    A nd           | Web:      www.OpenFOAM.org                      |
|    \\/     M anipulation  |                                                 |
\*---------------------------------------------------------------------------*/
FoamFile
{
    version     2.0;
    format      ascii;
    class       surfaceScalarField;
    location    "1200";
    object      phi;
}
// * * * * * * * * * * * * * * * * * * * * * * * * * * * * * * * * * * * * * //

dimensions      [0 3 -1 0 0 0 0];

internalField   nonuniform List<scalar> 
52920
(
447.718
247.379
293.203
154.537
353.666
-60.4511
559.08
-205.4
785.928
-226.842
983.345
-197.407
1149.67
-166.318
1292.22
-142.546
1417.7
-125.471
1531.82
-114.117
1640.77
-108.947
1752.38
-111.604
1877.48
-125.101
2025.17
-147.688
2194.92
-169.746
2379.83
-184.901
2573.43
-193.605
2771.54
-198.099
2971.76
-200.224
3171.84
-200.076
3367.94
-196.093
3556.14
-188.2
3734.39
-178.248
3903.19
-168.802
4066.83
-163.638
4234.57
-167.74
4419.26
-184.681
4634.12
-214.859
4891.32
-257.203
5202.06
-310.729
5572.98
-370.919
6001.51
-428.527
6477.46
-475.955
6986.33
-508.865
7509
-522.664
8022.25
-513.25
8502.14
-479.885
8929.68
-427.538
9294.04
-364.363
9593.85
-299.802
9836.3
-242.452
10035.2
-198.857
10207.4
-172.284
10369.1
-161.645
10530.9
-161.785
10693.1
-162.263
10837.6
-144.499
10926
-88.3894
10917.4
8.66774
10774.7
142.676
10481.3
293.426
10065.6
415.712
9574.05
491.517
9043.56
530.493
8496.89
546.668
7946.86
550.031
7400.73
546.134
6863.21
537.522
6338.05
525.165
5828.52
509.521
5337.25
491.269
4865.92
471.332
4414.32
451.599
3986.71
427.602
3593.89
392.827
3269.74
324.139
3069.17
200.568
3004.81
64.3628
2987.17
17.63
2951.25
35.9219
2823.17
128.077
2612.25
210.919
2476.35
135.893
2634.58
-158.233
3109.96
-475.378
3739.34
-629.387
4373
-633.657
4973.48
-600.479
5559.45
-585.97
6068.21
-508.761
6265.79
-197.588
5963.03
302.757
5270.26
692.772
4528.13
742.134
3991.01
537.116
3751.13
239.881
3806.61
-55.4814
4265.35
-458.742
4695.99
-430.644
4444.9
251.091
3501.9
943.001
2834.04
667.858
2760.44
73.6038
2533.88
226.552
2065.08
468.801
1946.36
118.717
2617.04
-670.681
3701.71
-1084.67
4675.02
-973.315
-513.87
413.562
515.757
270.932
297.188
376.269
-165.779
615.465
-444.584
849.653
-461.026
1049.21
-396.955
1220.16
-337.259
1369.2
-291.578
1500.73
-257.001
1618.71
-232.088
1728.65
-218.886
1839.21
-222.168
1963.61
-249.496
2113.99
-298.059
2292.11
-347.874
2491.32
-384.1
2703.01
-405.292
2919.63
-414.72
3135.72
-416.308
3346.98
-411.338
3548.79
-397.899
3737.13
-376.539
3909.83
-350.944
4066.71
-325.683
4210.57
-307.499
4348.49
-305.654
4490.92
-327.109
4649.28
-373.217
4835.21
-443.13
5061.34
-536.86
5337.96
-647.534
5667.47
-758.044
6045.16
-853.64
6461.85
-925.552
6903.15
-963.96
7349.28
-959.376
7778.01
-908.613
8170.48
-820.01
8514.61
-708.492
8806.82
-592.005
9051.7
-487.327
9260.53
-407.691
9448.38
-360.132
9630.08
-343.339
9817.29
-348.991
10014.5
-359.486
10209.7
-339.661
10365.4
-244.14
10431.6
-57.5416
10356.8
217.542
10114.5
535.755
9734.34
795.826
9268.73
957.135
8759.06
1040.16
8230.82
1074.91
7698.16
1082.69
7168.98
1075.32
6648.3
1058.2
6140
1033.47
5647.42
1002.09
5173.37
965.32
4720.14
924.561
4289.23
882.508
3886.7
830.133
3523.04
756.485
3224
623.176
3027.89
396.671
2954.49
137.761
2930.43
41.6925
2891.28
75.0671
2748.79
270.563
2511.65
448.049
2352.41
295.138
2511.41
-317.237
2995.85
-959.823
3626.93
-1260.47
4247.61
-1254.34
4831.24
-1184.12
5417.05
-1171.77
5935.16
-1026.87
6123.35
-385.779
5780.58
645.521
5040.83
1432.52
4238.99
1543.97
3687.6
1088.51
3488.93
438.544
3564.24
-130.791
3940.98
-835.483
4330.47
-820.129
4040.26
541.296
2942.7
2040.57
2214.51
1396.04
1910.12
377.989
1329.75
806.922
929.6
868.955
731.126
317.19
693.642
-633.197
885.401
-1276.43
1188.56
-1276.47
-768.538
338.685
827.11
233.228
402.665
412.337
-344.88
679.371
-711.61
912.599
-694.25
1109.43
-593.782
1280.39
-508.212
1431.24
-442.423
1565.22
-390.974
1685.6
-352.468
1797.8
-331.077
1911.06
-335.427
2039.74
-378.174
2196.54
-454.854
2382.23
-533.567
2588.03
-589.894
2803.31
-620.575
3019.48
-630.883
3231.03
-627.853
3434.18
-614.484
3624.83
-588.551
3799.26
-550.972
3955.16
-506.836
4091.72
-462.244
4210.76
-426.538
4318.28
-413.171
4423.89
-432.716
4538.63
-487.953
4674.58
-579.081
4845.93
-708.208
5064.9
-866.498
5335
-1028.15
5651.81
-1170.44
6006.45
-1280.19
6385.09
-1342.6
6768.81
-1343.1
7136.77
-1276.57
7472.32
-1155.55
7765.92
-1002.09
8016.27
-842.357
8229.51
-700.559
8417.73
-595.907
8596.1
-538.501
8778.7
-525.936
8976.47
-546.756
9195.62
-578.642
9430.09
-574.126
9647.9
-461.946
9793.82
-203.452
9799.91
211.453
9623.49
712.176
9291.88
1127.44
8863.64
1385.38
8385.46
1518.33
7885.75
1574.62
7380.01
1588.43
6876.78
1578.55
6381.34
1553.65
5897.65
1517.15
5429.04
1470.7
4978.25
1416.12
4547.66
1355.14
4139.2
1290.97
3759.19
1210.13
3417.46
1098.22
3135.14
905.488
2942.81
589.001
2863.15
217.42
2834.53
70.3077
2798.08
111.514
2638.65
429.993
2360.65
726.038
2163.44
492.346
2329.76
-483.552
2849.46
-1479.53
3493.34
-1904.35
4101.7
-1862.69
4679.35
-1761.77
5263.28
-1755.71
5757.97
-1521.56
5894.18
-521.985
5461.57
1078.13
4623.71
2270.39
3714.76
2452.91
3121.6
1681.68
3074.31
485.826
3258.95
-315.429
3347.18
-923.711
3387.05
-860.004
2865.97
1062.38
1522.57
3383.97
-781.635
3700.25
-2970.75
2567.1
-4228.74
2064.91
-4812.7
1452.92
-5369.11
873.606
-5745.69
-256.62
-6024.75
-997.371
-6266.48
-1034.73
-695.987
244.411
1184.03
202.848
444.251
457.17
-599.197
734.143
-988.575
961.879
-921.982
1155.23
-787.124
1324.87
-677.848
1475.41
-592.957
1609.53
-525.094
1730.39
-473.324
1843.47
-444.154
1958.22
-450.171
2088.97
-508.921
2247.7
-613.585
2434.03
-719.893
2638.46
-794.324
2850.46
-832.572
3061.92
-842.34
3267.86
-833.798
3464.8
-811.419
3648.62
-772.364
3815.44
-717.796
3962.72
-654.112
4089.22
-588.748
4196.19
-533.501
4289.05
-506.027
4376.92
-520.587
4470.45
-581.481
4581.72
-690.347
4725.52
-852.013
4914.58
-1055.55
5151.98
-1265.54
5432.49
-1450.95
5746.69
-1594.39
6080.26
-1676.17
6414.25
-1677.09
6728.86
-1591.18
7009.68
-1436.36
7249.44
-1241.85
7448.53
-1041.45
7614.15
-866.184
7759.55
-741.296
7901.27
-680.218
8054.47
-679.131
8231.13
-723.422
8440.52
-788.022
8683.76
-817.358
8936.8
-714.984
9142.55
-409.208
9220.37
133.633
9106.26
826.292
8821.23
1412.47
8430.24
1776.37
7985.05
1963.53
7516.28
2043.39
7040.13
2064.58
6565.21
2053.47
6096.76
2022.1
5638.64
1975.27
5194.02
1915.31
4765.49
1844.65
4355.35
1765.28
3965.45
1680.87
3602.06
1573.52
3274.64
1425.64
3001.79
1178.34
2813.18
777.61
2731.33
299.259
2703.49
98.146
2681.69
133.313
2508.59
603.083
2177.75
1056.88
1943.37
726.725
2115.78
-655.959
2603.18
-1966.93
3137.91
-2439.09
3644.86
-2369.64
4158.83
-2275.73
4682.16
-2279.04
5105.48
-1944.89
5173.59
-590.089
4674.67
1577.05
3779.91
3165.14
2793.75
3439.07
2123.71
2351.72
2522.06
87.4708
2989.62
-782.99
2557.11
-491.205
2516.72
-819.616
1950.1
1629.01
-19.035
5353.1
-2417.31
6098.52
-4525.14
4674.93
-5397.17
2936.94
-5709.72
1765.47
-5901.69
1065.57
-6206.06
47.752
-6595.34
-608.098
-6981.45
-648.616
-479.568
152.969
1570.79
191.806
405.443
502.34
-909.726
778.036
-1264.27
999.589
-1143.53
1189.45
-976.982
1357.04
-845.437
1506.09
-742
1638.98
-657.982
1758.82
-593.152
1871
-556.331
1984.75
-563.926
2114.18
-638.343
2271.11
-770.514
2455.17
-903.951
2657.02
-996.177
2866.18
-1041.73
3074.37
-1050.53
3276.46
-1035.88
3468.85
-1003.8
3647.37
-950.886
3808.28
-878.7
3949.16
-794.987
4068.73
-708.32
4167.94
-632.71
4251.83
-589.917
4329.06
-597.814
4409.64
-662.062
4505.08
-785.78
4629.99
-976.926
4797.24
-1222.8
5010.05
-1478.34
5263.27
-1704.17
5547.06
-1878.17
5846.69
-1975.79
6144.21
-1974.61
6421.95
-1868.91
6667.12
-1681.53
6872.01
-1446.74
7035
-1204.44
7161.09
-992.271
7262.67
-842.868
7357.41
-774.953
7462.57
-784.289
7592.75
-853.601
7761.54
-956.811
7979.37
-1035.18
8235.88
-971.495
8482.75
-656.069
8631.26
-14.8794
8581.94
875.616
8344.51
1649.9
7990.62
2130.27
7578.07
2376.07
7140.01
2481.45
6693.07
2511.52
6245.67
2500.88
5802.76
2465
5367.96
2410.07
4944.25
2339.02
4534.06
2254.84
4139.65
2159.7
3762.8
2057.72
3410.01
1926.31
3091.32
1744.33
2824
1445.65
2640.5
961.108
2559.64
380.117
2541.67
116.114
2553.99
120.981
2372.34
784.734
1974.02
1455.19
1722.72
978.027
1778.7
-711.939
1924.08
-2112.31
2080.71
-2595.72
2362.74
-2651.67
2822.16
-2735.16
3394.71
-2851.58
3852.17
-2402.36
3906.61
-644.532
3384.23
2099.42
2463.91
4085.46
1281.42
4621.57
-536.746
4169.88
-2651.01
2201.73
-3020.54
-413.466
-2317.23
-1194.52
-2621.5
-515.347
-2966.82
1974.33
-2697.25
5083.53
-3957.32
7358.59
-5230.36
5947.97
-5599.76
3306.35
-5815.02
1980.72
-6040.26
1290.81
-6406.36
413.856
-6807.99
-206.471
-7146.51
-310.094
-232.421
73.4352
1947.23
209.046
269.865
543.407
-1244.08
812.345
-1533.2
1028
-1359.19
1214.11
-1163.08
1378.91
-1010.24
1525.54
-888.622
1656.16
-788.602
1773.77
-710.76
1883.54
-666.096
1994.35
-674.733
2120.36
-764.354
2274.05
-924.201
2455.45
-1085.35
2654.98
-1195.7
2861.4
-1248.15
3065.77
-1254.9
3262.72
-1232.83
3448.82
-1189.9
3620.17
-1122.23
3773.42
-1031.95
3906.57
-928.132
4018.48
-820.228
4109.95
-724.179
4185.79
-665.756
4254.3
-666.323
4324.77
-732.525
4407.58
-868.596
4516.73
-1086.07
4665.55
-1371.63
4858.22
-1671
5089.56
-1935.51
5349.2
-2137.82
5623.77
-2250.36
5899.04
-2249.88
6159.95
-2129.82
6392.68
-1914.26
6585.19
-1639.24
6730.96
-1350.2
6831.26
-1092.57
6897.11
-908.716
6947.17
-825.011
7000.76
-837.874
7074.4
-927.231
7184.24
-1066.65
7349.12
-1200.05
7575.42
-1197.79
7834.07
-914.716
8040.81
-221.618
8054.31
862.122
7866.02
1838.19
7550.02
2446.28
7169.96
2756.13
6761.7
2889.71
6342.44
2930.79
5920.37
2922.95
5500.14
2885.24
5085.11
2825.09
4678.14
2746
4281.61
2651.36
3897.8
2543.5
3528.64
2426.89
3181.42
2273.52
2868.18
2057.57
2605.83
1707.99
2429.42
1137.51
2357.54
451.992
2360.21
113.445
2425.81
55.3718
2253.97
956.567
1770.1
1939.06
1459.13
1289
1134.52
-387.336
716.274
-1694.07
533.514
-2412.96
710.068
-2828.22
1225.75
-3250.84
1904.47
-3530.31
2381.84
-2879.73
2340.24
-602.935
1806.22
2633.45
924.79
4966.89
-367.14
5913.49
-1693.08
5495.82
-2467.46
2976.11
-2883.17
2.2428
-3278.86
-798.829
-3922.52
128.316
-4323.31
2375.12
-4654.56
5414.78
-5152.89
7856.92
-5533.19
6328.27
-5667.7
3440.85
-5916.94
2229.96
-6162.3
1536.17
-6512.77
764.322
-6912.32
193.084
-7219.41
-3.00524
-1.22392
42.0512
2276.15
244.559
67.3806
579.324
-1578.84
839.083
-1792.95
1048.75
-1568.85
1230.59
-1344.91
1391.92
-1171.57
1535.37
-1032.07
1662.92
-916.142
1777.38
-825.215
1883.59
-772.306
1990.13
-781.269
2111.59
-885.812
2261.48
-1074.09
2440.09
-1263.95
2636.98
-1392.59
2839.78
-1450.95
3038.87
-1453.98
3228.98
-1422.94
3407.17
-1368.09
3569.96
-1285.02
3714.41
-1176.4
3838.9
-1052.62
3942.39
-923.708
4025.52
-807.313
4093.03
-733.264
4153.12
-726.408
4214.49
-793.895
4286.48
-940.578
4382.77
-1182.36
4517.98
-1506.83
4697.05
-1850.07
4914.05
-2152.51
5158.97
-2382.73
5422.27
-2513.66
5693.73
-2521.33
5957.11
-2393.2
6192.9
-2150.05
6382.58
-1828.91
6515.69
-1483.31
6592.19
-1169.06
6623.68
-940.211
6630.82
-832.143
6634.87
-841.919
6653.24
-945.602
6702.41
-1115.82
6806.36
-1304
6985
-1376.43
7227.4
-1157.11
7466.76
-460.977
7531.02
797.867
7388.87
1980.34
7110.07
2725.08
6761.84
3104.37
6382.11
3269.44
5988.49
3324.41
5589.02
3322.41
5188.13
3286.13
4789.05
3224.17
4394.62
3140.43
4007.33
3038.65
3629.53
2921.3
3263.42
2793
2917.84
2619.1
2609.18
2366.22
2355.84
1961.33
2186.98
1306.36
2146.5
492.471
2177.62
82.3203
2235.42
-2.43385
2030.62
1161.37
1529.88
2439.79
1101.09
1717.79
384.314
329.434
-242.69
-1067.07
-546.629
-2109.02
-513.041
-2861.81
-132.609
-3631.28
402.223
-4065.14
803.22
-3280.73
941.564
-741.279
453.522
3121.49
-639.117
6059.52
-1868.05
7142.43
-2797.79
6425.55
-3446.9
3625.22
-4209.9
765.25
-4924.28
-84.4517
-5514.26
718.294
-5919.52
2780.38
-6143.01
5638.27
-5949.86
7663.78
-5755.14
6133.54
-5886.74
3572.46
-6199.53
2542.75
-6494.25
1830.9
-6840.33
1110.4
-7224.68
577.432
-7537.52
309.837
242.607
50.9384
2524.58
286.738
-168.404
609.565
-1901.67
859.43
-2042.81
1062.75
-1772.18
1239.81
-1521.96
1397.08
-1328.83
1536.74
-1171.73
1660.56
-1039.95
1771.13
-935.788
1872.94
-874.105
1974.27
-882.6
2090.41
-1001.95
2236.06
-1219.74
2411.5
-1439.39
2605.1
-1586.19
2803.29
-1649.14
2995.99
-1646.68
3178.34
-1605.28
3348.05
-1537.8
3502.06
-1439.02
3637.77
-1312.11
3753.82
-1168.67
3849.12
-1019
3924.11
-882.304
3983.52
-792.668
4035.68
-778.568
4089.02
-847.238
4152.25
-1003.8
4239.51
-1269.62
4367.02
-1634.35
4539.86
-2022.91
4751.01
-2363.66
4992.05
-2623.77
5257.5
-2779.11
5537.74
-2801.57
5810.61
-2666.07
6049.18
-2388.62
6230.6
-2010.34
6344.28
-1596.99
6391.72
-1216.5
6386.68
-935.174
6352.22
-797.669
6311.19
-800.888
6281.29
-915.696
6277.76
-1112.29
6326.08
-1352.32
6454.03
-1504.37
6664.92
-1368
6915.95
-712.007
7017.53
696.298
6915.89
2081.98
6671.98
2968.99
6354.11
3422.24
6001.19
3622.36
5630.92
3694.67
5251.19
3702.15
4866.31
3671.01
4479.56
3610.92
4093.92
3526.06
3712.09
3420.49
3336.42
3296.96
2969.42
3160
2622.28
2966.23
2319.89
2668.61
2089.35
2191.87
1927.83
1467.88
1929.3
490.989
1986.89
24.7321
1962.96
21.4885
1706.22
1418.11
1248.93
2897.07
540.99
2425.73
-138.682
1009.1
-714.223
-491.529
-1144.34
-1678.91
-1320.4
-2685.75
-1300.16
-3651.52
-1221.89
-4143.42
-1299.55
-3203.07
-1729.61
-311.219
-2027.5
3419.38
-2370.17
6402.19
-3267.49
8039.75
-3927.22
7085.28
-4513.19
4211.19
-5415.73
1667.8
-6273.13
772.939
-6878.48
1323.65
-7191.87
3093.77
-7095.2
5541.59
-6493.94
7062.52
-6141.84
5781.44
-6389.6
3820.21
-6771.22
2924.37
-7110.55
2170.22
-7465.27
1465.12
-7825.13
937.297
-8135.32
620.025
501.417
57.1503
2703.58
321.525
-432.768
633.364
-2213.5
873.932
-2283.37
1070.61
-1968.86
1242.42
-1693.76
1395.12
-1481.54
1530.49
-1307.09
1650.04
-1159.5
1756.14
-1041.89
1852.85
-970.812
1948.21
-977.962
2058.31
-1112.04
2199.18
-1360.61
2371.05
-1611.26
2560.95
-1776.08
2754.05
-1842.25
2939.94
-1832.57
3114.29
-1779.63
3275.58
-1699.09
3421.1
-1584.55
3548.56
-1439.57
3656.8
-1276.91
3744.62
-1106.81
3812.2
-949.882
3864.3
-844.767
3909.55
-823.815
3956.31
-893.994
4012.96
-1060.46
4094.51
-1351.16
4218.8
-1758.63
4390.56
-2194.66
4601.77
-2574.87
4846.16
-2868.15
5120.97
-3053.92
5413.58
-3094.18
5693.86
-2946.34
5929.34
-2624.1
6096.44
-2177.43
6186.95
-1687.49
6204.61
-1234.16
6165.01
-895.572
6093.11
-725.765
6012.99
-720.761
5942.52
-845.225
5894.84
-1064.61
5894.11
-1351.58
5972.34
-1582.6
6144.09
-1539.74
6390.8
-958.716
6517.31
569.799
6449.64
2149.65
6237.13
3181.5
5947.4
3711.97
5619.2
3950.57
5269.84
4044.03
4907.01
4064.98
4535.05
4042.98
4157.41
3988.56
3777.36
3906.1
3397.87
3799.99
3021.1
3673.72
2649.55
3531.55
2298.12
3317.67
2006.18
2960.54
1822.65
2375.4
1682.41
1608.11
1700.7
472.683
1695.16
30.2685
1435.27
281.37
1046.63
1806.75
536.513
3407.18
-403.902
3366.14
-1143.79
1748.98
-1681.69
46.3677
-2098.3
-1262.31
-2362.12
-2421.92
-2507.09
-3506.55
-2601.4
-4049.1
-2758.72
-3045.75
-3204.16
134.219
-3548.76
3763.98
-3961.58
6815.01
-4514.53
8592.7
-4880.06
7450.8
-5338.73
4669.86
-6139.21
2468.27
-6972.53
1606.26
-7601.62
1952.74
-7874.49
3366.64
-7631.43
5298.53
-6997.61
6428.71
-6745.61
5529.44
-7029.08
4103.68
-7349.87
3245.16
-7626.24
2446.59
-7916.46
1755.34
-8212.7
1233.54
-8485.45
892.78
744.294
63.3812
2821.12
349.65
-719.029
651.721
-2515.57
883.109
-2514.76
1072.81
-2158.56
1238.94
-1859.88
1386.63
-1629.23
1517.25
-1437.7
1632.07
-1274.32
1733.19
-1143.01
1824.21
-1061.83
1912.86
-1066.61
2016.16
-1215.34
2151.88
-1496.33
2320.28
-1779.66
2506.78
-1962.58
2695.04
-2030.51
2874.23
-2011.75
3040.68
-1946.08
3193.75
-1852.16
3331.06
-1721.86
3450.6
-1559.1
3551.43
-1377.74
3632.22
-1187.6
3692.88
-1010.55
3738.29
-890.172
3777.47
-862.994
3818.81
-935.334
3870.39
-1112.03
3948
-1428.78
4071.09
-1881.72
4243.89
-2367.46
4457.93
-2788.91
4709.68
-3119.91
4997.31
-3341.54
5302.29
-3399.16
5586.4
-3230.45
5814.74
-2852.44
5965.78
-2328.47
6034.63
-1756.33
6026.53
-1226.06
5957.83
-826.867
5854.69
-622.622
5741.96
-608.023
5637.96
-741.224
5553.24
-979.875
5509.17
-1307.51
5539
-1612.43
5667.29
-1668.02
5896.04
-1187.47
6034.91
430.939
5993.18
2191.38
5807.37
3367.31
5542.84
3976.5
5236.9
4256.51
4905.95
4374.98
4557.34
4413.6
4195.47
4404.84
3824.15
4359.89
3447.04
4283.21
3067.41
4179.62
2686.79
4054.34
2306.96
3911.38
1946.62
3678
1680.03
3227.13
1609.58
2445.84
1515.78
1701.9
1460.97
527.479
1307.37
183.856
668.562
920.17
-44.6182
2519.93
-695.292
4057.86
-1484.6
4155.44
-2001.76
2266.14
-2481.65
526.256
-2911.7
-832.259
-3293.54
-2040.08
-3637.26
-3162.84
-3962.49
-3723.88
-4259.55
-2748.68
-4633.26
507.927
-4973.59
4104.31
-5267.73
7109.15
-5443.43
8768.41
-5573.1
7580.46
-5949.52
5046.28
-6633.53
3152.29
-7375.46
2348.19
-7964.12
2541.4
-8217.16
3619.69
-8018.35
5099.72
-7550.97
5961.33
-7390.16
5368.63
-7564.26
4277.78
-7749.13
3430.02
-7940.54
2638
-8167.44
1982.23
-8413.8
1479.9
-8656.48
1135.47
975.597
68.5868
2875.39
372.618
-1023.05
665.262
-2808.21
887.369
-2736.86
1069.76
-2340.95
1229.81
-2019.93
1372.08
-1771.49
1497.53
-1563.15
1607.2
-1383.99
1702.87
-1238.68
1787.63
-1146.59
1868.82
-1147.8
1964.76
-1311.28
2095.59
-1627.15
2261.58
-1945.65
2445.78
-2146.78
2629.83
-2214.56
2802.52
-2184.43
2961.12
-2104.67
3106.04
-1997.08
3235.28
-1851.1
3347.06
-1670.88
3440.64
-1471.32
3514.52
-1261.48
3568.31
-1064.33
3607.05
-928.913
3640.35
-896.292
3676.69
-971.67
3723.66
-1159
3797.75
-1502.86
3919.92
-2003.89
4094.11
-2541.65
4312.58
-3007.37
4574.69
-3382.01
4876.49
-3643.35
5191.25
-3713.91
5474.57
-3513.77
5692.8
-3070.66
5828.25
-2463.93
5879.12
-1807.19
5850.98
-1197.92
5759.92
-735.804
5632.78
-495.479
5494.6
-469.841
5364.52
-611.137
5250.01
-865.359
5169.07
-1226.57
5155.33
-1598.68
5240.55
-1753.23
5439.09
-1386.01
5576.35
293.692
5549.78
2217.95
5384.72
3532.37
5141.87
4219.35
4855.52
4542.86
4540.46
4690.04
4203.54
4750.52
3849.31
4759.07
3481.96
4727.23
3105.67
4659.5
2723.97
4561.33
2337.11
4441.2
1944.69
4303.8
1568.3
4054.38
1351.26
3444.17
1620.44
2176.66
1913.61
1408.72
1444.22
996.852
273.843
1354.23
-845.074
2039.08
-1467.07
3141.93
-1953.81
4544.6
-2378.65
4580.28
-2750.02
2637.51
-3222.94
999.173
-3680.86
-374.339
-4149.58
-1571.36
-4654.17
-2658.25
-5187.77
-3190.29
-5654.22
-2282.22
-5969.16
822.863
-6148.7
4283.85
-6208.56
7169.01
-6099.35
8659.19
-6114.15
7595.27
-6485.19
5417.32
-7103.51
3770.6
-7748.49
2993.16
-8262.28
3055.2
-8499.74
3857.14
-8380.6
4980.58
-8046.86
5627.58
-7875.18
5196.96
-7902.52
4305.12
-7981.02
3508.52
-8116
2772.99
-8298.84
2165.07
-8508.59
1689.65
-8727.09
1353.96
1190.83
73.0479
2890.65
391.16
-1341.16
674.374
-3091.42
887.059
-2949.54
1061.8
-2515.69
1215.39
-2173.52
1351.85
-1907.95
1471.76
-1683.05
1575.88
-1488.1
1665.67
-1328.47
1743.62
-1224.53
1816.74
-1220.92
1905.38
-1399.91
2032.64
-1754.42
2198.09
-2111.1
2381.22
-2329.9
2561.33
-2394.67
2727.25
-2350.35
2877.69
-2255.11
3014.39
-2133.77
3135.68
-1972.39
3239.93
-1775.13
3326.53
-1557.92
3393.64
-1328.58
3440.46
-1111.16
3472.29
-960.742
3499.45
-923.448
3530.6
-1002.82
3572.77
-1201.17
3643.01
-1573.1
3763.74
-2124.62
3939.17
-2717.08
4163.39
-3231.58
4437.08
-3655.7
4750.96
-3957.22
5070.47
-4033.42
5348.74
-3792.04
5556.02
-3277.94
5678.36
-2586.26
5715.88
-1844.71
5673.39
-1155.43
5566.34
-628.746
5422.25
-351.389
5265.84
-313.423
5117.55
-462.845
4981.3
-729.101
4871.02
-1116.27
4820.84
-1548.5
4866.17
-1798.55
5026.1
-1545.94
5146.7
173.093
5121.87
2242.78
4971.01
3683.24
4746.05
4444.31
4476.51
4812.4
4174.88
4991.67
3847.38
5078.02
3498.7
5107.75
3133.48
5092.46
2756.42
5036.56
2371.28
4946.47
1976.18
4836.29
1565.51
4714.46
1130.94
4488.96
844.523
3730.58
1326.95
1694.22
1218.17
1517.49
82.7576
2132.25
-1015.04
2452.03
-1846.53
2870.56
-2450.54
3745.93
-2799.87
4893.93
-3023.04
4803.45
-3392.47
3006.94
-3875.4
1482.1
-4371.04
121.297
-4895.32
-1047.07
-5513.55
-2040.02
-6203.99
-2499.85
-6830.17
-1656.05
-7156.57
1149.27
-7161.96
4289.23
-6979.48
6986.53
-6700
8379.71
-6671.46
7566.72
-7022.04
5767.91
-7557.89
4306.45
-8099.4
3534.67
-8531.18
3486.98
-8736.01
4061.96
-8646.74
4891.31
-8362.82
5343.67
-8153.77
4987.91
-8096.94
4248.28
-8129.56
3541.14
-8237.42
2880.85
-8395.05
2322.7
-8583.08
1877.68
-8786.08
1556.97
1395.55
77.361
2873.83
405.913
-1669.71
679.409
-3364.92
882.495
-3152.63
1049.23
-2682.42
1196
-2320.28
1326.31
-2038.26
1440.33
-1797.06
1538.53
-1586.3
1622.07
-1412.01
1692.79
-1295.25
1757.73
-1285.85
1840.04
-1482.22
1965.89
-1880.26
2132.65
-2277.85
2315.2
-2512.45
2490.79
-2570.26
2649.04
-2508.6
2790.67
-2396.74
2918.93
-2262.03
3032.42
-2085.88
3129.55
-1872.26
3209.69
-1638.05
3270.49
-1389.38
3310.58
-1151.24
3335.43
-985.59
3356.21
-944.223
3381.87
-1028.47
3418.9
-1238.2
3484.75
-1638.95
3603.31
-2243.17
3779.78
-2893.56
4009.95
-3461.75
4293.79
-3939.53
4616.04
-4279.47
4937.06
-4354.44
5209.96
-4064.94
5408.82
-3476.8
5521.85
-2699.29
5550.13
-1872.99
5497.37
-1102.67
5376.78
-508.152
5219.18
-193.786
5052.23
-146.459
4894.92
-305.533
4744.69
-578.87
4612.4
-983.968
4531.44
-1467.54
4539.25
-1806.36
4656.3
-1662.99
4745.66
83.7383
4710.61
2277.84
4567.63
3826.23
4356.83
4655.11
4101.4
5067.84
3810.95
5282.11
3490.93
5398.05
3146.14
5452.54
2781.68
5456.92
2402.77
5415.46
2013.36
5335.88
1608.68
5240.97
1167.73
5155.41
642.717
5013.97
187.699
4185.6
-67.2953
1949.21
-368.113
1818.3
-956.125
2720.26
-1669.24
3165.15
-2385.64
3586.96
-2969.56
4329.85
-3272.74
5197.11
-3485.01
5015.71
-3927.44
3449.37
-4432.16
1986.83
-4966.22
655.354
-5524.82
-488.472
-6201.42
-1363.43
-6979.08
-1722.19
-7719.21
-915.919
-8099.63
1529.68
-8041.97
4231.58
-7734.48
6679.04
-7365.83
8011.05
-7271.44
7472.34
-7518.62
6015.09
-7924.71
4712.54
-8350.08
3960.04
-8694.29
3831.19
-8850.68
4218.35
-8760.81
4801.45
-8506.34
5089.2
-8299.5
4781.07
-8224.41
4173.19
-8243.26
3559.99
-8333.02
2970.61
-8469.36
2459.04
-8636.31
2044.63
-8822.01
1742.67
1586.84
82.2822
2830.89
417.223
-2004.65
680.697
-3628.39
873.967
-3345.89
1032.36
-2840.82
1171.97
-2459.89
1295.81
-2162.1
1403.61
-1904.86
1495.61
-1678.29
1572.69
-1489.08
1636.19
-1358.75
1693.54
-1343.2
1771.28
-1559.97
1897.89
-2006.86
2066.95
-2446.92
2248.32
-2693.82
2418.03
-2739.97
2567.29
-2657.87
2699.23
-2528.67
2818.75
-2381.55
2924.58
-2191.71
3015.06
-1962.73
3089.45
-1712.44
3144.7
-1444.64
3178.64
-1185.17
3196.84
-1003.79
3211.35
-958.731
3231.53
-1048.65
3263.34
-1270
3324.45
-1700.06
3440.3
-2359.02
3617.18
-3070.43
3852.14
-3696.71
4144.64
-4232.03
4474.95
-4609.77
4799.45
-4678.95
5070.43
-4335.92
5264.42
-3670.8
5370.91
-2805.77
5391.97
-1894.05
5330.16
-1040.86
5190.75
-368.737
5014.87
-17.8955
4842.54
25.8692
4689.35
-152.339
4535.83
-425.338
4387.52
-835.645
4281.37
-1361.39
4256.42
-1781.41
4327.12
-1733.67
4370.78
40.0795
4316.32
2332.3
4175.61
3966.94
3975.56
4855.16
3731.74
5311.66
3450.5
5563.35
3136.42
5712.14
2794.37
5794.58
2429.81
5821.48
2048.43
5796.83
1654.36
5729.95
1240.9
5654.42
755.029
5641.28
146.145
5622.85
-442.855
4774.6
-986.235
2492.59
-1338.74
2170.81
-1694.05
3075.57
-2188.75
3659.84
-2765.77
4163.98
-3278.4
4842.48
-3585.97
5504.68
-3867.24
5296.98
-4369.37
3951.5
-4895.77
2513.22
-5452.33
1211.91
-6032.95
92.1434
-6720.56
-675.814
-7522.24
-920.507
-8310.29
-127.867
-8725.94
1945.33
-8703
4208.63
-8394.87
6370.92
-7990.61
7606.79
-7801.09
7282.82
-7900.82
6114.82
-8165.24
4976.96
-8479.75
4274.54
-8742.02
4093.47
-8852.93
4329.25
-8767
4715.52
-8555.8
4877.99
-8382.13
4607.4
-8312.84
4103.91
-8322.33
3569.48
-8393.31
3041.58
-8508.12
2573.85
-8653.82
2190.32
-8821.78
1910.63
1765.52
87.6026
2767.2
425.399
-2342.44
678.532
-3881.52
861.741
-3529.1
1011.46
-2990.53
1143.61
-2592.03
1260.68
-2279.17
1362.05
-2006.22
1447.75
-1763.99
1518.51
-1559.84
1575.34
-1415.59
1626.34
-1394.19
1701.4
-1635.02
1830.21
-2135.67
2001.49
-2618.2
2180.28
-2872.61
2342.31
-2902
2481.08
-2796.63
2602.37
-2649.97
2712.78
-2491.95
2810.99
-2289.93
2895.21
-2046.94
2964.53
-1781.76
3015.05
-1495.15
3043.59
-1213.71
3055.78
-1015.97
3064.49
-967.438
3079.59
-1063.76
3106.53
-1296.94
3163.09
-1756.61
3275.83
-2471.75
3451.78
-3246.38
3691.23
-3936.16
3995.33
-4536.13
4338.72
-4953.16
4671.17
-5011.39
4942.7
-4607.44
5132.9
-3860.99
5232.87
-2905.73
5247.69
-1908.87
5171.74
-964.909
5005.94
-202.928
4808.49
179.553
4625.36
209.009
4479.61
-6.58286
4337.06
-282.786
4185.57
-684.141
4061.82
-1237.64
4013.36
-1732.94
4033.93
-1754.24
4019.12
54.8927
3938.61
2412.82
3795.64
4109.91
3603.45
5047.35
3369.12
5546
3095.49
5836.98
2786.25
6021.38
2446.27
6134.57
2081.17
6186.59
1697.03
6180.96
1298.6
6128.39
860.242
6092.78
329.312
6172.22
-320.959
6273.12
-1024.36
5478.01
-1753.13
3221.36
-2176.21
2593.88
-2445.82
3345.17
-2790.63
4004.66
-3215.63
4588.97
-3627.78
5254.63
-3934.03
5810.93
-4258.04
5620.99
-4750.61
4444.07
-5268.6
3031.21
-5817.85
1761.16
-6415.52
689.81
-7094.23
2.89507
-7877.58
-137.149
-8640.33
634.875
-9042.08
2347.08
-9082.15
4248.71
-8827.59
6116.35
-8428.07
7207.27
-8166.43
7021.18
-8146.32
6094.71
-8300.28
5130.92
-8527.08
4501.34
-8723.09
4289.48
-8801.26
4407.42
-8728.61
4642.87
-8563.51
4712.89
-8424.32
4468.21
-8360.92
4040.5
-8360.81
3569.37
-8415.27
3096.04
-8511.69
2670.27
-8639.12
2317.76
-8791.56
2063.07
1933.07
92.6082
2685.42
430.659
-2680.49
673.182
-4124.04
846.081
-3701.99
986.793
-3131.24
1111.17
-2716.41
1221.27
-2389.27
1316.13
-2101.07
1395.75
-1843.6
1460.84
-1624.92
1512.1
-1466.84
1558.12
-1440.21
1631.86
-1708.76
1763.5
-2267.32
1936.19
-2790.88
2110.44
-3046.87
2262.64
-3054.19
2389.15
-2923.14
2498.74
-2759.55
2599.66
-2592.87
2690.36
-2380.62
2768.7
-2125.29
2833.58
-1846.64
2880.09
-1541.67
2903.95
-1237.57
2910.77
-1022.79
2914.29
-970.961
2925
-1074.46
2947.95
-1319.89
3000.68
-1809.33
3109.42
-2580.49
3283.52
-3420.48
3531.59
-4184.23
3855.34
-4859.88
4217.23
-5315.06
4558.13
-5352.29
4828.03
-4877.33
5012.39
-4045.35
5104.27
-2997.61
5114.95
-1919.54
5018.73
-868.689
4822.65
-6.84707
4602.79
399.424
4399.45
412.354
4251.93
140.937
4132.03
-162.871
3996.77
-548.874
3865.66
-1106.52
3809.75
-1677.01
3772.67
-1717.16
3686.46
141.104
3576.45
2522.83
3428.14
4258.22
3241.64
5233.85
3015.11
5772.53
2747.93
6104.16
2442.89
6326.43
2104.7
6472.76
1738.94
6552.34
1352.07
6567.83
939.516
6540.94
474.128
6558.17
-76.4016
6722.74
-739.045
6935.76
-1510.9
6249.86
-2354.99
4065.44
-2879.56
3118.45
-3171.29
3636.9
-3458.93
4292.29
-3785.82
4915.87
-4109.31
5578.11
-4379.99
6081.62
-4671.48
5912.47
-5082.31
4854.9
-5549.09
3498
-6068.56
2280.63
-6671.58
1292.82
-7338.72
670.037
-8080.96
605.095
-8765.8
1319.71
-9132.82
2714.1
-9217.45
4333.34
-9016.71
5915.6
-8650.82
6841.39
-8367.91
6738.27
-8285.33
6012.12
-8370.54
5216.13
-8533.05
4663.85
-8677.55
4433.98
-8732.29
4462.16
-8672.82
4583.39
-8543.62
4583.69
-8429.87
4354.47
-8371.03
3981.66
-8364.82
3563.17
-8407.73
3138.96
-8490.32
2752.85
-8603.24
2430.68
-8742.6
2202.43
2091.69
96.8229
2594.17
433.226
-3016.89
664.903
-4355.72
827.235
-3864.32
958.589
-3262.6
1074.92
-2832.74
1177.92
-2492.27
1266.45
-2189.6
1340.61
-1917.76
1401.13
-1685.44
1448.05
-1513.77
1490.1
-1482.26
1563.39
-1782.05
1698.04
-2401.97
1870.63
-2963.47
2037.5
-3213.73
2176.85
-3193.54
2288.82
-3035.11
2385.49
-2856.22
2476.79
-2684.16
2560.47
-2464.3
2633.74
-2198.55
2695.06
-1907.95
2738.36
-1584.97
2758.15
-1257.35
2760.12
-1024.75
2758.94
-969.781
2765.92
-1081.44
2786.2
-1340.16
2835.68
-1858.81
2938.9
-2683.71
3113.31
-3594.89
3379.31
-4450.23
3730.01
-5210.58
4109.12
-5694.16
4452.6
-5695.77
4715.83
-5140.56
4891.82
-4221.34
4975.32
-3081.11
4985.77
-1929.99
4867.87
-750.788
4641.59
219.437
4394.65
646.366
4167.78
639.233
4010.61
298.114
3906.3
-58.5541
3801.18
-443.746
3690.61
-995.942
3632.15
-1618.54
3524.51
-1609.52
3369.84
295.776
3228.87
2663.81
3073.47
4413.63
2891.24
5416.08
2671.33
5992.44
2409.87
6365.62
2108.76
6627.54
1772.36
6809.16
1405.95
6918.75
1010.59
6963.2
575.634
6975.89
94.9157
7038.89
-451.745
7269.41
-1101.92
7585.94
-1884.94
7032.88
-2778.81
4959.31
-3402.61
3742.25
-3769.98
4004.27
-4073.45
4595.76
-4368.03
5210.45
-4633.68
5843.76
-4844.73
6292.67
-5054.3
6122.04
-5356.72
5157.33
-5752.15
3893.42
-6234.18
2762.66
-6816.87
1875.5
-7466.49
1319.66
-8152.13
1290.73
-8744.41
1912
-9087.24
3056.93
-9191.52
4437.62
-9034.36
5758.45
-8720.4
6527.43
-8458.03
6475.9
-8357.56
5911.65
-8401.99
5260.56
-8515.29
4777.15
-8618.37
4537.06
-8654.13
4497.93
-8603.46
4532.72
-8499.72
4479.94
-8405.31
4260.06
-8352.52
3928.86
-8344.58
3555.23
-8380.62
3174.99
-8453.73
2825.96
-8556.14
2533.09
-8685.3
2331.59
2244.26
100.269
2496.56
433.288
-3349.9
653.924
-4576.35
805.41
-4015.81
927.005
-3384.19
1035
-2940.73
1130.91
-2588.18
1213.6
-2272.28
1283.32
-1987.49
1340.58
-1742.69
1384.14
-1557.32
1422.81
-1520.92
1496.47
-1855.71
1633.94
-2539.44
1803.53
-3133.06
1958.29
-3368.49
2080.24
-3315.49
2174.51
-3129.37
2256.92
-2938.63
2338.94
-2766.17
2417.02
-2542.38
2487.06
-2268.59
2546.62
-1967.52
2588.1
-1626.44
2604.66
-1273.91
2602.21
-1022.31
2596.52
-964.088
2600.23
-1085.14
2619.12
-1359.06
2664.9
-1904.59
2761.86
-2780.67
2943.75
-3776.78
3237.55
-4744.02
3614.47
-5587.49
4001.64
-6081.34
4339.85
-6033.97
4593.19
-5393.9
4760.1
-4388.25
4837.71
-3158.72
4847.35
-1939.62
4703.28
-606.721
4452.65
470.076
4180.16
918.855
3930.93
888.473
3760.91
468.138
3661.8
40.566
3598.19
-380.129
3538.25
-935.992
3462.2
-1542.49
3270.89
-1418.2
3066.11
500.56
2894.73
2835.19
2731.95
4576.43
2553.37
5594.66
2339.41
6206.4
2083.32
6621.72
1786.1
6924.76
1451.61
7143.64
1083.04
7287.33
671.034
7375.2
217.357
7429.57
-260.54
7516.78
-792.377
7801.24
-1412.43
8205.99
-2159.38
7779.83
-3049.66
5849.59
-3745.54
4438.13
-4191.95
4450.67
-4537.35