/*--------------------------------*- C++ -*----------------------------------*\
| =========                 |                                                 |
| \\      /  F ield         | OpenFOAM: The Open Source CFD Toolbox           |
|  \\    /   O peration     | Version:  4.1                                   |
|   \\  /    A nd           | Web:      www.OpenFOAM.org                      |
|    \\/     M anipulation  |                                                 |
\*---------------------------------------------------------------------------*/
FoamFile
{
    version     2.0;
    format      ascii;
    class       volVectorField;
    location    "1200";
    object      U;
}
// * * * * * * * * * * * * * * * * * * * * * * * * * * * * * * * * * * * * * //

dimensions      [0 1 -1 0 0 0 0];

internalField   nonuniform List<vector> 
26785
(
(-1.10843e-15 0.0995943 4.94127)
(-5.23155e-15 0.0595046 2.45616)
(-1.20326e-14 -0.00567575 1.95036)
(-1.84313e-14 -0.0589047 3.23892)
(-1.39214e-14 -0.0710572 4.80919)
(-1.14257e-14 -0.060491 6.12905)
(-1.51258e-14 -0.0474278 7.14843)
(-1.31113e-14 -0.0374882 7.93005)
(-7.84994e-15 -0.0308198 8.54159)
(-9.35413e-15 -0.0268672 9.03722)
(-2.21151e-14 -0.0254859 9.4621)
(-2.36268e-14 -0.0268079 9.86054)
(-1.93602e-14 -0.0312579 10.2856)
(-1.26555e-14 -0.0376289 10.7921)
(-6.54615e-15 -0.0425676 11.3962)
(-1.8661e-15 -0.0444883 12.0639)
(1.19228e-15 -0.0443681 12.751)
(2.53538e-15 -0.0435478 13.4308)
(3.46933e-15 -0.0427781 14.091)
(2.19941e-15 -0.0418701 14.7232)
(9.59364e-16 -0.0399866 15.3145)
(2.55868e-15 -0.0369314 15.8476)
(4.54495e-15 -0.033381 16.3109)
(6.73108e-15 -0.0304166 16.7055)
(6.82329e-15 -0.0295925 17.0471)
(5.91628e-15 -0.0327599 17.3695)
(5.40305e-15 -0.041038 17.7224)
(4.3898e-15 -0.0542676 18.1589)
(3.26546e-15 -0.0716828 18.7241)
(5.18125e-15 -0.0924101 19.4543)
(9.25357e-15 -0.114268 20.3746)
(1.13358e-14 -0.133657 21.482)
(9.86809e-15 -0.147822 22.7401)
(7.6004e-15 -0.155301 24.0954)
(7.78152e-15 -0.154762 25.4851)
(1.03564e-14 -0.145288 26.8349)
(1.11933e-14 -0.127276 28.0645)
(1.08629e-14 -0.103091 29.1051)
(9.34444e-15 -0.0760893 29.9158)
(8.96504e-15 -0.0498637 30.4886)
(5.53293e-15 -0.0274513 30.8459)
(3.57711e-15 -0.0109366 31.0333)
(3.0626e-15 -0.00107122 31.108)
(8.3463e-15 0.00307056 31.1262)
(1.02374e-14 0.00391947 31.1315)
(1.24325e-14 0.00558774 31.143)
(1.56089e-14 0.0145072 31.1367)
(1.63335e-14 0.0367287 31.0312)
(1.49762e-14 0.0732438 30.7015)
(1.44241e-14 0.121684 30.0214)
(1.10276e-14 0.172492 28.9198)
(1.0179e-14 0.211306 27.4503)
(1.16958e-14 0.233572 25.7546)
(1.45975e-14 0.243128 23.9643)
(1.76524e-14 0.244917 22.1611)
(1.80976e-14 0.242351 20.3879)
(2.23023e-14 0.237282 18.6667)
(2.29834e-14 0.230534 17.0095)
(2.61758e-14 0.222403 15.4249)
(2.44842e-14 0.212997 13.9199)
(1.23704e-14 0.202412 12.501)
(8.47184e-15 0.19063 11.1747)
(7.01227e-15 0.177639 9.94555)
(1.51514e-14 0.161206 8.82953)
(3.98425e-16 0.139268 7.85129)
(5.94825e-15 0.106063 7.06134)
(9.20666e-15 0.0596037 6.5439)
(1.36088e-14 0.0157404 6.33517)
(1.5998e-14 0.00366371 6.32151)
(1.78097e-14 0.0114592 6.31429)
(1.25991e-14 0.0449895 6.17005)
(1.33157e-14 0.0709004 5.7901)
(1.10064e-14 0.0382252 5.33575)
(-3.67361e-15 -0.0646964 5.29993)
(-2.50333e-14 -0.179925 6.03622)
(-3.02982e-14 -0.235527 7.31875)
(-2.61362e-14 -0.238506 8.68368)
(-1.63141e-14 -0.227317 9.92373)
(-6.91027e-15 -0.215207 11.0734)
(-6.89401e-16 -0.175486 12.1905)
(1.98342e-15 -0.0619102 12.9963)
(8.11737e-15 0.0995681 13.0016)
(7.64567e-15 0.229507 12.0363)
(1.22039e-14 0.263721 10.4678)
(3.03428e-15 0.219522 8.9731)
(1.32136e-15 0.134094 8.00636)
(3.58687e-15 0.0039294 7.66431)
(2.50679e-15 -0.150418 8.2604)
(1.27501e-14 -0.093925 9.29936)
(1.74406e-14 0.133248 9.79331)
(1.47839e-14 0.256153 8.91726)
(7.60655e-15 0.0976264 6.96291)
(2.84475e-15 -0.092652 6.04443)
(3.63263e-15 0.105903 5.56336)
(1.07094e-14 0.404293 4.94707)
(-6.72809e-15 -0.171343 4.49245)
(-2.64032e-14 -0.737798 4.60917)
(-3.51209e-14 -0.817553 6.65127)
(-3.6735e-14 -0.62027 8.2105)
(-4.07451e-14 -0.228818 9.8365)
(5.51052e-16 0.294187 4.70613)
(-2.16113e-14 0.171648 2.13142)
(-2.31237e-14 -0.0439219 1.93205)
(-1.05694e-14 -0.205001 3.60278)
(-1.29941e-15 -0.221729 5.25497)
(-8.11859e-15 -0.183852 6.5657)
(-8.52187e-15 -0.145505 7.58909)
(-4.32974e-15 -0.116262 8.39448)
(-1.35348e-14 -0.0947484 9.03289)
(-2.26826e-14 -0.079794 9.54413)
(-1.9818e-14 -0.0720607 9.96655)
(-1.60996e-14 -0.0732289 10.3458)
(-1.28232e-14 -0.085857 10.7451)
(-9.33679e-15 -0.107301 11.2368)
(-6.59687e-15 -0.12758 11.8533)
(-5.77317e-15 -0.140547 12.5666)
(-5.05467e-16 -0.146709 13.3246)
(1.551e-15 -0.148053 14.0833)
(3.49975e-16 -0.14616 14.8132)
(-2.96625e-17 -0.141081 15.4942)
(-2.70772e-16 -0.131515 16.1087)
(-1.20462e-16 -0.117833 16.6399)
(-1.33934e-15 -0.102385 17.0775)
(-4.1409e-15 -0.088176 17.4225)
(-3.90693e-15 -0.0792924 17.6875)
(-2.66206e-15 -0.0806997 17.8996)
(-1.13495e-15 -0.0955454 18.1005)
(1.37475e-16 -0.123734 18.3368)
(-1.72032e-16 -0.163947 18.6511)
(-5.74263e-16 -0.215093 19.0839)
(6.00692e-16 -0.272467 19.6725)
(-1.65465e-15 -0.326855 20.4326)
(-3.31402e-15 -0.370958 21.3481)
(-3.6916e-15 -0.400524 22.3846)
(-6.01169e-16 -0.410749 23.4962)
(2.39813e-15 -0.397272 24.621)
(2.06895e-15 -0.35927 25.685)
(3.35998e-16 -0.30193 26.6194)
(-8.99988e-16 -0.23378 27.3784)
(-1.48934e-15 -0.164743 27.9457)
(2.08014e-16 -0.103798 28.3338)
(-1.50985e-15 -0.0576699 28.5784)
(-1.63409e-15 -0.029438 28.7288)
(-5.15311e-15 -0.0175164 28.8353)
(-7.53091e-15 -0.0164216 28.9393)
(-8.07824e-15 -0.0156657 29.0661)
(-4.72487e-15 0.00401823 29.2078)
(-2.79528e-15 0.0641368 29.2987)
(-8.66535e-16 0.173411 29.208)
(-3.32881e-15 0.326043 28.7631)
(-1.33869e-15 0.488662 27.8514)
(3.96511e-18 0.61274 26.5181)
(-5.46621e-17 0.683404 24.9208)
(5.23723e-15 0.713396 23.208)
(7.94029e-15 0.718849 21.4717)
(1.02878e-14 0.710795 19.76)
(1.58611e-14 0.695163 18.0976)
(2.24705e-14 0.67458 16.4977)
(1.81307e-14 0.650007 14.9694)
(1.51363e-14 0.621812 13.5198)
(1.18748e-14 0.590293 12.1551)
(2.63554e-14 0.555321 10.8813)
(2.35131e-14 0.516575 9.7028)
(2.66193e-14 0.467364 8.63666)
(2.67504e-14 0.402337 7.70595)
(1.77231e-14 0.306492 6.95692)
(2.00602e-14 0.176054 6.46176)
(2.09698e-14 0.0508095 6.23201)
(3.76611e-14 0.0155061 6.19781)
(2.22459e-14 0.0385715 6.1842)
(3.05649e-14 0.143127 6.0285)
(1.56882e-14 0.224913 5.60839)
(-1.5441e-14 0.120837 5.08451)
(-2.31434e-14 -0.199479 5.01247)
(-2.23992e-14 -0.536541 5.76511)
(-7.93499e-15 -0.689149 7.06571)
(1.82632e-15 -0.685484 8.41554)
(7.67048e-15 -0.641346 9.61959)
(2.09358e-16 -0.609816 10.7458)
(6.15536e-16 -0.509897 11.8847)
(2.62906e-15 -0.179079 12.71)
(-9.6585e-16 0.327859 12.6895)
(-9.06173e-15 0.731213 11.6454)
(-5.02748e-15 0.807332 9.94031)
(4.45672e-15 0.623198 8.3532)
(3.79541e-16 0.311116 7.45611)
(-1.47001e-15 -0.0749625 7.22842)
(2.55286e-15 -0.54568 7.7518)
(5.31757e-15 -0.44358 8.5908)
(8.98114e-15 0.237366 9.10669)
(1.07668e-14 1.04746 8.19894)
(9.97056e-15 0.780082 5.90405)
(1.14196e-14 -0.0466964 5.00223)
(4.37568e-15 -0.0154608 3.97343)
(-7.86834e-15 0.538341 3.18796)
(-2.7691e-14 0.611039 3.18274)
(-5.80108e-14 0.0440307 2.34516)
(-6.18279e-14 -0.628449 2.6606)
(-5.54643e-14 -0.893916 2.62711)
(-5.14542e-14 -0.586535 3.65242)
(-1.13247e-15 0.516762 4.19679)
(-9.9411e-15 0.257106 1.43712)
(-2.65622e-15 -0.147146 2.03013)
(-8.71117e-17 -0.377023 4.06132)
(5.7246e-16 -0.370337 5.7135)
(-6.32545e-15 -0.301613 6.97886)
(-6.89563e-15 -0.240636 7.97815)
(-4.08736e-15 -0.194171 8.77756)
(-9.12848e-15 -0.158555 9.41757)
(-9.85434e-15 -0.132414 9.9311)
(-8.76482e-15 -0.117743 10.3538)
(-7.38317e-15 -0.118541 10.7322)
(-6.35701e-15 -0.140385 11.1352)
(-3.95968e-15 -0.179311 11.6419)
(-1.04346e-15 -0.217538 12.2842)
(-1.17056e-15 -0.242637 13.0242)
(8.0863e-16 -0.253732 13.7978)
(3.32161e-15 -0.253892 14.5538)
(-1.41208e-17 -0.246682 15.2614)
(-2.19799e-15 -0.233392 15.9036)
(-2.45394e-15 -0.212719 16.4668)
(-1.79379e-15 -0.185567 16.9367)
(-5.77592e-15 -0.155572 17.304)
(-9.07869e-15 -0.127148 17.5683)
(-6.02098e-15 -0.106464 17.7389)
(-1.20028e-15 -0.101381 17.8391)
(1.10272e-15 -0.117177 17.9074)
(1.31813e-15 -0.154246 17.9891)
(-2.08011e-16 -0.211496 18.1277)
(-2.69588e-15 -0.288739 18.3686)
(-4.63286e-15 -0.379618 18.758)
(-7.27797e-15 -0.469334 19.3184)
(-9.25589e-15 -0.545654 20.0357)
(-7.99765e-15 -0.601311 20.8756)
(-4.15513e-15 -0.627873 21.7937)
(-3.69812e-15 -0.617266 22.7303)
(-4.34039e-15 -0.5671 23.6143)
(-4.09843e-15 -0.485191 24.3823)
(-4.5885e-15 -0.384967 24.9961)
(-4.48796e-15 -0.282336 25.447)
(-3.32733e-15 -0.191803 25.7528)
(-2.44464e-15 -0.124412 25.9516)
(-2.66623e-15 -0.0852493 26.0929)
(-2.74936e-15 -0.0718306 26.2245)
(-2.49773e-15 -0.0763105 26.3826)
(-1.94612e-15 -0.0842027 26.5903)
(-1.43365e-15 -0.0659307 26.8486)
(-1.06978e-15 0.0177598 27.1118)
(-8.26069e-16 0.191459 27.2627)
(-1.58426e-15 0.454053 27.0874)
(-2.77926e-15 0.744101 26.4135)
(-3.78132e-15 0.968627 25.2582)
(-4.19257e-15 1.098 23.7948)
(-1.59632e-15 1.15464 22.1913)
(2.42219e-15 1.16743 20.5511)
(7.52484e-15 1.15617 18.9281)
(7.06275e-15 1.13149 17.3492)
(1.47919e-14 1.09816 15.8292)
(1.8234e-14 1.05802 14.3775)
(1.00251e-14 1.01185 13.0012)
(1.5523e-14 0.960221 11.7058)
(2.02135e-14 0.902836 10.4968)
(2.89682e-14 0.83884 9.3768)
(2.96902e-14 0.757123 8.36174)
(3.61614e-14 0.649776 7.47179)
(3.32683e-14 0.495506 6.75102)
(2.25573e-14 0.291462 6.27331)
(2.8349e-14 0.0935436 6.03183)
(1.07166e-14 0.0331502 5.98005)
(8.01033e-15 0.0662842 5.97026)
(8.34874e-15 0.251359 5.81789)
(2.22537e-15 0.406379 5.34001)
(-3.00923e-15 0.228652 4.70784)
(2.57672e-14 -0.33539 4.56501)
(1.48565e-14 -0.908388 5.40128)
(9.87317e-15 -1.1657 6.77409)
(8.31758e-15 -1.14912 8.10439)
(5.15263e-15 -1.07338 9.28408)
(5.97523e-16 -1.04228 10.4213)
(-6.85848e-15 -0.891054 11.5321)
(-1.29795e-14 -0.334526 12.2857)
(-1.62866e-14 0.54989 12.1641)
(-1.61385e-14 1.27661 10.9531)
(-1.67347e-14 1.43617 9.03492)
(-6.21869e-15 1.07287 7.28611)
(-1.10063e-16 0.517694 6.45428)
(3.97388e-15 -0.0322237 6.66911)
(-5.98197e-15 -0.708648 7.15387)
(-2.28788e-14 -0.669519 7.08951)
(-2.15486e-14 0.372022 7.16975)
(-6.30089e-15 1.6145 6.15396)
(3.76627e-15 1.47114 3.70117)
(-7.44629e-15 0.721335 -1.54624)
(-4.17036e-14 1.01915 -5.07117)
(-4.65226e-14 0.764301 -6.11577)
(-4.78523e-14 0.201353 -7.221)
(-4.72143e-14 -0.570244 -8.20206)
(-4.81324e-14 -0.965068 -8.63918)
(-4.84093e-14 -0.919898 -9.36237)
(-4.80616e-14 -0.618984 -9.69196)
(-2.19097e-15 0.769267 3.48536)
(-7.84966e-16 0.301981 0.664858)
(-6.26857e-15 -0.309004 2.29406)
(-7.002e-16 -0.558424 4.48229)
(-1.26888e-15 -0.513216 6.07806)
(-3.99951e-15 -0.414873 7.29684)
(-1.41259e-15 -0.333447 8.27046)
(-7.79646e-15 -0.270842 9.05528)
(-1.00886e-14 -0.221648 9.68557)
(-5.72269e-15 -0.184676 10.1918)
(-3.77608e-15 -0.163467 10.6092)
(-3.66834e-15 -0.164568 10.9848)
(-4.6136e-15 -0.196552 11.3886)
(-1.06183e-15 -0.253429 11.8981)
(3.04343e-15 -0.308801 12.5399)
(2.52299e-15 -0.344081 13.2708)
(2.31184e-15 -0.357894 14.0259)
(1.96867e-15 -0.355214 14.7566)
(7.34986e-16 -0.341843 15.4354)
(-3.78862e-16 -0.320061 16.0473)
(2.33914e-16 -0.288144 16.5792)
(-8.71585e-17 -0.247206 17.0165)
(-1.95278e-15 -0.201951 17.3489)
(-2.88133e-15 -0.158026 17.5746)
(-1.12025e-15 -0.123629 17.7008)
(8.0766e-16 -0.109619 17.7483)
(1.88076e-15 -0.123586 17.7542)
(1.31925e-15 -0.166621 17.7623)
(-8.69105e-16 -0.238267 17.8158)
(-3.18433e-15 -0.339745 17.9619)
(-4.60053e-15 -0.462874 18.2507)
(-6.79734e-15 -0.586261 18.7054)
(-6.49148e-15 -0.692118 19.3092)
(-6.0681e-15 -0.770422 20.0258)
(-1.80177e-15 -0.80961 20.8094)
(-1.95636e-15 -0.79843 21.5991)
(3.85734e-16 -0.733729 22.3254)
(6.36083e-15 -0.627055 22.9311)
(2.92556e-15 -0.497294 23.3865)
(3.27767e-15 -0.366251 23.6893)
(7.9726e-15 -0.253377 23.8613)
(4.2499e-15 -0.17343 23.9433)
(-2.85543e-15 -0.132802 23.9885)
(-1.33663e-15 -0.127048 24.0484)
(1.10944e-15 -0.14533 24.1602)
(2.00137e-15 -0.17059 24.3497)
(-1.86592e-15 -0.166268 24.6299)
(-8.47159e-15 -0.0751693 24.9775)
(-1.10359e-14 0.146862 25.2956)
(-3.27694e-15 0.516196 25.3508)
(1.34091e-15 0.943317 24.902)
(5.92278e-15 1.27997 23.9181)
(5.35833e-15 1.47545 22.5861)
(-1.37936e-15 1.56273 21.0944)
(-4.38843e-15 1.58517 19.5562)
(-4.39631e-15 1.5723 18.0286)
(4.78932e-15 1.5399 16.5396)
(5.10985e-15 1.49509 15.1041)
(5.91717e-15 1.44068 13.7314)
(1.84429e-15 1.37795 12.4283)
(1.00137e-14 1.30782 11.1998)
(9.14134e-15 1.22991 10.0504)
(2.61457e-14 1.14287 8.98052)
(2.93387e-14 1.03115 8.0051)
(3.49343e-14 0.884231 7.14205)
(1.68256e-14 0.675176 6.4352)
(4.07878e-14 0.402784 5.97142)
(2.60033e-14 0.138451 5.73068)
(1.21227e-14 0.0486037 5.67108)
(1.0263e-14 0.0812661 5.68557)
(4.18823e-15 0.360596 5.56728)
(1.38433e-14 0.602293 5.02678)
(2.85504e-15 0.333331 4.24821)
(3.29537e-14 -0.494451 4.0516)
(-1.0113e-14 -1.31527 4.96225)
(-1.40306e-14 -1.63737 6.15004)
(-8.28843e-15 -1.58518 7.22539)
(-1.06798e-14 -1.48877 8.27732)
(-6.13693e-16 -1.45692 9.31667)
(-8.61326e-15 -1.23656 10.2871)
(-1.78724e-14 -0.447296 10.9094)
(-2.41127e-14 0.815334 10.7194)
(-2.73065e-14 1.81934 9.45473)
(-1.74847e-14 2.04152 7.39271)
(-1.34737e-14 1.4789 5.5753)
(-6.70459e-15 0.478107 4.69214)
(5.41612e-15 -0.131087 6.30165)
(-1.78297e-14 -0.494109 6.48854)
(-5.31279e-14 -1.03956 4.62149)
(-7.42978e-14 -0.116309 6.0389)
(-5.01662e-14 2.50693 3.88549)
(-5.98901e-15 3.20466 0.226328)
(-3.58217e-14 2.42349 -5.87505)
(-5.35616e-14 1.83499 -8.06429)
(-4.91922e-14 1.28883 -8.65682)
(-5.04579e-14 0.837458 -8.64673)
(-5.19893e-14 -0.0513708 -9.02194)
(-5.26116e-14 -0.73335 -9.61603)
(-5.20312e-14 -0.865892 -10.518)
(-5.1219e-14 -0.648502 -11.1893)
(-2.80775e-15 1.0398 2.68701)
(-8.9044e-15 0.310662 0.0733365)
(-9.75778e-15 -0.508547 2.63217)
(-2.89681e-15 -0.738926 4.83012)
(-2.85148e-15 -0.650057 6.35962)
(-9.25919e-15 -0.524445 7.53763)
(-5.66142e-15 -0.423999 8.48565)
(-1.27814e-15 -0.34591 9.25187)
(-1.68535e-15 -0.283556 9.86687)
(-2.44719e-15 -0.236121 10.3599)
(-3.80931e-15 -0.208706 10.7656)
(-4.79365e-15 -0.210351 11.1303)
(-4.48879e-15 -0.25251 11.5221)
(-1.65145e-15 -0.327065 12.0176)
(9.94614e-16 -0.399139 12.6439)
(-5.46356e-16 -0.444337 13.3586)
(-4.26281e-16 -0.460884 14.0978)
(5.80115e-16 -0.455463 14.8124)
(5.03813e-16 -0.435935 15.4736)
(8.2462e-16 -0.405477 16.066)
(1.38297e-15 -0.361924 16.5763)
(1.34328e-15 -0.306704 16.99)
(4.60098e-16 -0.245615 17.2976)
(-1.12094e-16 -0.185427 17.4974)
(1.14293e-15 -0.136247 17.5959)
(1.77945e-15 -0.111915 17.6124)
(2.54668e-15 -0.122323 17.5823)
(2.97235e-15 -0.169243 17.548)
(-2.9714e-16 -0.253076 17.55)
(-2.46631e-15 -0.376886 17.6345)
(-2.23643e-15 -0.530641 17.8524)
(-3.57403e-17 -0.685956 18.2283)
(1.68905e-15 -0.819509 18.7467)
(1.1897e-15 -0.918528 19.3714)
(1.68626e-15 -0.967971 20.0539)
(3.10612e-15 -0.953589 20.7337)
(4.7164e-15 -0.872245 21.348)
(6.93937e-15 -0.739816 21.8475)
(8.92832e-15 -0.580255 22.2044)
(8.74318e-15 -0.420666 22.4109)
(7.29527e-15 -0.285279 22.481)
(4.98004e-15 -0.193288 22.4504)
(8.31784e-15 -0.153314 22.3739)
(1.27796e-14 -0.159216 22.3094)
(1.26179e-14 -0.197355 22.3012)
(1.07373e-14 -0.24942 22.3831)
(9.656e-15 -0.274386 22.5846)
(9.30574e-15 -0.196805 22.9129)
(6.42861e-15 0.0499928 23.3136)
(8.10205e-15 0.513833 23.5797)
(7.40617e-15 1.08669 23.3639)
(9.05536e-15 1.54816 22.5578)
(7.23402e-15 1.81717 21.3574)
(1.54875e-15 1.9386 19.9763)
(-2.42591e-15 1.97262 18.539)
(-6.55488e-15 1.95975 17.1057)
(-2.4961e-15 1.92128 15.7046)
(-1.98595e-16 1.86671 14.35)
(-1.75168e-15 1.79985 13.0508)
(-4.42438e-15 1.72252 11.8134)
(6.31893e-15 1.63604 10.642)
(8.85821e-15 1.53997 9.54076)
(1.69013e-14 1.43262 8.50806)
(1.98802e-14 1.29366 7.5583)
(2.35831e-14 1.10913 6.70887)
(4.04306e-14 0.84744 6.0053)
(9.2984e-15 0.506946 5.55862)
(9.06378e-15 0.180375 5.32996)
(4.48715e-15 0.0617104 5.27329)
(-1.98958e-14 0.0798295 5.34824)
(-5.07591e-14 0.487667 5.30947)
(-3.41614e-14 0.892561 4.70219)
(-1.95767e-14 0.533584 3.72951)
(7.29192e-15 -0.604591 3.57526)
(-4.86311e-15 -1.61777 3.97936)
(-1.97008e-14 -1.93089 4.29478)
(-2.36887e-14 -1.86224 4.74088)
(-1.14606e-14 -1.78922 5.59132)
(7.25085e-16 -1.78596 6.67568)
(-2.18687e-14 -1.50764 7.82321)
(-3.28068e-14 -0.470475 8.44188)
(-2.67933e-14 1.15683 8.31351)
(-4.01348e-14 2.46351 7.11094)
(-2.72624e-14 2.74233 4.89263)
(-2.06078e-14 2.12065 2.73875)
(-2.70023e-14 0.575562 0.064493)
(-6.06569e-14 -0.624729 -1.65169)
(-6.28555e-14 -0.720653 -0.759318)
(-6.76318e-14 -0.889013 -2.0068)
(-8.1095e-14 1.41552 -2.89758)
(-4.85832e-14 3.77534 -1.74231)
(-2.62797e-14 4.71604 -4.00087)
(-5.10969e-14 3.79378 -8.11123)
(-5.39474e-14 2.16801 -8.68968)
(-5.27382e-14 1.22887 -8.90571)
(-5.4276e-14 0.801085 -8.95651)
(-5.61684e-14 0.153979 -9.38998)
(-5.63533e-14 -0.368369 -9.98928)
(-5.51024e-14 -0.51914 -10.8075)
(-5.61448e-14 -0.448873 -11.4584)
(-3.76526e-15 1.31793 1.84699)
(-4.03989e-15 0.283203 -0.184975)
(-6.19031e-15 -0.724525 2.97609)
(-3.88186e-15 -0.912809 5.1063)
(-4.88517e-15 -0.781309 6.57553)
(-1.04668e-14 -0.630731 7.71529)
(-1.03996e-14 -0.512384 8.63604)
(-7.80641e-15 -0.41936 9.38029)
(-6.4426e-15 -0.344191 9.97608)
(-9.82848e-15 -0.286549 10.4516)
(-1.05693e-14 -0.253041 10.8405)
(-7.04189e-15 -0.255126 11.187)
(-5.192e-15 -0.307317 11.5575)
(-4.03014e-15 -0.399668 12.0315)
(-1.34313e-15 -0.4888 12.6403)
(-4.34469e-16 -0.544231 13.3423)
(4.82981e-16 -0.563493 14.0698)
(3.29772e-16 -0.554928 14.7698)
(-6.5463e-16 -0.528688 15.4111)
(9.52892e-16 -0.489069 15.9788)
(2.46889e-15 -0.433546 16.4612)
(3.39304e-15 -0.36395 16.8453)
(3.56294e-15 -0.287154 17.1235)
(2.04187e-15 -0.210845 17.2953)
(9.34679e-16 -0.14685 17.3668)
(3.18984e-15 -0.111921 17.3564)
(5.79298e-15 -0.118149 17.2984)
(7.50937e-15 -0.167767 17.2332)
(5.80744e-15 -0.261948 17.1981)
(3.44237e-15 -0.405891 17.2351)
(4.02313e-15 -0.588214 17.3947)
(4.67475e-15 -0.773854 17.7067)
(4.94701e-15 -0.933747 18.1588)
(4.29624e-15 -1.05165 18.7121)
(4.22134e-15 -1.10927 19.3172)
(2.77792e-15 -1.09093 19.9244)
(3.96362e-15 -0.994136 20.485)
(6.29271e-15 -0.837895 20.9521)
(8.2932e-15 -0.649034 21.2857)
(7.6107e-15 -0.458804 21.4605)
(1.00252e-14 -0.296419 21.4762)
(1.7733e-14 -0.187002 21.3619)
(2.21105e-14 -0.143179 21.1736)
(2.82174e-14 -0.157967 20.9767)
(2.98809e-14 -0.215108 20.8231)
(2.67207e-14 -0.296056 20.7513)
(2.38213e-14 -0.359926 20.8024)
(2.16568e-14 -0.318053 21.0156)
(1.9263e-14 -0.0789782 21.3975)
(1.66119e-14 0.44968 21.809)
(1.36247e-14 1.17141 21.8092)
(1.00618e-14 1.77101 21.187)
(5.46042e-15 2.12258 20.1223)
(1.5666e-15 2.28251 18.8524)
(1.34208e-15 2.33044 17.5141)
(2.26158e-15 2.31944 16.1715)
(2.549e-15 2.27688 14.8529)
(2.88467e-15 2.21471 13.5722)
(3.0031e-15 2.1377 12.3378)
(1.70187e-15 2.04816 11.1558)
(4.23013e-15 1.94784 10.0303)
(7.37888e-15 1.83632 8.96498)
(1.28036e-14 1.71155 7.95655)
(1.14426e-14 1.54785 7.01949)
(2.10313e-14 1.32642 6.17289)
(2.74524e-14 1.01114 5.46496)
(2.12953e-14 0.599283 5.04632)
(2.494e-14 0.228355 4.83947)
(-9.86585e-15 0.0714065 4.8236)
(-2.68502e-14 0.0575678 4.97576)
(-7.26074e-14 0.573078 5.07399)
(-4.82668e-14 1.1213 4.43537)
(-3.23367e-14 0.628675 3.18844)
(1.01542e-15 -0.601982 2.9281)
(-6.23905e-14 -1.54637 1.92696)
(-5.80913e-14 -1.97904 1.33778)
(-3.2672e-14 -2.1328 1.41472)
(-4.23768e-14 -2.26836 2.30867)
(-3.13655e-14 -2.35613 3.62707)
(-2.81309e-14 -1.92846 4.99732)
(-3.9711e-14 -0.542539 5.51249)
(-5.20038e-14 1.56118 5.32932)
(-4.73394e-14 3.0242 4.39039)
(-5.07895e-14 3.47156 1.97542)
(-3.11743e-14 3.20579 -0.595243)
(-2.06372e-14 1.60777 -2.29984)
(-5.05657e-14 -0.439155 -3.0695)
(-4.51878e-14 -1.04571 -3.81106)
(-4.75505e-14 -0.570649 -5.00065)
(-4.92623e-14 1.16402 -6.27089)
(-4.56058e-14 3.63372 -6.49119)
(-4.00317e-14 5.37499 -7.53393)
(-5.3871e-14 4.341 -9.10693)
(-5.02844e-14 2.23607 -8.82599)
(-5.09186e-14 1.32584 -9.06906)
(-5.33026e-14 0.88887 -9.29479)
(-5.13337e-14 0.331013 -9.65625)
(-5.04107e-14 -0.117061 -10.1968)
(-5.08846e-14 -0.277517 -10.9494)
(-5.15169e-14 -0.262969 -11.5151)
(-4.80756e-15 1.55496 1.13719)
(-5.27577e-15 0.211098 0.0313855)
(-7.76453e-15 -0.942374 3.29463)
(-5.43964e-15 -1.07934 5.3268)
(-8.78841e-15 -0.907826 6.73866)
(-1.41524e-14 -0.734021 7.83943)
(-1.44117e-14 -0.598639 8.73061)
(-1.23437e-14 -0.491122 9.4501)
(-1.05822e-14 -0.403409 10.0238)
(-1.23458e-14 -0.335722 10.4785)
(-1.00534e-14 -0.296078 10.8466)
(-5.38109e-15 -0.298343 11.1698)
(-3.5754e-15 -0.360527 11.5139)
(-2.41738e-15 -0.471266 11.9638)
(-1.68473e-15 -0.578271 12.5563)
(-5.41782e-16 -0.644317 13.2473)
(5.4361e-16 -0.665978 13.9624)
(1.61658e-15 -0.653483 14.6434)
(2.8775e-15 -0.619742 15.2588)
(5.73555e-15 -0.570434 15.7958)
(9.85432e-15 -0.502668 16.2454)
(1.38985e-14 -0.418712 16.5966)
(1.575e-14 -0.32647 16.8431)
(1.43258e-14 -0.234346 16.9854)
(1.30634e-14 -0.155735 17.0292)
(1.29399e-14 -0.110303 16.992)
(1.45385e-14 -0.112247 16.9077)
(1.74829e-14 -0.163897 16.8164)
(1.57496e-14 -0.266868 16.7516)
(1.02994e-14 -0.42896 16.7511)
(9.24318e-15 -0.638484 16.8678)
(8.10668e-15 -0.853795 17.1386)
(7.14073e-15 -1.03903 17.5512)
(7.56173e-15 -1.17445 18.0612)
(1.08479e-14 -1.24075 18.6271)
(9.47786e-15 -1.22225 19.218)
(6.8497e-15 -1.11487 19.7917)
(6.76405e-15 -0.937264 20.285)
(9.22542e-15 -0.717115 20.6332)
(1.0397e-14 -0.490489 20.7932)
(1.74065e-14 -0.293246 20.7588)
(2.18952e-14 -0.158357 20.5603)
(3.16274e-14 -0.103952 20.2602)
(3.85911e-14 -0.12257 19.9328)
(3.91771e-14 -0.194609 19.6361)
(3.69469e-14 -0.301159 19.4078)
(3.47003e-14 -0.406179 19.293)
(3.11156e-14 -0.415241 19.3532)
(2.32681e-14 -0.21317 19.6477)
(7.95128e-15 0.34223 20.1073)
(-6.03339e-15 1.20326 20.2682)
(-1.5146e-14 1.94872 19.8173)
(-1.24492e-14 2.39133 18.8862)
(-6.4133e-15 2.59467 17.7264)
(-8.42757e-16 2.65944 16.4846)
(3.92069e-15 2.65273 15.2279)
(7.70535e-15 2.60851 13.9853)
(3.86956e-15 2.54127 12.7703)
(1.12726e-14 2.45671 11.5913)
(1.11187e-14 2.35758 10.4546)
(9.95739e-15 2.24608 9.36412)
(9.56385e-15 2.12191 8.32414)
(9.66119e-15 1.98269 7.32907)
(2.91339e-15 1.7964 6.39383)
(1.64704e-14 1.53676 5.54127)
(1.27036e-14 1.16334 4.82429)
(1.68766e-14 0.677589 4.45869)
(-1.04584e-14 0.263463 4.26976)
(-3.19243e-14 0.0423472 4.41119)
(-3.91449e-14 -0.053058 4.53086)
(-7.29256e-14 0.734543 4.60659)
(-4.22172e-14 1.59716 3.9407)
(-6.90788e-14 0.946537 2.75496)
(-1.28878e-14 -0.320326 1.80156)
(-1.01648e-13 -1.10942 -0.00149912)
(-7.27188e-14 -1.84277 -0.698131)
(-3.51945e-14 -2.29521 -0.847917)
(-6.79801e-14 -2.72904 -0.225796)
(-3.89856e-14 -2.97158 0.836139)
(-2.2728e-14 -2.46169 1.88444)
(-3.54918e-14 -1.05097 2.34543)
(-4.80372e-14 1.23801 3.18208)
(-7.16219e-14 3.55809 1.65789)
(-5.23739e-14 4.36474 -1.30134)
(-2.93473e-14 4.04139 -3.58763)
(-4.02925e-14 2.06607 -4.66753)
(-4.71046e-14 -0.0945621 -6.10338)
(-4.1125e-14 -0.580557 -7.40142)
(-4.6637e-14 0.0119321 -8.58705)
(-4.21723e-14 1.5784 -9.46208)
(-4.46107e-14 3.76657 -10.0003)
(-4.81146e-14 5.40484 -9.98049)
(-5.13479e-14 4.26686 -9.58722)
(-4.7787e-14 2.23628 -9.15762)
(-4.45425e-14 1.45599 -9.58273)
(-4.83732e-14 0.989832 -9.95238)
(-4.84871e-14 0.472058 -10.3767)
(-4.83663e-14 0.0598055 -10.8648)
(-4.82328e-14 -0.151452 -11.5659)
(-4.84413e-14 -0.206941 -12.107)
(-4.50671e-15 1.74357 0.619535)
(-4.73399e-15 0.0386461 0.550753)
(-7.2977e-15 -1.15864 3.5713)
(-7.6634e-15 -1.23915 5.50164)
(-1.27966e-14 -1.02999 6.85589)
(-1.55204e-14 -0.834368 7.91593)
(-1.04874e-14 -0.682729 8.77546)
(-1.16439e-14 -0.56114 9.46802)
(-1.0908e-14 -0.461139 10.0173)
(-6.68541e-15 -0.383517 10.4489)
(-6.51412e-15 -0.337606 10.7934)
(-6.32643e-15 -0.339745 11.0899)
(-5.69945e-15 -0.412044 11.4043)
(-4.58701e-15 -0.542064 11.8287)
(-2.78493e-15 -0.667851 12.4052)
(4.95502e-16 -0.744643 13.0846)
(4.18383e-15 -0.768022 13.7846)
(6.9139e-15 -0.750591 14.443)
(1.01619e-14 -0.708581 15.0291)
(1.40313e-14 -0.649244 15.5335)
(1.6873e-14 -0.56916 15.9504)
(1.97317e-14 -0.470991 16.27)
(2.1641e-14 -0.363604 16.4872)
(2.09486e-14 -0.25592 16.6026)
(1.98678e-14 -0.162822 16.621)
(1.93506e-14 -0.107025 16.5589)
(1.97023e-14 -0.104854 16.451)
(1.9649e-14 -0.158334 16.3375)
(1.84181e-14 -0.269208 16.2498)
(1.68775e-14 -0.44859 16.2232)
(1.61437e-14 -0.685416 16.316)
(1.50508e-14 -0.930655 16.5716)
(1.33333e-14 -1.14065 16.9727)
(1.34635e-14 -1.2938 17.4715)
(1.63095e-14 -1.37209 18.0405)
(1.23326e-14 -1.35847 18.6628)
(6.91025e-15 -1.24267 19.2839)
(6.55018e-15 -1.04067 19.8112)
(9.82871e-15 -0.782127 20.1586)
(1.26329e-14 -0.510866 20.2783)
(1.91644e-14 -0.27127 20.17)
(2.70282e-14 -0.105183 19.8727)
(3.78094e-14 -0.0365212 19.4575)
(4.52223e-14 -0.0565566 19.0069)
(4.5613e-14 -0.141085 18.5832)
(4.26785e-14 -0.269928 18.2206)
(3.97623e-14 -0.414841 17.9611)
(3.99802e-14 -0.481646 17.8739)
(3.55023e-14 -0.334657 18.0528)
(2.26239e-14 0.212449 18.4936)
(9.09044e-15 1.19334 18.7601)
(-7.87716e-15 2.08503 18.4593)
(-1.20828e-14 2.62462 17.6538)
(-1.00946e-14 2.87585 16.6003)
(-6.5865e-15 2.96071 15.451)
(-3.95849e-15 2.96119 14.2749)
(6.13083e-15 2.91813 13.1014)
(3.75776e-16 2.84867 11.944)
(4.6871e-15 2.75935 10.8115)
(5.24022e-15 2.65335 9.71077)
(5.09451e-15 2.53331 8.64642)
(6.61966e-15 2.3993 7.62317)
(8.81989e-15 2.24865 6.63281)
(1.33534e-14 2.04177 5.69021)
(1.3113e-14 1.74 4.82378)
(6.46315e-15 1.2987 4.09536)
(2.99503e-14 0.723303 3.83965)
(-6.39498e-15 0.23528 3.62764)
(-6.57494e-14 -0.0199536 4.02797)
(-9.10957e-14 -0.100239 3.98022)
(-1.27092e-13 0.707193 3.81618)
(-7.01568e-14 1.80528 3.3402)
(-3.70393e-14 1.32587 2.2524)
(-4.91973e-14 0.343036 0.277511)
(-3.9247e-14 -0.749618 -0.919264)
(-4.39886e-14 -1.66779 -1.84602)
(-4.13284e-14 -2.34138 -2.30671)
(-4.76578e-14 -2.94949 -2.26307)
(-3.24682e-14 -3.25625 -1.98826)
(-1.68487e-14 -2.63162 -1.7655)
(-3.91373e-14 -0.738085 -2.0475)
(-5.91551e-14 2.04543 -1.88044)
(-7.55696e-14 4.22556 -2.23869)
(-3.33473e-14 5.12598 -4.582)
(-2.79532e-14 4.51659 -6.20543)
(-4.36132e-14 2.3598 -6.92415)
(-5.19744e-14 0.439522 -8.49316)
(-5.0288e-14 -0.12032 -10.0791)
(-4.93506e-14 0.37336 -11.3852)
(-4.89322e-14 1.8247 -12.149)
(-4.50649e-14 3.75481 -12.2724)
(-4.73167e-14 4.98767 -11.3986)
(-4.6012e-14 3.92472 -10.1477)
(-4.39027e-14 2.29641 -10.0035)
(-4.60266e-14 1.64652 -10.644)
(-4.46379e-14 1.15996 -11.1151)
(-4.70289e-14 0.675268 -11.6018)
(-4.73637e-14 0.302248 -12.0724)
(-4.82368e-14 0.0764873 -12.6932)
(-4.87398e-14 -0.0162341 -13.2251)
(-7.7519e-16 1.88426 0.276001)
(-4.1593e-15 -0.141143 0.93419)
(-5.94639e-15 -1.36561 3.79243)
(-8.05649e-15 -1.39213 5.63452)
(-1.32972e-14 -1.14787 6.93124)
(-1.57988e-14 -0.931803 7.94902)
(-1.21949e-14 -0.76467 8.77515)
(-8.16862e-15 -0.629431 9.43901)
(-8.57568e-15 -0.517387 9.96223)
(-6.17682e-15 -0.429908 10.3689)
(-5.96324e-15 -0.377537 10.6876)
(-7.13664e-15 -0.379215 10.9547)
(-7.09864e-15 -0.461839 11.2368)
(-4.09097e-15 -0.612194 11.6339)
(-1.08009e-15 -0.757694 12.1937)
(3.16488e-15 -0.845239 12.8612)
(7.74816e-15 -0.869541 13.5453)
(1.15791e-14 -0.84618 14.1802)
(1.44294e-14 -0.795289 14.7365)
(1.70569e-14 -0.725797 15.2095)
(1.91845e-14 -0.63349 15.5959)
(2.05882e-14 -0.521361 15.887)
(2.24971e-14 -0.399165 16.0785)
(2.13441e-14 -0.276119 16.171)
(2.16121e-14 -0.168534 16.168)
(2.34216e-14 -0.102419 16.085)
(2.19684e-14 -0.0963371 15.9575)
(1.83551e-14 -0.151685 15.8273)
(1.9019e-14 -0.270174 15.7239)
(1.95218e-14 -0.467065 15.6818)
(1.95245e-14 -0.732462 15.7658)
(1.79424e-14 -1.00866 16.0242)
(1.31123e-14 -1.24366 16.4325)
(1.33959e-14 -1.41605 16.9426)
(1.59317e-14 -1.51002 17.5417)
(1.47484e-14 -1.50389 18.2159)
(1.31982e-14 -1.37724 18.8852)
(1.1379e-14 -1.14399 19.4286)
(1.06752e-14 -0.838872 19.7511)
(1.03811e-14 -0.516082 19.8121)
(1.33189e-14 -0.228987 19.6217)
(1.51002e-14 -0.0283867 19.2267)
(2.42757e-14 0.0560456 18.705)
(3.11767e-14 0.0352174 18.1459)
(3.33279e-14 -0.060806 17.6152)
(3.49837e-14 -0.209176 17.1425)
(3.70481e-14 -0.39126 16.7618)
(3.87204e-14 -0.517942 16.5388)
(3.88622e-14 -0.437141 16.5916)
(3.49168e-14 0.073619 16.9705)
(2.59848e-14 1.15147 17.2951)
(1.32802e-14 2.18471 17.1216)
(2.19201e-15 2.82469 16.4303)
(-4.40676e-15 3.12744 15.4767)
(-8.20659e-15 3.23565 14.4147)
(-1.22376e-14 3.24646 13.3134)
(-5.64961e-15 3.20772 12.2019)
(-6.64564e-15 3.13906 11.0945)
(7.84058e-15 3.04785 10.0006)
(8.23324e-15 2.93762 8.928)
(5.50402e-15 2.81157 7.88241)
(3.01852e-15 2.67054 6.86932)
(6.07992e-15 2.51175 5.87688)
(7.91432e-15 2.28628 4.91833)
(2.16478e-14 1.93572 4.03161)
(-5.13005e-15 1.39625 3.28018)
(2.2271e-14 0.762011 3.22175)
(-2.56746e-14 0.225951 2.98789)
(-1.27519e-13 -0.115098 3.53533)
(-1.27106e-13 -0.240643 2.92288)
(-2.22426e-13 0.740806 2.15209)
(-6.50758e-14 2.08085 2.12144)
(-2.00148e-15 1.83459 0.447094)
(-3.61248e-14 0.42527 -2.03231)
(-5.24149e-14 -0.610841 -3.02256)
(-6.95971e-14 -1.44976 -3.86692)
(-7.09489e-14 -2.25716 -4.38636)
(-5.68645e-14 -2.99307 -4.63139)
(-3.7044e-14 -3.36522 -4.74589)
(-1.33706e-14 -2.70867 -4.86215)
(-2.71939e-14 -0.70178 -5.11287)
(-6.26669e-14 1.91796 -5.6605)
(-5.9976e-14 4.34035 -6.08112)
(-3.01892e-14 5.59224 -7.49307)
(-3.27725e-14 4.77568 -8.32251)
(-4.49044e-14 2.66087 -8.72957)
(-4.91614e-14 0.974633 -10.0269)
(-4.67713e-14 0.405485 -11.507)
(-4.7364e-14 0.742484 -12.8152)
(-4.69011e-14 1.92231 -13.5847)
(-4.65674e-14 3.48868 -13.4493)
(-4.59681e-14 4.40013 -12.282)
(-4.36453e-14 3.6118 -11.1024)
(-4.27028e-14 2.43338 -11.2377)
(-4.46327e-14 1.83394 -11.7991)
(-4.58199e-14 1.29284 -12.1434)
(-4.56677e-14 0.800886 -12.5147)
(-4.55732e-14 0.424983 -12.8677)
(-4.6105e-14 0.175348 -13.3716)
(-4.66329e-14 0.0499179 -13.8375)
(7.06504e-16 1.98147 0.0507456)
(-4.67308e-15 -0.331202 1.23011)
(-4.96394e-15 -1.56524 3.9693)
(-7.54049e-15 -1.53881 5.72955)
(-1.29169e-14 -1.26158 6.96807)
(-1.4253e-14 -1.02636 7.94209)
(-1.49513e-14 -0.844477 8.73325)
(-1.3338e-14 -0.696014 9.36691)
(-8.65966e-15 -0.572171 9.86259)
(-6.52364e-15 -0.474888 10.2427)
(-7.33906e-15 -0.415821 10.5339)
(-5.83804e-15 -0.416645 10.7695)
(-5.06032e-15 -0.509829 11.0162)
(-2.71257e-15 -0.681724 11.3839)
(2.51493e-15 -0.84801 11.9279)