/*--------------------------------*- C++ -*----------------------------------*\
| =========                 |                                                 |
| \\      /  F ield         | OpenFOAM: The Open Source CFD Toolbox           |
|  \\    /   O peration     | Version:  4.1                                   |
|   \\  /    A nd           | Web:      www.OpenFOAM.org                      |
|    \\/     M anipulation  |                                                 |
\*---------------------------------------------------------------------------*/
FoamFile
{
    version     2.0;
    format      ascii;
    class       volScalarField;
    location    "800";
    object      k;
}
// * * * * * * * * * * * * * * * * * * * * * * * * * * * * * * * * * * * * * //

dimensions      [0 2 -2 0 0 0 0];

internalField   nonuniform List<scalar> 
6820
(
0.257082
0.434211
0.59852
0.709382
0.778145
0.818049
0.838548
0.845896
0.844371
0.836963
0.825767
0.812247
0.797426
0.782015
0.766499
0.751202
0.736337
0.722037
0.708379
0.695402
0.683116
0.671517
0.660586
0.650297
0.64062
0.631522
0.622968
0.614929
0.607345
0.600302
0.593196
0.58871
0.574462
0.811277
1.44613
1.51874
1.38792
1.22323
1.07762
0.95922
0.864569
0.788642
0.727157
0.676842
0.635256
0.600578
0.571431
0.546763
0.525758
0.507776
0.49231
0.478954
0.467377
0.45731
0.448532
0.440858
0.434137
0.42824
0.423058
0.4185
0.414492
0.410965
0.407887
0.405159
0.40295
0.400701
0.368869
0.66416
0.797428
0.829397
0.816589
0.786285
0.750411
0.713991
0.679044
0.646311
0.616001
0.588103
0.562514
0.539088
0.517663
0.498078
0.480173
0.4638
0.44882
0.435107
0.422543
0.411025
0.400456
0.390751
0.381831
0.373626
0.366073
0.359115
0.352701
0.346788
0.341328
0.336303
0.331653
0.240027
0.336287
0.412169
0.460222
0.487105
0.500012
0.504036
0.502508
0.497533
0.490423
0.482012
0.472846
0.463295
0.453611
0.443967
0.434484
0.425242
0.416294
0.407675
0.399404
0.391489
0.383933
0.37673
0.369875
0.363355
0.357161
0.351278
0.345693
0.340392
0.335363
0.330591
0.326065
0.321766
0.214145
0.250649
0.284542
0.31208
0.332947
0.348027
0.358469
0.365345
0.369528
0.371681
0.372296
0.371745
0.370308
0.368202
0.365595
0.362616
0.359369
0.355933
0.352374
0.348742
0.345078
0.341412
0.337769
0.33417
0.330629
0.327158
0.323764
0.320456
0.317237
0.314109
0.311077
0.308139
0.305297
0.20564
0.221937
0.238617
0.25366
0.26644
0.276904
0.285273
0.29185
0.296934
0.300784
0.303614
0.305602
0.306896
0.307616
0.307861
0.307715
0.307247
0.306514
0.305564
0.304439
0.303172
0.301792
0.300324
0.298789
0.297204
0.295583
0.293939
0.292282
0.290622
0.288966
0.28732
0.28569
0.284081
0.202357
0.210378
0.219404
0.228106
0.235957
0.242783
0.248605
0.253515
0.257621
0.261026
0.263824
0.266096
0.267914
0.269339
0.270425
0.271218
0.271758
0.272079
0.272212
0.272182
0.272013
0.271724
0.271333
0.270855
0.270303
0.269689
0.269023
0.268315
0.267571
0.266799
0.266006
0.265197
0.264377
0.201008
0.2051
0.210232
0.215526
0.22054
0.225078
0.229098
0.232621
0.235689
0.238346
0.240635
0.242597
0.244268
0.245681
0.246866
0.247847
0.248647
0.249289
0.249788
0.250162
0.250425
0.25059
0.250667
0.250668
0.250602
0.250476
0.250298
0.250074
0.249811
0.249514
0.249187
0.248836
0.248464
0.200424
0.202508
0.205459
0.208754
0.21204
0.21513
0.217953
0.220495
0.222768
0.224789
0.226579
0.228159
0.229548
0.230765
0.231826
0.232746
0.23354
0.23422
0.234797
0.235281
0.235681
0.236006
0.236263
0.236458
0.236599
0.236691
0.236738
0.236746
0.236719
0.23666
0.236574
0.236463
0.236331
0.200163
0.201193
0.202864
0.204904
0.207067
0.20919
0.211193
0.213044
0.214736
0.216272
0.217659
0.218908
0.220029
0.221031
0.221926
0.222722
0.223428
0.224051
0.224599
0.225079
0.225496
0.225856
0.226164
0.226425
0.226643
0.226822
0.226965
0.227076
0.227158
0.227213
0.227245
0.227255
0.227247
0.200044
0.20052
0.201431
0.202661
0.20406
0.205505
0.206921
0.208268
0.209528
0.210694
0.211766
0.212747
0.213641
0.214454
0.215192
0.215859
0.21646
0.217002
0.217488
0.217924
0.218312
0.218657
0.218963
0.219231
0.219467
0.219671
0.219848
0.219999
0.220126
0.220232
0.220318
0.220387
0.220439
0.199989
0.200177
0.20064
0.201347
0.20222
0.203178
0.204159
0.205125
0.206054
0.206932
0.207754
0.208519
0.209226
0.209879
0.210478
0.211028
0.21153
0.211989
0.212406
0.212786
0.21313
0.213441
0.213722
0.213975
0.214201
0.214404
0.214584
0.214744
0.214885
0.215009
0.215117
0.21521
0.215291
0.199965
0.200004
0.200209
0.200585
0.201099
0.201706
0.202361
0.203034
0.203702
0.204351
0.204971
0.205558
0.206111
0.206627
0.207107
0.207553
0.207966
0.208347
0.208698
0.209021
0.209317
0.209589
0.209837
0.210063
0.21027
0.210457
0.210627
0.210781
0.21092
0.211045
0.211158
0.211259
0.211349
0.199954
0.199918
0.199979
0.20015
0.200426
0.200784
0.201198
0.201645
0.202107
0.20257
0.203025
0.203465
0.203886
0.204286
0.204664
0.205019
0.205352
0.205662
0.205951
0.20622
0.206469
0.2067
0.206913
0.20711
0.207291
0.207458
0.207611
0.207752
0.207881
0.207999
0.208107
0.208206
0.208296
0.199949
0.199877
0.199858
0.199907
0.20003
0.200217
0.200456
0.200733
0.201034
0.201348
0.201667
0.201984
0.202294
0.202594
0.202883
0.203158
0.203419
0.203665
0.203898
0.204116
0.204321
0.204512
0.20469
0.204857
0.205011
0.205155
0.205289
0.205413
0.205528
0.205634
0.205733
0.205824
0.205908
0.199947
0.199857
0.199796
0.199776
0.199803
0.199877
0.199994
0.200145
0.200323
0.20052
0.200729
0.200944
0.20116
0.201375
0.201586
0.201791
0.201988
0.202178
0.202358
0.20253
0.202693
0.202846
0.202991
0.203127
0.203256
0.203376
0.203488
0.203594
0.203693
0.203785
0.203872
0.203953
0.204029
0.199947
0.199847
0.199764
0.199706
0.199676
0.199679
0.199713
0.199776
0.199863
0.19997
0.200092
0.200224
0.200363
0.200506
0.200651
0.200794
0.200936
0.201074
0.201208
0.201337
0.201461
0.201579
0.201692
0.2018
0.201902
0.201999
0.202091
0.202177
0.202259
0.202337
0.20241
0.202479
0.202544
0.199946
0.199843
0.199749
0.199669
0.199608
0.199567
0.199548
0.19955
0.199573
0.199614
0.199669
0.199737
0.199814
0.199898
0.199986
0.200078
0.20017
0.200263
0.200356
0.200447
0.200536
0.200622
0.200705
0.200786
0.200863
0.200938
0.201009
0.201077
0.201142
0.201205
0.201264
0.201321
0.201375
0.199946
0.199841
0.199742
0.199651
0.199571
0.199505
0.199453
0.199417
0.199396
0.199389
0.199396
0.199415
0.199443
0.19948
0.199523
0.199572
0.199624
0.199678
0.199735
0.199792
0.199849
0.199907
0.199964
0.20002
0.200074
0.200128
0.20018
0.20023
0.200279
0.200326
0.200372
0.200416
0.200459
0.199946
0.19984
0.199739
0.199642
0.199553
0.199471
0.1994
0.19934
0.19929
0.199252
0.199225
0.199209
0.199201
0.199202
0.199209
0.199223
0.199242
0.199265
0.199291
0.19932
0.199351
0.199383
0.199416
0.19945
0.199485
0.199519
0.199554
0.199588
0.199622
0.199655
0.199688
0.199721
0.199753
0.199946
0.19984
0.199737
0.199638
0.199543
0.199454
0.199372
0.199297
0.19923
0.199172
0.199122
0.199081
0.199048
0.199022
0.199003
0.198991
0.198984
0.198982
0.198984
0.198989
0.198998
0.19901
0.199023
0.199039
0.199056
0.199074
0.199093
0.199113
0.199134
0.199155
0.199177
0.199199
0.199221
0.199946
0.19984
0.199736
0.199635
0.199538
0.199445
0.199356
0.199273
0.199196
0.199125
0.199061
0.199004
0.198954
0.198911
0.198873
0.198842
0.198817
0.198796
0.19878
0.198768
0.19876
0.198755
0.198753
0.198754
0.198757
0.198763
0.19877
0.198778
0.198788
0.198799
0.198812
0.198825
0.198839
0.199946
0.19984
0.199736
0.199634
0.199536
0.19944
0.199349
0.199261
0.199178
0.1991
0.199028
0.198962
0.198901
0.198846
0.198798
0.198754
0.198716
0.198683
0.198655
0.198631
0.198611
0.198595
0.198583
0.198573
0.198567
0.198562
0.198561
0.198561
0.198563
0.198567
0.198572
0.198578
0.198586
0.199946
0.19984
0.199735
0.199634
0.199534
0.199438
0.199345
0.199255
0.19917
0.199089
0.199013
0.198942
0.198876
0.198816
0.198761
0.198711
0.198667
0.198628
0.198593
0.198563
0.198537
0.198514
0.198496
0.198481
0.198468
0.198459
0.198452
0.198447
0.198445
0.198444
0.198446
0.198448
0.198452
0.199946
0.19984
0.199735
0.199633
0.199534
0.199437
0.199344
0.199254
0.199168
0.199087
0.19901
0.198939
0.198873
0.198812
0.198756
0.198706
0.198661
0.198621
0.198586
0.198555
0.198528
0.198505
0.198485
0.198469
0.198456
0.198446
0.198438
0.198433
0.198429
0.198428
0.198428
0.19843
0.198433
0.199946
0.19984
0.199735
0.199634
0.199534
0.199438
0.199346
0.199257
0.199174
0.199095
0.199022
0.198954
0.198892
0.198836
0.198785
0.19874
0.1987
0.198665
0.198635
0.198609
0.198587
0.198569
0.198554
0.198542
0.198533
0.198527
0.198523
0.198521
0.19852
0.198522
0.198524
0.198529
0.198534
0.199946
0.19984
0.199736
0.199635
0.199537
0.199442
0.199353
0.199269
0.19919
0.199118
0.199053
0.198995
0.198943
0.198898
0.198858
0.198825
0.198797
0.198774
0.198756
0.198741
0.19873
0.198723
0.198718
0.198716
0.198716
0.198718
0.198722
0.198728
0.198734
0.198742
0.19875
0.19876
0.19877
0.199946
0.19984
0.199737
0.199637
0.199542
0.199453
0.19937
0.199295
0.199228
0.19917
0.199121
0.199079
0.199046
0.19902
0.199001
0.198988
0.19898
0.198977
0.198978
0.198982
0.198989
0.198998
0.19901
0.199023
0.199037
0.199052
0.199068
0.199085
0.199102
0.199119
0.199136
0.199153
0.199171
0.199946
0.199841
0.19974
0.199645
0.199557
0.199478
0.19941
0.199354
0.199309
0.199277
0.199255
0.199244
0.199241
0.199247
0.199259
0.199277
0.199299
0.199325
0.199353
0.199384
0.199416
0.199448
0.199481
0.199514
0.199547
0.199579
0.199611
0.199642
0.199672
0.199701
0.199729
0.199756
0.199782
0.199947
0.199844
0.199749
0.199664
0.199592
0.199537
0.199499
0.19948
0.199477
0.19949
0.199516
0.199553
0.199599
0.199652
0.19971
0.199772
0.199836
0.199901
0.199965
0.20003
0.200092
0.200154
0.200213
0.20027
0.200324
0.200376
0.200426
0.200473
0.200518
0.20056
0.200599
0.200637
0.200672
0.199948
0.199852
0.19977
0.199711
0.199677
0.199673
0.199697
0.199746
0.199818
0.199907
0.20001
0.200122
0.200239
0.20036
0.200481
0.2006
0.200717
0.20083
0.200939
0.201043
0.201141
0.201234
0.201322
0.201405
0.201482
0.201554
0.201622
0.201685
0.201743
0.201797
0.201848
0.201894
0.201937
0.199951
0.199872
0.199828
0.199831
0.199884
0.199985
0.200128
0.200302
0.2005
0.20071
0.200928
0.201146
0.201361
0.201569
0.201768
0.201958
0.202136
0.202304
0.20246
0.202605
0.20274
0.202865
0.20298
0.203087
0.203184
0.203274
0.203356
0.203431
0.2035
0.203563
0.203619
0.203671
0.203718
0.19996
0.199932
0.199988
0.200141
0.200383
0.200695
0.201055
0.20144
0.201833
0.202222
0.202597
0.202954
0.203288
0.203598
0.203885
0.204149
0.20439
0.204611
0.204811
0.204994
0.205159
0.205309
0.205445
0.205567
0.205677
0.205777
0.205866
0.205946
0.206017
0.20608
0.206137
0.206186
0.20623
0.19999
0.200113
0.200438
0.200945
0.201582
0.202288
0.203012
0.20372
0.20439
0.205011
0.205578
0.206091
0.206552
0.206965
0.207333
0.207661
0.207953
0.208212
0.208442
0.208646
0.208826
0.208985
0.209126
0.209249
0.209357
0.209451
0.209533
0.209603
0.209664
0.209715
0.209757
0.209792
0.20982
0.200097
0.200698
0.201729
0.20303
0.20443
0.205804
0.207078
0.208222
0.20923
0.210107
0.210866
0.211521
0.212084
0.212568
0.212984
0.213341
0.213648
0.21391
0.214135
0.214327
0.21449
0.214628
0.214743
0.214839
0.214917
0.214979
0.215028
0.215064
0.215089
0.215104
0.215111
0.215109
0.2151
0.200521
0.202675
0.205525
0.20847
0.211189
0.21355
0.215527
0.217152
0.218476
0.219552
0.220424
0.221131
0.221704
0.222168
0.222543
0.222845
0.223087
0.223277
0.223425
0.223537
0.223617
0.223672
0.223702
0.223713
0.223707
0.223684
0.223649
0.223601
0.223542
0.223475
0.223398
0.223315
0.223225
0.202177
0.209422
0.217079
0.223316
0.228003
0.231437
0.233925
0.235719
0.237011
0.237936
0.238593
0.239054
0.239367
0.239569
0.239685
0.239733
0.239727
0.239676
0.239588
0.239469
0.239324
0.239157
0.238971
0.238768
0.23855
0.23832
0.23808
0.23783
0.237573
0.237308
0.237039
0.236764
0.236486
0.208503
0.227596
0.245316
0.25869
0.267554
0.272837
0.275658
0.27695
0.277338
0.277195
0.276744
0.276116
0.275385
0.274596
0.273774
0.272932
0.27208
0.271221
0.270359
0.269495
0.268631
0.267768
0.266908
0.266051
0.265198
0.264351
0.263511
0.262678
0.261853
0.261037
0.260232
0.259437
0.258653
0.248308
0.315061
0.34816
0.362157
0.367118
0.367958
0.366701
0.364185
0.360865
0.357053
0.352965
0.348753
0.344525
0.340356
0.336297
0.332383
0.328633
0.32506
0.321669
0.318461
0.315432
0.312577
0.309891
0.307366
0.304994
0.302768
0.30068
0.298722
0.296886
0.295167
0.293555
0.292046
0.290632
0.205354
0.221127
0.238043
0.254121
0.268995
0.282971
0.296258
0.308938
0.321054
0.332632
0.343696
0.354264
0.36435
0.373971
0.38314
0.391874
0.400187
0.408094
0.415611
0.422753
0.429535
0.435971
0.442078
0.447869
0.453358
0.45856
0.463488
0.468155
0.472574
0.476757
0.480716
0.484461
0.488008
0.618437
0.693952
0.815599
0.965034
1.12996
1.29827
1.46124
1.61182
1.74419
1.85431
1.9406
2.00408
2.04771
2.07551
2.09157
2.09946
2.10189
2.1007
2.09701
2.09146
2.08441
2.07611
2.06676
2.05655
2.04561
2.03407
2.02195
2.00926
1.99593
1.98185
1.9669
1.95093
1.93377
1.91526
1.89524
1.87358
1.85014
1.8248
1.7975
1.76818
1.73681
1.70342
1.66804
1.63077
1.59174
1.55112
1.50911
1.46596
1.42195
1.37737
1.33257
1.28789
1.24368
1.2003
1.15808
1.11737
1.07847
1.04165
1.00715
0.975156
0.945829
0.919275
0.895561
0.87471
0.856713
0.841524
0.829072
0.81926
0.811973
0.807079
0.804434
0.803887
0.805275
0.808432
0.813186
0.81936
0.826773
0.835243
0.844585
0.854615
0.86515
0.87601
0.887021
0.898015
0.908833
0.919325
0.929355
0.938797
0.94754
0.955484
0.962546
0.968652
0.973746
0.977773
0.980716
0.982509
0.983251
0.982687
0.981635
0.978219
0.399181
0.404162
0.417413
0.441401
0.476837
0.524199
0.583416
0.653813
0.734102
0.822432
0.916418
1.01322
1.10972
1.20277
1.28952
1.36771
1.43583
1.49327
1.54015
1.57724
1.60564
1.6266
1.64131
1.65082
1.65601
1.65756
1.656
1.65171
1.64502
1.63613
1.62521
1.61237
1.59767
1.58117
1.56286
1.54278
1.52092
1.49729
1.47191
1.44483
1.41608
1.38576
1.35395
1.3208
1.28646
1.25111
1.21496
1.17826
1.14124
1.10419
1.06737
1.03109
0.995613
0.961223
0.928177
0.896716
0.867051
0.839368
0.813817
0.790515
0.769547
0.750963
0.734782
0.720997
0.709575
0.700463
0.693591
0.688873
0.686213
0.685508
0.686646
0.68951
0.693978
0.699925
0.70722
0.715726
0.725305
0.735811
0.747096
0.759006
0.77139
0.78409
0.796953
0.809828
0.822566
0.835027
0.847077
0.858592
0.869459
0.879575
0.888849
0.897201
0.904565
0.91088
0.916117
0.920205
0.923227
0.924949
0.926012
0.925638
0.326706
0.321609
0.317081
0.313602
0.31189
0.312706
0.316574
0.324146
0.336303
0.353926
0.377842
0.408731
0.446998
0.492639
0.545126
0.603363
0.665725
0.730202
0.79461
0.856847
0.91511
0.968046
1.01481
1.05505
1.08878
1.11632
1.13813
1.15474
1.16666
1.1744
1.17838
1.17896
1.17646
1.17113
1.16321
1.15288
1.14031
1.12567
1.10909
1.09072
1.0707
1.0492
1.02636
1.00237
0.977402
0.95166
0.92535
0.898694
0.871916
0.845248
0.81892
0.793158
0.768181
0.744193
0.721382
0.699917
0.679943
0.661581
0.644925
0.630048
0.616994
0.605788
0.596434
0.588917
0.583209
0.579269
0.577044
0.576478
0.577504
0.580054
0.584054
0.589428
0.596095
0.603971
0.612967
0.622989
0.633936
0.645701
0.658171
0.671227
0.684745
0.698594
0.712642
0.726756
0.740802
0.754647
0.768165
0.781234
0.793738
0.805572
0.81664
0.826853
0.836138
0.844424
0.85167
0.857801
0.862877
0.866689
0.869698
0.872163
0.317033
0.311837
0.306762
0.301843
0.297173
0.292875
0.289092
0.285967
0.283636
0.282343
0.282392
0.284151
0.288044
0.294533
0.30409
0.317148
0.33404
0.35494
0.379797
0.408302
0.43988
0.473722
0.508855
0.544237
0.578853
0.611798
0.642341
0.669947
0.694276
0.715159
0.732566
0.746565
0.75729
0.764915
0.769632
0.771641
0.771142
0.76833
0.763399
0.756538
0.747932
0.737768
0.726233
0.713516
0.699809
0.685305
0.670199
0.654688
0.638967
0.623228
0.607656
0.592429
0.577714
0.563665
0.55042
0.538102
0.526814
0.516643
0.507656
0.499905
0.493424
0.488234
0.484344
0.481749
0.48044
0.480396
0.481593
0.484004
0.487594
0.492331
0.498176
0.505089
0.513027
0.521944
0.531786
0.542497
0.554012
0.566259
0.579158
0.592622
0.606554
0.62085
0.635401
0.650093
0.664805
0.679419
0.693815
0.707874
0.721484
0.734535
0.746926
0.758564
0.769366
0.779252
0.788169
0.796035
0.802889
0.808544
0.813285
0.818323
0.3021
0.29852
0.294965
0.291425
0.287902
0.284414
0.280991
0.277675
0.274503
0.271521
0.268792
0.266392
0.264419
0.262994
0.26226
0.262388
0.263566
0.265998
0.26988
0.275394
0.282674
0.291791
0.302731
0.315383
0.329536
0.344889
0.361073
0.377673
0.394262
0.410429
0.425805
0.440075
0.452994
0.464382
0.474123
0.48216
0.488482
0.493118
0.496127
0.497594
0.497621
0.496323
0.493829
0.490273
0.485798
0.480549
0.474674
0.468322
0.46164
0.454773
0.447858
0.441029
0.434409
0.428112
0.422242
0.41689
0.412136
0.408048
0.404682
0.402082
0.400285
0.399316
0.399193
0.399929
0.401528
0.403993
0.407323
0.411513
0.416557
0.422446
0.429172
0.436721
0.445079
0.454229
0.464147
0.474807
0.486172
0.498202
0.510846
0.524043
0.537726
0.551815
0.566224
0.580858
0.595615
0.61039
0.625072
0.63955
0.653714
0.667457
0.680673
0.693265
0.705142
0.716215
0.726423
0.735673
0.743983
0.751188
0.757407
0.764695
0.282231
0.280115
0.277972
0.275794
0.273573
0.271311
0.269018
0.266707
0.264394
0.262097
0.259832
0.257622
0.25549
0.253466
0.251585
0.249891
0.248436
0.247283
0.246501
0.246168
0.246366
0.247176
0.248672
0.250914
0.253942
0.257766
0.262365
0.267685
0.273633
0.280091
0.286913
0.293939
0.301003
0.307941
0.314603
0.320852
0.326577
0.331691
0.336129
0.339857
0.342858
0.345142
0.346733
0.347673
0.348018
0.347833
0.347192
0.346176
0.344868
0.343355
0.341721
0.34005
0.338424
0.33692
0.335607
0.334552
0.333812
0.333441
0.333483
0.333978
0.334959
0.336455
0.338487
0.341077
0.34424
0.347989
0.352336
0.357291
0.362862
0.369059
0.375888
0.383354
0.391462
0.400214
0.409607
0.419637
0.43029
0.44155
0.453389
0.465773
0.478656
0.491986
0.505697
0.519716
0.53396
0.548338
0.562753
0.577106
0.591292
0.605206
0.618745
0.631809
0.644301
0.656128
0.667216
0.677469
0.686881
0.695306
0.702714
0.711876
0.263408
0.262271
0.261091
0.259862
0.258579
0.257239
0.255846
0.254406
0.252926
0.251415
0.249881
0.248335
0.246783
0.245237
0.243705
0.242202
0.240742
0.239343
0.238027
0.236819
0.235749
0.234849
0.234155
0.233703
0.233527
0.23366
0.234126
0.234943
0.236117
0.237644
0.239504
0.241667
0.244091
0.246724
0.249508
0.252381
0.255279
0.258143
0.260917
0.263553
0.266011
0.268264
0.270293
0.27209
0.273657
0.275006
0.276158
0.277138
0.277979
0.27872
0.279401
0.280064
0.280753
0.28151
0.282378
0.283397
0.284605
0.286037
0.287724
0.289697
0.29198
0.294598
0.297572
0.30092
0.30466
0.308808
0.31338
0.318389
0.323852
0.329782
0.336194
0.343103
0.350524
0.358469
0.36695
0.375975
0.385548
0.395669
0.406331
0.417518
0.429209
0.441371
0.45396
0.466924
0.4802
0.493715
0.50739
0.521136
0.534861
0.548466
0.561853
0.574923
0.587579
0.599723
0.611274
0.622133
0.632274
0.641566
0.64985
0.660471
0.248006
0.247448
0.246848
0.246202
0.245507
0.244759
0.243959
0.24311
0.242215
0.24128
0.240309
0.239308
0.238281
0.237233
0.236168
0.235091
0.234007
0.232921
0.231842
0.230777
0.229738
0.228736
0.227787
0.226905
0.226108
0.225415
0.224844
0.224411
0.224132
0.224019
0.224081
0.224321
0.224739
0.225329
0.226079
0.226976
0.228
0.229131
0.230346
0.231624
0.232943
0.234284
0.235631
0.236972
0.2383
0.239609
0.240902
0.242183
0.243462
0.244752
0.246068
0.247428
0.248853
0.250363
0.251979
0.253724
0.255619
0.257683
0.259936
0.262397
0.265083
0.268009
0.27119
0.274641
0.278374
0.282404
0.286744
0.291408
0.296411
0.301767
0.307494
0.313609
0.320129
0.327073
0.334459
0.342303
0.350621
0.359423
0.368716
0.378502
0.388775
0.39952
0.410715
0.422327
0.434314
0.446622
0.459189
0.471943
0.484806
0.497691
0.510508
0.523163
0.535563
0.54761
0.559222
0.570295
0.580787
0.590585
0.599421
0.611063
0.236152
0.235916
0.235645
0.235336
0.234988
0.234595
0.234159
0.23368
0.23316
0.232602
0.232009
0.231384
0.230731
0.230052
0.229349
0.228625
0.227883
0.227125
0.226353
0.225572
0.224784
0.223995
0.223211
0.222438
0.221686
0.220962
0.220277
0.219642
0.219066
0.218561
0.218137
0.217801
0.217563
0.217426
0.217395
0.217472
0.217655
0.217943
0.218332
0.218817
0.219391
0.22005
0.220788
0.221598
0.222479
0.223427
0.224441
0.225523
0.226675
0.227903
0.229212
0.230611
0.232107
0.233712
0.235434
0.237286
0.239277
0.241419
0.24372
0.246192
0.248844
0.251683
0.25472
0.257962
0.261418
0.265098
0.269009
0.273164
0.277574
0.282252
0.287213
0.292473
0.29805
0.303964
0.310234
0.316881
0.323925
0.331384
0.339274
0.347607
0.356391
0.365626
0.375306
0.385416
0.395932
0.40682
0.418037
0.429528
0.441232
0.453077
0.464986
0.476875
0.488657
0.500242
0.511544
0.522466
0.532952
0.542904
0.551971
0.564188
0.227214
0.227152
0.227062
0.226943
0.226792
0.226607
0.226387
0.226132
0.225844
0.225523
0.225172
0.224793
0.224388
0.22396
0.223509
0.223038
0.222548
0.222041
0.221518
0.22098
0.220429
0.219868
0.219299
0.218726
0.218151
0.21758
0.217018
0.216471
0.215946
0.215448
0.214986
0.214568
0.214199
0.213887
0.213639
0.213459
0.213354
0.213327
0.213381
0.213519
0.213743
0.214053
0.214452
0.21494
0.215517
0.216186
0.216947
0.217803
0.218756
0.219809
0.220967
0.222233
0.223612
0.225108
0.226728
0.228476
0.230358
0.232377
0.234538
0.236846
0.239305
0.241917
0.244687
0.247619
0.250716
0.253983
0.257426
0.261052
0.264867
0.268884
0.273112
0.277567
0.282264
0.28722
0.292456
0.297992
0.303849
0.310049
0.316612
0.323558
0.330902
0.338656
0.346826
0.355412
0.364405
0.373788
0.383536
0.393614
0.403975
0.414567
0.425327
0.436184
0.447063
0.457883
0.468564
0.479013
0.489171
0.498952
0.507949
0.52031
0.220482
0.22051
0.220517
0.220502
0.220462
0.220397
0.220304
0.220183
0.220036
0.219862
0.219664
0.219442
0.2192
0.218937
0.218655
0.218357
0.218043
0.217714
0.217372
0.217016
0.216649
0.216271
0.215884
0.215489
0.215089
0.214686
0.214283
0.213882
0.213489
0.213108
0.212743
0.2124
0.212084
0.211802
0.211558
0.211359
0.21121
0.211118
0.211087
0.211123
0.211229
0.211411
0.211673
0.212018
0.21245
0.212972
0.213589
0.214303
0.215119
0.216038
0.217065
0.218203
0.219455
0.220824
0.222312
0.223923
0.225656
0.227515
0.229501
0.231613
0.233853
0.23622
0.238714
0.241336
0.244086
0.246965
0.249975
0.25312
0.256404
0.259833
0.263417
0.267166
0.271093
0.275214
0.279545
0.284106
0.288917
0.294001
0.29938
0.305075
0.311107
0.317494
0.324251
0.331387
0.338906
0.346807
0.355077
0.363698
0.372642
0.381872
0.391341
0.400995
0.410774
0.420606
0.430423
0.440141
0.4497
0.459029
0.467688
0.479799
0.215369
0.215442
0.2155
0.21554
0.215562
0.215563
0.215544
0.215503
0.215441
0.215359
0.215256
0.215136
0.214998
0.214844
0.214676
0.214494
0.2143
0.214095
0.213879
0.213654
0.213421
0.213179
0.212931
0.212677
0.212418
0.212156
0.211893
0.211631
0.211372
0.21112
0.210877
0.210648
0.210437
0.210247
0.210085
0.209954
0.209861
0.209809
0.209806
0.209855
0.209963
0.210134
0.210375
0.210689
0.211081
0.211557
0.21212
0.212774
0.213525
0.214374
0.215326
0.216383
0.217548
0.218822
0.220208
0.221705
0.223314
0.225035
0.226866
0.228806
0.230853
0.233004
0.235257
0.23761
0.24006
0.242606
0.245247
0.247984
0.250818
0.253754
0.256796
0.259952
0.263234
0.266651
0.270221
0.273958
0.277883
0.282014
0.286375
0.290987
0.295873
0.301052
0.306546
0.312369
0.318535
0.32505
0.331916
0.339126
0.346669
0.354521
0.362652
0.371025
0.379592
0.388298
0.397086
0.405885
0.414637
0.423287
0.43139
0.442909
0.211442
0.211535
0.211616
0.211684
0.211738
0.211776
0.211799
0.211805
0.211795
0.211768
0.211726
0.21167
0.2116
0.211518
0.211425
0.211322
0.21121
0.21109
0.210964
0.210831
0.210693
0.21055
0.210404
0.210255
0.210104
0.209952
0.209802
0.209653
0.209508
0.20937
0.20924
0.209122
0.209018
0.208933
0.208869
0.208832
0.208825
0.208852
0.20892
0.209033
0.209195
0.209412
0.20969
0.210033
0.210446
0.210933
0.211501
0.212152
0.212891
0.213721
0.214646
0.215667
0.216788
0.218008
0.219329
0.22075
0.22227
0.223888
0.225601
0.227406
0.2293
0.231278
0.233336
0.23547
0.237675
0.239949
0.242288
0.244691
0.247157
0.249688
0.252286
0.254957
0.257709
0.26055
0.263492
0.266551
0.269741
0.273081
0.27659
0.280291
0.284204
0.288351
0.292753
0.29743
0.302399
0.307673
0.313261
0.319169
0.325393
0.331925
0.338749
0.345839
0.353165
0.360686
0.368357
0.376121
0.383928
0.391737
0.399116
0.409772
0.208391
0.20849
0.208579
0.208659
0.208728
0.208785
0.208831
0.208863
0.208883
0.208891
0.208886
0.208871
0.208846
0.208811
0.208768
0.208718
0.208663
0.208602
0.208537
0.208469
0.208399
0.208328
0.208256
0.208185
0.208114
0.208046
0.207982
0.207922
0.207869
0.207824
0.207788
0.207766
0.207757
0.207767
0.207797
0.207852
0.207934
0.208049
0.208199
0.20839
0.208626
0.208912
0.209252
0.209651
0.210114
0.210646
0.21125
0.21193
0.212691
0.213535
0.214466
0.215484
0.216592
0.21779
0.219078
0.220455
0.221919
0.223467
0.225097
0.226803
0.228581
0.230425
0.232331
0.234292
0.236303
0.238359
0.240456
0.242591
0.24476
0.246965
0.249205
0.251484
0.253806
0.25618
0.258614
0.26112
0.263711
0.266403
0.269214
0.272163
0.275268
0.278552
0.282035
0.285737
0.289678
0.293875
0.298341
0.303087
0.30812
0.31344
0.319041
0.324911
0.331031
0.337374
0.343909
0.350591
0.357381
0.364251
0.370799
0.380395
0.205999
0.206095
0.206184
0.206266
0.206339
0.206405
0.206461
0.206507
0.206545
0.206572
0.206591
0.206601
0.206604
0.206601
0.206592
0.206578
0.20656
0.20654
0.206519
0.206497
0.206476
0.206455
0.206438
0.206423
0.206412
0.206407
0.206408
0.206417
0.206435
0.206463
0.206503
0.206558
0.20663
0.20672
0.206832
0.206968
0.207132
0.207328
0.207558
0.207827
0.208139
0.208498
0.208907
0.209372
0.209897
0.210485
0.21114
0.211866
0.212666
0.213542
0.214497
0.215533
0.216649
0.217847
0.219125
0.220481
0.221913
0.223417
0.224989
0.226624
0.228317
0.230061
0.23185
0.233676
0.235535
0.237419
0.239323
0.241243
0.243175
0.245118
0.24707
0.249034
0.251012
0.253009
0.255033
0.257093
0.259201
0.261369
0.263612
0.265947
0.268392
0.270966
0.273688
0.276579
0.279656
0.282939
0.286445
0.290186
0.294174
0.298417
0.302916
0.307668
0.312665
0.317891
0.323325
0.328938
0.334698
0.340589
0.346252
0.35467
0.204111
0.204199
0.204282
0.204361
0.204433
0.204499
0.204559
0.204611
0.204657
0.204696
0.204728
0.204754
0.204775
0.204792
0.204805
0.204815
0.204824
0.204832
0.204841
0.204851
0.204864
0.204881
0.204902
0.204929
0.204962
0.205003
0.205054
0.205114
0.205187
0.205272
0.205372
0.205489
0.205624
0.20578
0.20596
0.206165
0.206399
0.206666
0.206967
0.207306
0.207688
0.208115
0.208592
0.209122
0.209708
0.210355
0.211065
0.211841
0.212686
0.213603
0.214592
0.215655
0.216791
0.218
0.219281
0.220631
0.222047
0.223525
0.225059
0.226644
0.228274
0.229942
0.23164
0.233362
0.2351
0.236847
0.238598
0.240347
0.242089
0.243821
0.245542
0.247253
0.248954
0.250649
0.252344
0.254045
0.255763
0.257509
0.259294
0.261134
0.263044
0.26504
0.267141
0.269364
0.271728
0.274251
0.27695
0.27984
0.282935
0.286245
0.289779
0.293539
0.297524
0.301727
0.306138
0.310737
0.315502
0.320426
0.325199
0.33239
0.202616
0.202694
0.202768
0.20284
0.202907
0.20297
0.203028
0.203082
0.20313
0.203174
0.203213
0.203248
0.20328
0.203309
0.203336
0.203363
0.203389
0.203417
0.203446
0.203479
0.203517
0.203559
0.203609
0.203665
0.203731
0.203807
0.203894
0.203993
0.204107
0.204236
0.204382
0.204547
0.204732
0.204941
0.205175
0.205437
0.205729
0.206053
0.206414
0.206814
0.207257
0.207744
0.20828
0.208869
0.209512
0.210213
0.210975
0.211801
0.212691
0.213648
0.214673
0.215766
0.216926
0.218152
0.219443
0.220794
0.222203
0.223664
0.225172
0.22672
0.228303
0.229911
0.231539
0.233177
0.234819
0.236457
0.238084
0.239694
0.241282
0.242845
0.24438
0.245886
0.247364
0.248815
0.250245
0.251659
0.253065
0.254471
0.255888
0.257329
0.258807
0.260337
0.261935
0.263616
0.265398
0.267296
0.269329
0.27151
0.273855
0.276376
0.279083
0.281983
0.285081
0.288377
0.291865
0.295536
0.299376
0.303382
0.307298
0.313276
0.201435
0.201501
0.201565
0.201627
0.201686
0.201744
0.201798
0.201849
0.201896
0.201941
0.201983
0.202023
0.202061
0.202097
0.202133
0.20217
0.202208
0.202248
0.202292
0.20234
0.202394
0.202456
0.202525
0.202603
0.202692
0.202792
0.202906
0.203034
0.203178
0.20334
0.203521
0.203722
0.203947
0.204196
0.204473
0.204779
0.205116
0.205489
0.205898
0.206347
0.20684
0.207378
0.207964
0.208602
0.209294
0.210043
0.21085
0.211719
0.212649
0.213643
0.2147
0.215821
0.217004
0.218247
0.219548
0.220903
0.222307
0.223757
0.225244
0.226764
0.228308
0.229869
0.231438
0.233008
0.234571
0.236118
0.237644
0.23914
0.240603
0.242027
0.24341
0.24475
0.246046
0.247301
0.248517
0.249699
0.250853
0.251986
0.253108
0.254229
0.255361
0.256517
0.257709
0.258953
0.260263
0.261654
0.263142
0.264741
0.266466
0.268329
0.270341
0.272513
0.274851
0.277359
0.280037
0.282882
0.285887
0.289052
0.292172
0.296998
0.200507
0.200561
0.200614
0.200666
0.200717
0.200766
0.200815
0.200861
0.200906
0.200949
0.200991
0.201032
0.201072
0.201112
0.201153
0.201196
0.201241
0.20129
0.201343
0.201402
0.201467
0.201541
0.201623
0.201717
0.201822
0.20194
0.202072
0.202221
0.202387
0.202572
0.202778
0.203007
0.20326
0.20354
0.203849
0.204188
0.204561
0.20497
0.205417
0.205905
0.206436
0.207014
0.20764
0.208318
0.209049
0.209836
0.21068
0.211584
0.212547
0.21357
0.214654
0.215796
0.216997
0.218253
0.219562
0.220918
0.222319
0.223756
0.225225
0.226719
0.228229
0.229747
0.231266
0.232777
0.234272
0.235743
0.237182
0.238583
0.23994
0.241249
0.242506
0.243709
0.244857
0.245951
0.246993
0.247987
0.248938
0.249852
0.250737
0.251601
0.252455
0.253311
0.254178
0.255071
0.256001
0.256984
0.258031
0.259157
0.260375
0.261697
0.263135
0.264698
0.266397
0.268235
0.270219
0.272346
0.274616
0.277032
0.279434
0.283199
0.199789
0.199831
0.199873
0.199915
0.199956
0.199998
0.20004
0.200081
0.200121
0.200161
0.200201
0.200241
0.200282
0.200323
0.200367
0.200412
0.200461
0.200515
0.200574
0.200639
0.200711
0.200793
0.200884
0.200987
0.201103
0.201232
0.201377
0.20154
0.201721
0.201922
0.202145
0.202393
0.202666
0.202968
0.203299
0.203662
0.204061
0.204496
0.20497
0.205486
0.206046
0.206653
0.207309
0.208016
0.208776
0.209591
0.210462
0.211391
0.212377
0.213422
0.214523
0.21568
0.216892
0.218155
0.219465
0.220818
0.222209
0.223633
0.225081
0.226548
0.228024
0.229502
0.230974
0.232431
0.233864
0.235266
0.23663
0.237948
0.239214
0.240425
0.241575