/*--------------------------------*- C++ -*----------------------------------*\
| =========                 |                                                 |
| \\      /  F ield         | OpenFOAM: The Open Source CFD Toolbox           |
|  \\    /   O peration     | Version:  4.1                                   |
|   \\  /    A nd           | Web:      www.OpenFOAM.org                      |
|    \\/     M anipulation  |                                                 |
\*---------------------------------------------------------------------------*/
FoamFile
{
    version     2.0;
    format      ascii;
    class       volScalarField;
    location    "800";
    object      nut;
}
// * * * * * * * * * * * * * * * * * * * * * * * * * * * * * * * * * * * * * //

dimensions      [0 2 -1 0 0 0 0];

internalField   nonuniform List<scalar> 
6820
(
3.5437e-05
5.0672e-05
6.21565e-05
6.89859e-05
7.29393e-05
7.51484e-05
7.62608e-05
7.66561e-05
7.65742e-05
7.61754e-05
7.5569e-05
7.48308e-05
7.40141e-05
7.31562e-05
7.22832e-05
7.14133e-05
7.05589e-05
6.97283e-05
6.89267e-05
6.81574e-05
6.74221e-05
6.67214e-05
6.60551e-05
6.54227e-05
6.48229e-05
6.42547e-05
6.37165e-05
6.32071e-05
6.27234e-05
6.22712e-05
6.18123e-05
6.15236e-05
6.06185e-05
0.00135033
0.000930454
0.000725657
0.000569941
0.000453328
0.000372218
0.000316223
0.000276487
0.000247302
0.000225194
0.000208006
0.000194347
0.000183294
0.000174213
0.000166657
0.000160304
0.000154915
0.000150308
0.000146343
0.000142912
0.000139929
0.000137323
0.000135037
0.000133027
0.000131253
0.000129682
0.000128288
0.000127047
0.000125938
0.000124946
0.000124038
0.000123265
0.000122379
0.0034439
0.00180034
0.00133708
0.00108081
0.000912409
0.000791562
0.000700947
0.00063099
0.000575611
0.000530788
0.000493805
0.000462783
0.000436392
0.00041367
0.000393905
0.000376562
0.000361228
0.000347581
0.000335367
0.000324379
0.000314452
0.000305448
0.000297252
0.000289769
0.000282916
0.000276625
0.000270835
0.000265494
0.000260555
0.000255981
0.000251728
0.000247779
0.00024405
0.00637392
0.00310291
0.00217847
0.00173334
0.00146616
0.00128428
0.00115082
0.00104807
0.000966256
0.000899457
0.000843822
0.000796729
0.000756323
0.000721254
0.000690512
0.000663332
0.000639118
0.000617403
0.000597814
0.000580048
0.00056386
0.000549048
0.000535442
0.0005229
0.000511303
0.000500547
0.000490544
0.000481219
0.000472504
0.00046434
0.000456672
0.000449458
0.000442632
0.00899737
0.00527271
0.00366202
0.00284163
0.00235737
0.00203856
0.00181195
0.00164188
0.00150906
0.00140219
0.00131419
0.00124038
0.00117752
0.0011233
0.00107604
0.00103445
0.000997548
0.000964582
0.000934942
0.000908142
0.000883787
0.000861552
0.000841169
0.000822412
0.000805091
0.000789046
0.000774138
0.000760246
0.000747268
0.000735112
0.000723694
0.000712946
0.000702785
0.0103765
0.00752965
0.00561349
0.00443387
0.0036773
0.00316202
0.00279169
0.00251363
0.00229739
0.00212446
0.001983
0.00186511
0.00176535
0.00167982
0.00160567
0.00154077
0.00148348
0.00143253
0.00138694
0.00134589
0.00130873
0.00127495
0.00124409
0.00121579
0.00118976
0.00116571
0.00114344
0.00112276
0.00110348
0.00108548
0.00106863
0.0010528
0.0010379
0.0109773
0.00922098
0.00752197
0.0062241
0.00528073
0.00458893
0.00406896
0.0036676
0.00335004
0.00309329
0.00288184
0.00270491
0.00255483
0.00242601
0.0023143
0.00221655
0.00213034
0.00205377
0.00198532
0.00192379
0.0018682
0.00181773
0.00177172
0.00172961
0.00169093
0.00165529
0.00162235
0.00159181
0.00156341
0.00153695
0.00151223
0.00148908
0.00146735
0.0112223
0.01026
0.00902119
0.00786209
0.00689742
0.00612296
0.00550365
0.00500431
0.00459663
0.00425931
0.00397662
0.00373691
0.00353146
0.00335369
0.00319855
0.0030621
0.00294127
0.00283359
0.0027371
0.00265018
0.00257151
0.00250002
0.00243478
0.00237504
0.00232014
0.00226955
0.00222277
0.00217942
0.00213913
0.00210161
0.00206657
0.0020338
0.00200307
0.0113196
0.0108286
0.0100355
0.0091472
0.00830321
0.00755759
0.00691829
0.00637539
0.00591434
0.00552102
0.00518335
0.0048914
0.00463719
0.00441434
0.00421772
0.0040432
0.00388745
0.00374773
0.0036218
0.0035078
0.00340419
0.00330967
0.00322314
0.00314368
0.00307049
0.00300288
0.00294027
0.00288214
0.00282805
0.00277761
0.00273049
0.00268638
0.00264501
0.0113579
0.0111187
0.0106546
0.0100468
0.00939296
0.00875749
0.00817148
0.00764509
0.00717794
0.00676519
0.00640062
0.00607795
0.00579147
0.00553617
0.00530774
0.00510254
0.00491748
0.00474995
0.00459775
0.00445899
0.00433209
0.00421567
0.00410857
0.00400977
0.0039184
0.00383369
0.00375499
0.00368171
0.00361335
0.00354946
0.00348964
0.00343354
0.00338085
0.0113728
0.01126
0.0110057
0.0106242
0.0101642
0.00967403
0.00918759
0.0087244
0.00829364
0.0078983
0.00753797
0.00721062
0.00691349
0.00664365
0.00639827
0.00617471
0.00597058
0.00578377
0.0056124
0.00545481
0.00530957
0.00517541
0.0050512
0.00493596
0.00482883
0.00472906
0.00463596
0.00454893
0.00446745
0.00439105
0.0043193
0.00425183
0.00418831
0.0113787
0.0113266
0.011194
0.0109703
0.0106711
0.0103231
0.00995189
0.00957697
0.00921101
0.00886139
0.00853191
0.008224
0.00793771
0.00767227
0.00742651
0.00719904
0.00698845
0.00679334
0.00661237
0.00644432
0.00628805
0.00614253
0.00600683
0.00588008
0.00576155
0.00565052
0.00554639
0.0054486
0.00535664
0.00527006
0.00518846
0.00511146
0.00503874
0.0113809
0.0113572
0.0112906
0.0111664
0.010984
0.0107537
0.0104904
0.0102084
0.00991919
0.00963122
0.00935017
0.00907955
0.00882138
0.00857663
0.00834557
0.00812802
0.00792353
0.00773149
0.00755121
0.00738196
0.00722302
0.00707368
0.00693327
0.00680116
0.00667675
0.00655949
0.00644887
0.00634442
0.00624572
0.00615236
0.00606398
0.00598026
0.00590089
0.0113818
0.0113708
0.0113383
0.0112723
0.0111671
0.0110237
0.0108485
0.0106497
0.0104355
0.0102131
0.00998805
0.00976448
0.00954535
0.00933265
0.00912765
0.00893106
0.00874324
0.00856427
0.00839404
0.00823233
0.00807882
0.00793317
0.00779501
0.00766393
0.00753957
0.00742153
0.00730947
0.00720303
0.00710188
0.00700572
0.00691425
0.00682721
0.00674434
0.0113822
0.0113768
0.0113611
0.0113273
0.0112692
0.0111846
0.0110744
0.0109422
0.0107927
0.0106307
0.0104607
0.0102863
0.0101104
0.00993551
0.00976319
0.0095947
0.00943091
0.00927239
0.00911949
0.00897237
0.00883111
0.00869565
0.00856591
0.00844173
0.00832294
0.00820934
0.00810073
0.0079969
0.00789763
0.00780273
0.00771197
0.00762518
0.00754216
0.0113823
0.0113794
0.0113717
0.0113547
0.0113238
0.011276
0.0112101
0.0111268
0.0110279
0.0109162
0.0107945
0.0106655
0.0105317
0.0103951
0.0102574
0.01012
0.00998405
0.00985025
0.00971925
0.0095915
0.0094673
0.00934687
0.00923031
0.00911768
0.00900899
0.0089042
0.00880326
0.00870607
0.00861255
0.00852258
0.00843605
0.00835286
0.00827287
0.0113824
0.0113805
0.0113765
0.0113679
0.0113519
0.0113259
0.0112881
0.0112379
0.0111757
0.0111025
0.0110197
0.010929
0.0108321
0.0107305
0.0106258
0.010519
0.0104112
0.0103034
0.0101961
0.01009
0.00998549
0.00988292
0.00978255
0.00968458
0.00958913
0.00949631
0.00940616
0.00931871
0.00923396
0.00915189
0.00907247
0.00899566
0.0089214
0.0113824
0.0113809
0.0113786
0.0113741
0.0113658
0.0113519
0.011331
0.0113021
0.0112646
0.0112187
0.011165
0.0111041
0.0110372
0.0109652
0.0108891
0.0108098
0.0107282
0.010645
0.010561
0.0104765
0.0103922
0.0103084
0.0102255
0.0101436
0.0100631
0.00998398
0.00990651
0.00983075
0.00975677
0.00968462
0.00961433
0.00954592
0.00947937
0.0113824
0.0113811
0.0113795
0.0113769
0.0113724
0.0113651
0.0113537
0.0113375
0.0113158
0.0112882
0.0112548
0.0112157
0.0111715
0.0111227
0.0110698
0.0110135
0.0109543
0.0108929
0.0108297
0.0107652
0.0107
0.0106342
0.0105683
0.0105025
0.010437
0.0103722
0.010308
0.0102447
0.0101824
0.0101212
0.0100611
0.0100022
0.0099446
0.0113824
0.0113812
0.0113798
0.0113781
0.0113755
0.0113714
0.0113653
0.0113563
0.011344
0.011328
0.011308
0.0112839
0.0112559
0.0112241
0.0111889
0.0111505
0.0111093
0.0110657
0.0110202
0.0109729
0.0109243
0.0108746
0.0108242
0.0107732
0.010722
0.0106706
0.0106193
0.0105682
0.0105175
0.0104672
0.0104175
0.0103684
0.01032
0.0113824
0.0113812
0.01138
0.0113786
0.0113768
0.0113744
0.0113709
0.0113659
0.011359
0.0113499
0.0113382
0.0113238
0.0113067
0.0112868
0.0112641
0.011239
0.0112114
0.0111816
0.0111499
0.0111165
0.0110816
0.0110454
0.0110081
0.0109699
0.0109311
0.0108917
0.0108519
0.010812
0.0107719
0.0107318
0.0106918
0.010652
0.0106125
0.0113824
0.0113812
0.01138
0.0113788
0.0113774
0.0113757
0.0113735
0.0113706
0.0113666
0.0113614
0.0113547
0.0113463
0.011336
0.0113238
0.0113097
0.0112937
0.0112758
0.0112561
0.0112347
0.0112117
0.0111873
0.0111616
0.0111348
0.0111069
0.0110782
0.0110487
0.0110186
0.010988
0.010957
0.0109257
0.0108942
0.0108625
0.0108308
0.0113824
0.0113812
0.01138
0.0113789
0.0113776
0.0113763
0.0113747
0.0113728
0.0113703
0.0113672
0.0113632
0.0113582
0.0113521
0.0113447
0.011336
0.0113259
0.0113143
0.0113014
0.0112871
0.0112715
0.0112546
0.0112365
0.0112174
0.0111972
0.0111761
0.0111541
0.0111315
0.0111081
0.0110842
0.0110598
0.011035
0.0110099
0.0109845
0.0113824
0.0113812
0.01138
0.0113789
0.0113777
0.0113765
0.0113752
0.0113737
0.011372
0.0113699
0.0113673
0.0113642
0.0113603
0.0113555
0.0113499
0.0113432
0.0113355
0.0113267
0.0113167
0.0113057
0.0112936
0.0112805
0.0112663
0.0112512
0.0112351
0.0112182
0.0112006
0.0111822
0.0111632
0.0111436
0.0111235
0.0111029
0.011082
0.0113824
0.0113812
0.01138
0.0113789
0.0113777
0.0113766
0.0113753
0.011374
0.0113726
0.0113709
0.0113689
0.0113665
0.0113635
0.0113599
0.0113556
0.0113504
0.0113444
0.0113375
0.0113297
0.0113208
0.011311
0.0113002
0.0112885
0.0112759
0.0112624
0.011248
0.0112329
0.0112171
0.0112006
0.0111835
0.0111658
0.0111476
0.011129
0.0113824
0.0113812
0.01138
0.0113789
0.0113777
0.0113765
0.0113753
0.011374
0.0113725
0.0113707
0.0113686
0.0113661
0.011363
0.0113593
0.0113548
0.0113496
0.0113434
0.0113364
0.0113284
0.0113194
0.0113095
0.0112986
0.0112868
0.0112741
0.0112606
0.0112462
0.0112311
0.0112152
0.0111987
0.0111816
0.011164
0.0111458
0.0111272
0.0113824
0.0113812
0.01138
0.0113789
0.0113777
0.0113764
0.011375
0.0113734
0.0113715
0.0113691
0.0113662
0.0113626
0.0113583
0.011353
0.0113468
0.0113395
0.0113312
0.0113218
0.0113113
0.0112998
0.0112872
0.0112735
0.0112589
0.0112434
0.0112271
0.0112099
0.011192
0.0111734
0.0111542
0.0111344
0.0111142
0.0110935
0.0110725
0.0113824
0.0113812
0.01138
0.0113788
0.0113775
0.011376
0.0113742
0.0113718
0.0113688
0.0113648
0.0113599
0.0113537
0.0113462
0.0113373
0.011327
0.0113153
0.0113021
0.0112875
0.0112715
0.0112543
0.0112359
0.0112164
0.0111959
0.0111744
0.0111521
0.011129
0.0111053
0.011081
0.0110562
0.011031
0.0110054
0.0109795
0.0109535
0.0113824
0.0113812
0.01138
0.0113787
0.011377
0.0113748
0.0113718
0.0113676
0.0113618
0.0113543
0.0113449
0.0113333
0.0113196
0.0113037
0.0112857
0.0112656
0.0112436
0.0112198
0.0111944
0.0111675
0.0111393
0.01111
0.0110797
0.0110486
0.0110167
0.0109843
0.0109514
0.0109182
0.0108847
0.010851
0.0108173
0.0107836
0.0107499
0.0113824
0.0113813
0.0113799
0.0113781
0.0113755
0.0113714
0.0113652
0.0113564
0.0113446
0.0113295
0.0113109
0.0112888
0.0112634
0.0112347
0.0112031
0.0111689
0.0111323
0.0110938
0.0110535
0.0110117
0.0109688
0.010925
0.0108805
0.0108355
0.0107902
0.0107447
0.0106992
0.0106538
0.0106086
0.0105637
0.0105192
0.0104751
0.0104314
0.0113825
0.0113812
0.0113794
0.0113761
0.0113704
0.0113611
0.0113472
0.0113279
0.0113028
0.011272
0.0112356
0.011194
0.0111477
0.0110974
0.0110436
0.0109871
0.0109282
0.0108677
0.0108058
0.0107431
0.0106799
0.0106166
0.0105533
0.0104902
0.0104277
0.0103658
0.0103047
0.0102444
0.0101851
0.0101268
0.0100696
0.0100135
0.00995844
0.0113825
0.0113808
0.011377
0.0113691
0.0113545
0.0113315
0.0112988
0.011256
0.0112036
0.0111424
0.0110735
0.0109982
0.0109178
0.0108335
0.0107465
0.0106576
0.0105676
0.0104773
0.0103873
0.0102978
0.0102094
0.0101224
0.0100368
0.00995292
0.00987086
0.0097907
0.00971249
0.00963628
0.00956206
0.00948985
0.00941962
0.00935134
0.00928499
0.0113825
0.0113787
0.0113679
0.0113447
0.0113054
0.011248
0.0111728
0.0110816
0.0109771
0.0108621
0.0107396
0.0106119
0.0104814
0.0103497
0.0102183
0.0100882
0.00996015
0.00983484
0.00971263
0.00959381
0.00947855
0.00936695
0.00925902
0.00915477
0.00905414
0.00895706
0.00886344
0.00877318
0.00868617
0.0086023
0.00852145
0.0084435
0.00836834
0.011382
0.0113691
0.0113325
0.0112633
0.0111587
0.0110222
0.0108601
0.0106799
0.0104883
0.010291
0.0100925
0.00989597
0.00970363
0.00951703
0.00933709
0.00916431
0.0089989
0.00884088
0.00869011
0.00854639
0.00840945
0.008279
0.00815471
0.00803628
0.00792339
0.00781573
0.00771302
0.00761498
0.00752133
0.00743184
0.00734625
0.00726437
0.00718597
0.0113786
0.0113249
0.0111997
0.0110009
0.0107442
0.0104511
0.0101407
0.00982717
0.00952002
0.00922488
0.00894479
0.00868112
0.00843415
0.00820345
0.00798818
0.00778733
0.00759987
0.00742475
0.00726098
0.00710765
0.00696389
0.00682892
0.00670204
0.00658259
0.00646999
0.00636371
0.00626326
0.0061682
0.00607815
0.00599273
0.00591162
0.00583451
0.00576115
0.0113536
0.011126
0.0107259
0.0102229
0.00968832
0.00916705
0.00868064
0.00823688
0.00783646
0.00747677
0.00715407
0.00686443
0.00660376
0.00636828
0.00615476
0.00596041
0.00578287
0.00562012
0.00547044
0.00533237
0.00520464
0.00508615
0.00497596
0.00487325
0.0047773
0.00468748
0.00460324
0.00452407
0.00444956
0.00437931
0.00431297
0.00425024
0.00419083
0.0111683
0.0102731
0.00924316
0.00829367
0.00748992
0.00682636
0.00627847
0.00582284
0.00544041
0.00511624
0.00483928
0.00459995
0.00439098
0.00420686
0.00404337
0.00389717
0.00376565
0.00364667
0.00353852
0.00343977
0.00334924
0.00326594
0.00318905
0.00311784
0.00305171
0.00299014
0.00293267
0.0028789
0.0028285
0.00278116
0.0027366
0.0026946
0.00265494
0.00982659
0.0072389
0.00577405
0.00486951
0.00424873
0.00378755
0.00342701
0.00314024
0.00290887
0.00271813
0.00255776
0.00242093
0.00230279
0.00219976
0.00210909
0.00202868
0.00195686
0.0018923
0.00183394
0.00178091
0.0017325
0.00168811
0.00164725
0.0016095
0.00157452
0.001542
0.00151169
0.00148337
0.00145683
0.00143192
0.00140849
0.0013864
0.00136554
0.00414167
0.00254161
0.00204418
0.00174836
0.00154034
0.00137827
0.00124767
0.00114134
0.00105377
0.000980909
0.000919644
0.000867562
0.000822822
0.000784021
0.00075008
0.000720163
0.000693612
0.000669905
0.000648619
0.000629414
0.000612008
0.00059617
0.000581704
0.000568447
0.000556261
0.000545027
0.000534644
0.000525022
0.000516087
0.000507772
0.000500017
0.000492773
0.000485987
0.000119434
0.000124352
0.000129424
0.000134072
0.000138235
0.000142037
0.000145562
0.000148849
0.000151924
0.000154806
0.000157512
0.000160054
0.000162444
0.000164691
0.000166805
0.000168794
0.000170666
0.000172429
0.000174087
0.000175649
0.000177119
0.000178503
0.000179806
0.000181034
0.00018219
0.000183279
0.000184304
0.00018527
0.000186181
0.000187038
0.000187846
0.000188607
0.000189325
6.59807e-05
7.80401e-05
9.77783e-05
0.000124042
0.000155964
0.000192319
0.00023185
0.000273241
0.000315144
0.000356344
0.000395945
0.000433476
0.000468879
0.000502406
0.000534471
0.00056552
0.000595932
0.000625974
0.000655797
0.000685455
0.000714953
0.000744275
0.000773414
0.000802383
0.000831218
0.000859964
0.000888675
0.000917401
0.000946185
0.000975059
0.00100405
0.00103318
0.00106245
0.00109188
0.00112147
0.00115124
0.00118118
0.00121131
0.00124165
0.0012722
0.00130301
0.00133409
0.00136551
0.0013973
0.00142954
0.00146231
0.00149571
0.00152984
0.00156484
0.00160084
0.00163803
0.00167656
0.00171665
0.00175851
0.00180236
0.00184844
0.001897
0.00194827
0.0020025
0.00205991
0.0021207
0.00218503
0.00225306
0.00232485
0.00240047
0.00247988
0.00256302
0.00264976
0.00273991
0.00283326
0.00292952
0.00302839
0.00312952
0.00323256
0.0033371
0.00344277
0.00354915
0.00365585
0.00376245
0.00386857
0.00397383
0.00407784
0.00418025
0.00428074
0.00437899
0.0044747
0.00456763
0.00465753
0.0047442
0.00482746
0.00490715
0.00498316
0.00505539
0.00512375
0.00518826
0.00524875
0.00530558
0.00535825
0.00540642
0.00547068
0.000121854
0.000121644
0.000123432
0.000128346
0.000136153
0.000146884
0.000160645
0.000177543
0.000197628
0.000220885
0.000247207
0.000276364
0.000307997
0.000341629
0.000376703
0.000412624
0.000448827
0.000484825
0.000520262
0.000554924
0.000588732
0.000621716
0.000653969
0.000685618
0.000716787
0.000747589
0.00077812
0.000808457
0.000838665
0.0008688
0.000898914
0.000929051
0.000959253
0.000989556
0.00101999
0.0010506
0.0010814
0.00111242
0.00114371
0.00117528
0.0012072
0.00123949
0.00127222
0.00130546
0.00133928
0.00137379
0.00140907
0.00144527
0.00148251
0.00152096
0.00156079
0.0016022
0.00164538
0.00169056
0.00173797
0.00178784
0.00184041
0.00189591
0.00195455
0.00201651
0.00208197
0.00215105
0.00222382
0.00230031
0.00238049
0.0024643
0.0025516
0.0026422
0.00273588
0.00283237
0.00293139
0.0030326
0.00313567
0.00324026
0.00334599
0.00345252
0.00355947
0.0036665
0.00377325
0.00387936
0.00398452
0.00408838
0.00419063
0.00429098
0.00438914
0.00448484
0.00457785
0.00466794
0.00475492
0.0048386
0.00491884
0.0049955
0.0050685
0.00513773
0.0052032
0.00526475
0.0053227
0.00537659
0.00542588
0.00549197
0.000240029
0.000235395
0.00023056
0.000226109
0.000222655
0.000220697
0.000220432
0.000221996
0.000225633
0.000231632
0.000240273
0.000251797
0.00026636
0.000284016
0.0003047
0.000328232
0.000354333
0.000382645
0.00041276
0.000444252
0.000476702
0.000509728
0.000543007
0.000576286
0.000609388
0.000642214
0.000674723
0.000706927
0.000738868
0.000770604
0.000802203
0.000833731
0.000865251
0.000896824
0.000928504
0.000960343
0.000992394
0.00102471
0.00105734
0.00109034
0.00112377
0.00115771
0.00119222
0.0012274
0.00126333
0.00130014
0.00133794
0.00137687
0.00141709
0.00145878
0.00150211
0.00154729
0.00159453
0.00164404
0.00169606
0.00175078
0.00180844
0.0018692
0.00193326
0.00200073
0.00207171
0.00214627
0.00222439
0.00230603
0.00239109
0.00247941
0.00257081
0.00266505
0.00276185
0.00286095
0.00296201
0.00306474
0.0031688
0.00327389
0.00337968
0.00348587
0.00359215
0.00369822
0.0038038
0.0039086
0.00401235
0.00411478
0.00421561
0.0043146
0.0044115
0.00450607
0.00459809
0.00468736
0.00477368
0.00485689
0.00493684
0.00501338
0.00508643
0.00515586
0.00522168
0.00528371
0.00534226
0.00539688
0.00544687
0.00551421
0.000435142
0.000426885
0.000418769
0.000410889
0.000403373
0.000396314
0.000389783
0.000383876
0.00037867
0.000374218
0.00037064
0.000368142
0.000367012
0.000367603
0.000370298
0.000375464
0.000383403
0.000394312
0.000408256
0.000425171
0.000444875
0.000467099
0.00049152
0.000517793
0.000545578
0.00057456
0.000604463
0.000635058
0.000666166
0.000697655
0.000729438
0.000761467
0.000793723
0.000826213
0.000858962
0.000892009
0.000925401
0.000959195
0.000993454
0.00102825
0.00106365
0.00109975
0.00113663
0.00117442
0.00121321
0.00125313
0.00129434
0.00133698
0.00138122
0.00142724
0.00147523
0.00152538
0.00157789
0.00163296
0.00169079
0.00175154
0.00181537
0.00188242
0.00195278
0.00202649
0.00210358
0.002184
0.00226767
0.00235445
0.00244416
0.00253659
0.00263149
0.00272857
0.00282756
0.00292815
0.00303003
0.00313293
0.00323655
0.00334062
0.00344489
0.00354911
0.00365305
0.0037565
0.00385924
0.00396106
0.00406177
0.00416114
0.00425899
0.00435511
0.00444929
0.00454133
0.00463105
0.00471824
0.00480274
0.00488438
0.004963
0.00503846
0.00511067
0.00517948
0.00524489
0.00530672
0.00536523
0.00542
0.00547016
0.00553805
0.00069163
0.000679382
0.000667505
0.000656147
0.000645395
0.000635237
0.000625622
0.00061649
0.00060783
0.000599594
0.000591731
0.000584216
0.000577068
0.000570362
0.000564236
0.000558892
0.000554591
0.000551644
0.000550389
0.00055116
0.00055426
0.000559925
0.000568306
0.00057946
0.00059335
0.000609861
0.000628817
0.000650008
0.000673209
0.000698194
0.000724756
0.000752711
0.000781905
0.000812216
0.000843554
0.000875859
0.000909098
0.000943264
0.000978375
0.00101446
0.00105159
0.00108981
0.00112923
0.00116994
0.00121205
0.00125569
0.001301
0.00134814
0.00139725
0.00144851
0.00150207
0.00155811
0.00161679
0.00167825
0.00174262
0.00181002
0.00188051
0.00195415
0.00203093
0.00211083
0.00219374
0.00227955
0.00236808
0.00245912
0.00255243
0.00264774
0.00274476
0.00284319
0.00294273
0.00304309
0.003144
0.0032452
0.00334645
0.00344755
0.0035483
0.00364855
0.00374814
0.00384695
0.00394484
0.0040417
0.0041374
0.00423182
0.00432483
0.00441627
0.004506
0.00459386
0.00467968
0.00476331
0.00484457
0.00492331
0.00499937
0.00507261
0.0051429
0.00521011
0.0052742
0.00533498
0.00539267
0.00544688
0.00549658
0.00556419
0.00102159
0.00100379
0.000986635
0.000970274
0.000954807
0.000940231
0.000926487
0.000913486
0.000901148
0.0008894
0.000878162
0.000867366
0.000856968
0.000846951
0.000837327
0.00082814
0.000819465
0.000811411
0.000804121
0.00079777
0.000792562
0.000788721
0.000786484
0.000786083
0.000787736
0.000791628
0.000797905
0.000806663
0.000817948
0.00083176
0.000848057
0.000866769
0.000887806
0.00091107
0.00093646
0.000963885
0.000993268
0.00102455
0.00105768
0.00109264
0.00112944
0.00116808
0.00120862
0.00125111
0.00129562
0.00134223
0.00139106
0.0014422
0.00149577
0.00155188
0.00161065
0.00167217
0.00173653
0.00180382
0.00187407
0.00194731
0.00202352
0.00210265
0.00218461
0.00226928
0.00235648
0.002446
0.00253761
0.00263103
0.00272597
0.00282212
0.00291917
0.00301681
0.00311475
0.00321271
0.00331045
0.00340775
0.00350443
0.00360034
0.00369537
0.00378943
0.00388247
0.00397443
0.00406529
0.00415502
0.00424359
0.00433094
0.00441704
0.0045018
0.00458513
0.00466693
0.00474707
0.00482541
0.00490181
0.00497611
0.00504817
0.00511783
0.00518496
0.0052494
0.00531108
0.00536982
0.00542577
0.00547858
0.00552706
0.00559338
0.00144362
0.00141786
0.00139316
0.0013696
0.00134729
0.0013262
0.0013063
0.00128748
0.00126964
0.00125271
0.0012366
0.00122122
0.00120653
0.0011925
0.00117912
0.00116642
0.00115441
0.00114315
0.00113271
0.00112315
0.00111457
0.00110707
0.00110076
0.00109576
0.00109222
0.00109029
0.00109011
0.00109183
0.00109561
0.00110156
0.00110983
0.00112049
0.00113363
0.00114931
0.00116757
0.00118843
0.0012119
0.00123798
0.00126668
0.00129801
0.00133195
0.00136853
0.00140776
0.00144967
0.0014943
0.00154168
0.00159186
0.0016449
0.00170084
0.00175972
0.00182159
0.00188647
0.00195436
0.00202525
0.00209911
0.00217586
0.00225539
0.00233758
0.00242224
0.00250918
0.00259813
0.00268884
0.002781
0.00287428
0.00296837
0.00306293
0.00315762
0.00325213
0.00334617
0.00343949
0.00353186
0.00362309
0.00371306
0.00380166
0.00388886
0.00397464
0.00405902
0.00414204
0.00422376
0.00430424
0.00438355
0.00446174
0.00453883
0.00461484
0.00468974
0.00476349
0.00483602
0.00490722
0.00497697
0.00504514
0.00511159
0.00517615
0.00523868
0.00529902
0.00535707
0.00541261
0.00546576
0.00551618
0.00556258
0.00562643
0.00196957
0.00193327
0.00189853
0.00186539
0.0018339
0.00180405
0.00177576
0.00174895
0.00172351
0.00169935
0.00167638
0.00165452
0.00163371
0.00161393
0.00159517
0.00157744
0.00156078
0.00154523
0.00153083
0.00151765
0.00150574
0.00149516
0.00148597
0.00147824
0.00147204
0.00146742
0.00146448
0.00146331
0.00146398
0.0014666
0.00147128
0.00147813
0.00148725
0.00149875
0.00151275
0.00152933
0.0015486
0.00157062
0.00159549
0.00162327
0.00165402
0.00168779
0.00172463
0.00176459
0.0018077
0.00185401
0.00190352
0.00195627
0.00201226
0.00207148
0.00213392
0.00219954
0.00226828
0.00234005
0.00241475
0.00249222
0.00257229
0.00265475
0.00273936
0.00282585
0.0029139
0.00300321
0.0030934
0.00318414
0.00327505
0.00336577
0.00345596
0.0035453
0.00363349
0.00372027
0.00380546
0.00388888
0.00397042
0.00405005
0.00412776
0.0042036
0.00427764
0.00435002
0.00442087
0.00449034
0.00455859
0.00462577
0.00469198
0.00475734
0.00482189
0.00488568
0.0049487
0.00501088
0.00507216
0.00513243
0.00519156
0.0052494
0.00530579
0.00536057
0.0054136
0.00546466
0.00551382
0.00556074
0.00560407
0.00566412
0.0025999
0.00255101
0.0025042
0.00245947
0.00241683
0.00237625
0.00233765
0.00230093
0.002266
0.00223276
0.0022011
0.00217095
0.00214226
0.00211498
0.00208912
0.00206469
0.00204171
0.00202024
0.00200033
0.00198204
0.00196541
0.00195052
0.00193739
0.00192609
0.00191666
0.00190913
0.00190355
0.00189996
0.0018984
0.00189893
0.0019016
0.00190648
0.00191364
0.00192316
0.00193513
0.00194963
0.00196678
0.00198665
0.00200935
0.00203496
0.00206358
0.00209529
0.00213015
0.00216824
0.0022096
0.00225428
0.00230231
0.00235369
0.00240842
0.00246647
0.0025278
0.00259233
0.00265996
0.00273057
0.00280398
0.00288001
0.00295842
0.00303897
0.00312136
0.00320526
0.00329034
0.00337622
0.00346252
0.00354885
0.00363482
0.00372006
0.00380419
0.0038869
0.00396787
0.00404687
0.00412368
0.00419816
0.00427022
0.00433984
0.00440705
0.00447193
0.00453462
0.0045953
0.00465417
0.00471145
0.00476739
0.00482221
0.00487613
0.00492934
0.00498199
0.0050342
0.00508604
0.00513752
0.00518863
0.00523931
0.00528945
0.00533893
0.00538761
0.00543531
0.00548188
0.0055271
0.00557098
0.00561318
0.00565235
0.00570711
0.00332328
0.0032608
0.00320086
0.00314343
0.00308848
0.00303598
0.00298584
0.00293796
0.00289225
0.00284861
0.00280695
0.00276718
0.00272925
0.00269312
0.00265879
0.00262628
0.0025956
0.00256681
0.00253996
0.00251512
0.00249233
0.00247166
0.00245316
0.00243688
0.00242286
0.00241113
0.00240172
0.00239465
0.00238995
0.00238764
0.00238776
0.00239032
0.00239538
0.00240297
0.00241314
0.00242595
0.00244147
0.00245976
0.0024809
0.00250496
0.00253201
0.00256214
0.0025954
0.00263186
0.00267156
0.00271455
0.00276084
0.00281043
0.00286332
0.00291947
0.00297879
0.00304121
0.00310659
0.00317479
0.0032456
0.00331881
0.00339416
0.00347135
0.00355007
0.00362997
0.00371066
0.00379177
0.00387287
0.00395357
0.00403346
0.00411214
0.00418925
0.00426444
0.00433741
0.00440791
0.00447574
0.00454075
0.00460287
0.00466208
0.00471842
0.00477201
0.00482299
0.0048716
0.00491806
0.00496268
0.00500574
0.00504755
0.00508841
0.00512858
0.00516832
0.00520783
0.00524726
0.00528673
0.00532628
0.00536593
0.00540561
0.00544526
0.00548474
0.0055239
0.0055626
0.00560061
0.00563788
0.0056741
0.00570799
0.00575586
0.00411872
0.00404298
0.00397008
0.00390001
0.00383271
0.00376813
0.00370619
0.00364681
0.0035899
0.00353537
0.00348314
0.00343313
0.00338528
0.00333958
0.00329601
0.00325458
0.00321532
0.00317829
0.00314352
0.0031111
0.00308107
0.00305349
0.00302844
0.00300594
0.00298606
0.00296882
0.00295426
0.0029424
0.00293325
0.00292683
0.00292315
0.00292224
0.0029241
0.00292875
0.00293622
0.00294653
0.00295972
0.00297583
0.00299489
0.00301696
0.00304207
0.00307027
0.0031016
0.0031361
0.00317381
0.00321472
0.00325886
0.0033062
0.00335671
0.00341033
0.00346698
0.00352654
0.00358887
0.00365379
0.00372109
0.00379053
0.00386183
0.00393468
0.00400874
0.00408363
0.00415898
0.00423438
0.0043094
0.00438364
0.00445669
0.00452813
0.00459761
0.00466478
0.00472933
0.00479102
0.00484965
0.00490507
0.0049572
0.00500603
0.00505161
0.00509405
0.00513352
0.00517025
0.00520451
0.00523661
0.00526689
0.0052957
0.0053234
0.00535032
0.0053768
0.00540312
0.00542952
0.00545621
0.00548331
0.00551091
0.00553904
0.00556767
0.00559673
0.0056261
0.00565564
0.00568515
0.00571456
0.00574357
0.00577107
0.00581045
0.00495879
0.00487147
0.00478711
0.00470568
0.00462714
0.00455145
0.00447853
0.00440833
0.00434078
0.0042758
0.00421331
0.00415328
0.00409564
0.00404038
0.0039875
0.003937
0.00388894
0.00384334
0.00380027
0.00375979
0.00372196
0.00368685
0.00365453
0.00362503
0.00359843
0.00357475
0.00355403
0.00353629
0.00352157
0.00350987
0.00350121
0.00349559
0.00349302
0.00349351
0.00349706
0.00350368
0.0035134
0.0035262
0.00354212
0.00356117
0.00358336
0.00360872
0.00363724
0.00366894
0.00370383
0.00374188
0.00378308
0.00382738
0.00387473
0.00392504
0.0039782
0.00403409
0.00409254
0.00415334
0.00421628
0.00428109
0.00434748
0.00441512
0.00448367
0.00455274
0.00462194
0.00469087
0.0047591
0.00482622
0.00489181
0.0049555
0.00501691
0.0050757
0.00513158
0.00518429
0.00523366
0.00527953
0.00532182
0.00536052
0.00539568
0.00542741
0.00545587
0.00548128
0.00550393
0.00552412
0.00554222
0.00555859
0.00557362
0.00558769
0.0056012
0.00561448
0.00562786
0.00564162
0.00565596
0.00567107
0.00568705
0.00570394
0.00572173
0.00574037
0.00575977
0.00577974
0.00580023
0.00582093
0.00584101
0.00587038
0.00581329
0.00571721
0.00562397
0.00553357
0.00544597
0.00536116
0.00527908
0.00519972
0.00512301
0.0050489
0.00497736
0.00490834
0.00484183
0.00477781
0.00471629
0.0046573
0.00460087
0.00454706
0.00449592
0.00444752
0.00440193
0.00435922
0.00431946
0.00428271
0.00424902
0.00421844
0.00419102
0.00416679
0.00414577
0.00412799
0.00411346
0.0041022
0.0040942
0.00408947
0.00408801
0.00408983
0.00409491
0.00410326
0.00411488
0.00412975
0.00414788
0.00416925
0.00419385
0.00422166
0.00425265
0.00428678
0.004324
0.00436425
0.00440744
0.00445345
0.00450216
0.00455342
0.00460703
0.00466278
0.00472042
0.00477968
0.00484026
0.00490181
0.00496399
0.00502641
0.00508867
0.00515038
0.00521111
0.00527047
0.00532804
0.00538346
0.00543637
0.00548644
0.00553339
0.00557699
0.00561705
0.00565343
0.00568606
0.00571492
0.00574006
0.00576157
0.00577962
0.00579442
0.00580623
0.00581536
0.00582214
0.00582696
0.00583021
0.0058323
0.00583361
0.00583456
0.00583549
0.00583676
0.00583864
0.00584138
0.00584517
0.00585012
0.00585632
0.00586376
0.0058724
0.00588215
0.00589293
0.00590448
0.00591632
0.0059344
0.00665247
0.00655123
0.0064525
0.00635629
0.00626262
0.00617147
0.00608285
0.00599674
0.00591313
0.005832
0.00575333
0.00567712
0.00560336
0.00553207
0.00546326
0.00539698
0.00533328
0.00527222
0.00521385
0.00515826
0.00510552
0.00505571
0.0050089
0.00496516
0.00492455
0.00488713
0.00485296
0.00482207
0.0047945
0.00477028
0.00474944
0.00473198
0.00471792
0.00470726
0.00470001
0.00469617
0.00469572
0.00469865
0.00470496
0.00471462
0.00472762
0.00474392
0.00476349
0.0047863
0.00481229
0.00484139
0.00487354
0.00490863
0.00494656
0.0049872
0.00503039
0.00507596
0.00512369
0.00517336
0.0052247
0.00527743
0.00533123
0.00538577
0.00544067
0.00549557
0.00555007
0.00560378
0.00565629
0.0057072
0.00575615
0.00580276
0.0058467
0.00588766
0.00592539
0.00595966
0.0059903
0.00601719
0.00604027
0.00605951
0.00607496
0.00608672