/*--------------------------------*- C++ -*----------------------------------*\
| =========                 |                                                 |
| \\      /  F ield         | OpenFOAM: The Open Source CFD Toolbox           |
|  \\    /   O peration     | Version:  4.1                                   |
|   \\  /    A nd           | Web:      www.OpenFOAM.org                      |
|    \\/     M anipulation  |                                                 |
\*---------------------------------------------------------------------------*/
FoamFile
{
    version     2.0;
    format      ascii;
    class       volScalarField;
    location    "800";
    object      p;
}
// * * * * * * * * * * * * * * * * * * * * * * * * * * * * * * * * * * * * * //

dimensions      [0 2 -2 0 0 0 0];

internalField   nonuniform List<scalar> 
6820
(
6.15768
-4.54123
-8.06786
-8.81309
-9.2057
-9.53694
-9.7253
-9.81863
-9.88152
-9.9342
-9.97726
-10.0123
-10.0425
-10.0696
-10.0945
-10.1174
-10.1388
-10.159
-10.1781
-10.1965
-10.2141
-10.2311
-10.2475
-10.2635
-10.279
-10.294
-10.3085
-10.3225
-10.3356
-10.3479
-10.3581
-10.368
-10.3643
-15.5616
-12.0143
-11.2125
-10.4081
-10.025
-9.9428
-9.92887
-9.924
-9.93601
-9.96109
-9.98919
-10.0162
-10.0421
-10.067
-10.0907
-10.1131
-10.1344
-10.1546
-10.1739
-10.1924
-10.2102
-10.2274
-10.2441
-10.2603
-10.276
-10.2913
-10.3061
-10.3205
-10.3342
-10.3473
-10.3591
-10.3716
-10.377
-13.3711
-9.86316
-9.60107
-9.59081
-9.57813
-9.66866
-9.76185
-9.82408
-9.87471
-9.92187
-9.96334
-9.99878
-10.03
-10.0582
-10.084
-10.1077
-10.1298
-10.1506
-10.1703
-10.189
-10.207
-10.2244
-10.2411
-10.2574
-10.2732
-10.2886
-10.3036
-10.3182
-10.3323
-10.3461
-10.3591
-10.3729
-10.3838
-10.9442
-9.4733
-9.62377
-9.73409
-9.7142
-9.76331
-9.82743
-9.87102
-9.90724
-9.94328
-9.97695
-10.0071
-10.0347
-10.0604
-10.0844
-10.107
-10.1283
-10.1485
-10.1678
-10.1863
-10.2042
-10.2214
-10.2382
-10.2545
-10.2704
-10.286
-10.3012
-10.3161
-10.3307
-10.3452
-10.3594
-10.3743
-10.3887
-10.4919
-9.77736
-9.81601
-9.82691
-9.77741
-9.79931
-9.8458
-9.88202
-9.91439
-9.94757
-9.97935
-10.0085
-10.0354
-10.0605
-10.0842
-10.1064
-10.1275
-10.1475
-10.1667
-10.1851
-10.2028
-10.22
-10.2367
-10.253
-10.2689
-10.2846
-10.2999
-10.315
-10.33
-10.345
-10.3601
-10.3759
-10.3922
-10.4112
-9.93152
-9.88348
-9.85749
-9.81362
-9.82691
-9.8634
-9.89544
-9.92537
-9.95603
-9.98567
-10.0132
-10.0389
-10.0632
-10.086
-10.1076
-10.1282
-10.1478
-10.1666
-10.1847
-10.2023
-10.2193
-10.2359
-10.2521
-10.268
-10.2836
-10.299
-10.3143
-10.3296
-10.345
-10.3607
-10.3772
-10.3948
-10.2883
-9.96188
-9.90759
-9.88213
-9.84891
-9.85692
-9.88477
-9.91203
-9.93879
-9.96644
-9.99361
-10.0193
-10.0437
-10.0667
-10.0887
-10.1096
-10.1296
-10.1487
-10.1672
-10.185
-10.2023
-10.2191
-10.2355
-10.2516
-10.2675
-10.2831
-10.2986
-10.314
-10.3295
-10.3452
-10.3613
-10.3782
-10.3963
-10.1793
-9.97385
-9.92915
-9.9069
-9.88102
-9.88526
-9.9062
-9.92903
-9.95265
-9.97747
-10.0023
-10.0262
-10.0491
-10.0711
-10.0921
-10.1123
-10.1316
-10.1503
-10.1683
-10.1858
-10.2028
-10.2194
-10.2356
-10.2516
-10.2673
-10.2829
-10.2983
-10.3138
-10.3294
-10.3452
-10.3616
-10.3786
-10.3968
-10.1083
-9.98463
-9.94709
-9.92719
-9.90733
-9.90979
-9.92593
-9.94524
-9.96618
-9.98854
-10.0112
-10.0334
-10.055
-10.0759
-10.096
-10.1154
-10.1341
-10.1522
-10.1698
-10.1869
-10.2036
-10.22
-10.236
-10.2518
-10.2674
-10.2828
-10.2983
-10.3137
-10.3293
-10.3452
-10.3615
-10.3785
-10.3965
-10.064
-9.99125
-9.96009
-9.94306
-9.92855
-9.93052
-9.94352
-9.96018
-9.97892
-9.99918
-10.02
-10.0407
-10.061
-10.0808
-10.1
-10.1187
-10.1368
-10.1544
-10.1716
-10.1883
-10.2047
-10.2207
-10.2365
-10.2521
-10.2675
-10.2829
-10.2982
-10.3135
-10.3291
-10.3449
-10.3611
-10.3779
-10.3954
-10.0363
-9.9946
-9.9699
-9.95604
-9.94588
-9.94796
-9.95891
-9.97361
-9.99055
-10.0091
-10.0283
-10.0476
-10.0668
-10.0856
-10.104
-10.122
-10.1395
-10.1566
-10.1733
-10.1896
-10.2057
-10.2215
-10.237
-10.2524
-10.2676
-10.2828
-10.2979
-10.3132
-10.3285
-10.3442
-10.3601
-10.3765
-10.3935
-10.0197
-9.99668
-9.97797
-9.9671
-9.96029
-9.9627
-9.9723
-9.9855
-10.001
-10.018
-10.0359
-10.054
-10.0721
-10.0901
-10.1077
-10.125
-10.142
-10.1586
-10.1748
-10.1908
-10.2066
-10.222
-10.2373
-10.2525
-10.2675
-10.2825
-10.2974
-10.3125
-10.3276
-10.343
-10.3586
-10.3746
-10.3909
-10.0109
-9.99864
-9.98501
-9.9768
-9.97253
-9.97532
-9.98397
-9.996
-10.0103
-10.026
-10.0427
-10.0598
-10.077
-10.0941
-10.111
-10.1277
-10.1441
-10.1603
-10.1761
-10.1918
-10.2071
-10.2223
-10.2374
-10.2522
-10.267
-10.2818
-10.2965
-10.3113
-10.3262
-10.3412
-10.3564
-10.3719
-10.3876
-10.0071
-10.001
-9.99142
-9.98551
-9.98316
-9.98629
-9.99424
-10.0053
-10.0185
-10.0332
-10.0488
-10.0649
-10.0812
-10.0976
-10.1139
-10.13
-10.1459
-10.1616
-10.177
-10.1923
-10.2074
-10.2223
-10.237
-10.2516
-10.2662
-10.2806
-10.2951
-10.3096
-10.3241
-10.3388
-10.3535
-10.3684
-10.3835
-10.0067
-10.0039
-9.99746
-9.99346
-9.99257
-9.99599
-10.0034
-10.0136
-10.0259
-10.0396
-10.0542
-10.0695
-10.085
-10.1006
-10.1162
-10.1318
-10.1472
-10.1624
-10.1775
-10.1924
-10.2072
-10.2217
-10.2362
-10.2505
-10.2648
-10.279
-10.2931
-10.3073
-10.3215
-10.3357
-10.3499
-10.3643
-10.3787
-10.0085
-10.0074
-10.0033
-10.0008
-10.001
-10.0047
-10.0116
-10.0211
-10.0325
-10.0453
-10.0591
-10.0734
-10.0882
-10.1032
-10.1182
-10.1332
-10.1481
-10.1629
-10.1776
-10.1921
-10.2065
-10.2208
-10.2349
-10.2489
-10.2629
-10.2768
-10.2906
-10.3044
-10.3181
-10.3319
-10.3457
-10.3594
-10.3731
-10.0116
-10.0113
-10.0089
-10.0077
-10.0087
-10.0125
-10.0191
-10.0279
-10.0385
-10.0504
-10.0634
-10.077
-10.091
-10.1053
-10.1197
-10.1341
-10.1486
-10.1629
-10.1772
-10.1914
-10.2054
-10.2193
-10.2331
-10.2468
-10.2605
-10.274
-10.2875
-10.3008
-10.3142
-10.3275
-10.3407
-10.3539
-10.367
-10.0156
-10.0157
-10.0145
-10.0142
-10.0157
-10.0196
-10.0258
-10.0341
-10.0439
-10.0551
-10.0672
-10.08
-10.0934
-10.107
-10.1208
-10.1347
-10.1486
-10.1626
-10.1764
-10.1902
-10.2039
-10.2174
-10.2309
-10.2443
-10.2575
-10.2707
-10.2838
-10.2967
-10.3096
-10.3224
-10.3351
-10.3477
-10.3602
-10.0202
-10.0204
-10.0199
-10.0203
-10.0222
-10.0261
-10.032
-10.0397
-10.0488
-10.0593
-10.0706
-10.0827
-10.0953
-10.1083
-10.1216
-10.1349
-10.1484
-10.1618
-10.1753
-10.1886
-10.2019
-10.2151
-10.2282
-10.2412
-10.2541
-10.2669
-10.2796
-10.2921
-10.3045
-10.3169
-10.329
-10.341
-10.3529
-10.025
-10.0252
-10.0252
-10.026
-10.0282
-10.032
-10.0376
-10.0447
-10.0532
-10.063
-10.0736
-10.085
-10.097
-10.1093
-10.122
-10.1348
-10.1478
-10.1608
-10.1738
-10.1867
-10.1996
-10.2124
-10.2252
-10.2378
-10.2503
-10.2626
-10.2749
-10.287
-10.299
-10.3108
-10.3224
-10.3338
-10.3451
-10.0299
-10.0301
-10.0305
-10.0315
-10.0338
-10.0374
-10.0426
-10.0492
-10.0572
-10.0662
-10.0762
-10.0869
-10.0982
-10.11
-10.1221
-10.1344
-10.1468
-10.1594
-10.1719
-10.1845
-10.197
-10.2094
-10.2217
-10.2339
-10.246
-10.258
-10.2698
-10.2815
-10.293
-10.3043
-10.3154
-10.3263
-10.3369
-10.0349
-10.0351
-10.0356
-10.0367
-10.0389
-10.0423
-10.0471
-10.0532
-10.0606
-10.069
-10.0783
-10.0884
-10.0991
-10.1103
-10.1218
-10.1336
-10.1456
-10.1577
-10.1698
-10.1819
-10.194
-10.206
-10.2179
-10.2298
-10.2414
-10.253
-10.2644
-10.2756
-10.2866
-10.2974
-10.308
-10.3183
-10.3284
-10.0399
-10.0401
-10.0406
-10.0416
-10.0436
-10.0467
-10.0511
-10.0567
-10.0634
-10.0713
-10.08
-10.0895
-10.0996
-10.1102
-10.1212
-10.1325
-10.144
-10.1556
-10.1673
-10.179
-10.1907
-10.2023
-10.2139
-10.2253
-10.2366
-10.2477
-10.2586
-10.2694
-10.2799
-10.2902
-10.3003
-10.3101
-10.3197
-10.0449
-10.045
-10.0454
-10.0463
-10.048
-10.0507
-10.0546
-10.0596
-10.0658
-10.073
-10.0811
-10.09
-10.0996
-10.1097
-10.1202
-10.1311
-10.1421
-10.1533
-10.1646
-10.1759
-10.1872
-10.1984
-10.2095
-10.2205
-10.2314
-10.2421
-10.2526
-10.2629
-10.2729
-10.2828
-10.2924
-10.3017
-10.3107
-10.0499
-10.05
-10.0502
-10.0508
-10.052
-10.0542
-10.0575
-10.062
-10.0675
-10.0742
-10.0817
-10.0901
-10.0991
-10.1088
-10.1188
-10.1292
-10.1398
-10.1506
-10.1615
-10.1724
-10.1833
-10.1941
-10.2049
-10.2155
-10.2259
-10.2362
-10.2463
-10.2562
-10.2658
-10.2751
-10.2842
-10.2931
-10.3016
-10.055
-10.0551
-10.055
-10.055
-10.0557
-10.0572
-10.0599
-10.0637
-10.0686
-10.0747
-10.0817
-10.0896
-10.0981
-10.1073
-10.1169
-10.1269
-10.1371
-10.1475
-10.158
-10.1686
-10.1791
-10.1896
-10.2
-10.2102
-10.2203
-10.2301
-10.2398
-10.2492
-10.2584
-10.2673
-10.276
-10.2843
-10.2923
-10.0602
-10.0603
-10.0597
-10.0591
-10.0589
-10.0597
-10.0616
-10.0647
-10.069
-10.0745
-10.081
-10.0884
-10.0965
-10.1052
-10.1145
-10.1241
-10.134
-10.144
-10.1542
-10.1644
-10.1746
-10.1847
-10.1948
-10.2046
-10.2143
-10.2238
-10.2331
-10.2421
-10.2509
-10.2594
-10.2675
-10.2754
-10.283
-10.0659
-10.0659
-10.0647
-10.063
-10.0618
-10.0616
-10.0627
-10.065
-10.0687
-10.0735
-10.0795
-10.0865
-10.0942
-10.1026
-10.1115
-10.1208
-10.1303
-10.1401
-10.15
-10.1599
-10.1698
-10.1796
-10.1893
-10.1988
-10.2081
-10.2173
-10.2262
-10.2348
-10.2432
-10.2512
-10.259
-10.2665
-10.2736
-10.0721
-10.0721
-10.0699
-10.0668
-10.0643
-10.0629
-10.0629
-10.0644
-10.0674
-10.0717
-10.0772
-10.0837
-10.0911
-10.0992
-10.1078
-10.1168
-10.1261
-10.1357
-10.1453
-10.1549
-10.1645
-10.174
-10.1834
-10.1927
-10.2017
-10.2105
-10.219
-10.2273
-10.2353
-10.243
-10.2503
-10.2574
-10.2641
-10.0794
-10.0793
-10.0756
-10.0705
-10.0662
-10.0634
-10.0621
-10.0627
-10.065
-10.0687
-10.0738
-10.08
-10.0871
-10.095
-10.1034
-10.1122
-10.1213
-10.1306
-10.14
-10.1494
-10.1588
-10.1681
-10.1772
-10.1861
-10.1949
-10.2034
-10.2116
-10.2195
-10.2272
-10.2345
-10.2415
-10.2482
-10.2545
-10.0886
-10.0882
-10.082
-10.0741
-10.0675
-10.0628
-10.0602
-10.0597
-10.0612
-10.0645
-10.0693
-10.0752
-10.0821
-10.0898
-10.0981
-10.1067
-10.1157
-10.1249
-10.1341
-10.1433
-10.1525
-10.1616
-10.1705
-10.1792
-10.1877
-10.1959
-10.2038
-10.2115
-10.2188
-10.2258
-10.2325
-10.2388
-10.2448
-10.1011
-10.0998
-10.0896
-10.0776
-10.0679
-10.0608
-10.0566
-10.055
-10.0559
-10.0587
-10.0632
-10.069
-10.0758
-10.0834
-10.0916
-10.1002
-10.1091
-10.1182
-10.1273
-10.1364
-10.1455
-10.1544
-10.1631
-10.1716
-10.1799
-10.1879
-10.1956
-10.203
-10.21
-10.2168
-10.2232
-10.2292
-10.2349
-10.1193
-10.1156
-10.0984
-10.0804
-10.0668
-10.0569
-10.0508
-10.0482
-10.0485
-10.0509
-10.0553
-10.061
-10.0678
-10.0755
-10.0837
-10.0923
-10.1013
-10.1103
-10.1194
-10.1285
-10.1375
-10.1463
-10.1549
-10.1633
-10.1714
-10.1792
-10.1868
-10.194
-10.2008
-10.2073
-10.2135
-10.2193
-10.2248
-10.1497
-10.1384
-10.1079
-10.0811
-10.0626
-10.0496
-10.0417
-10.0382
-10.0381
-10.0404
-10.0447
-10.0506
-10.0576
-10.0653
-10.0737
-10.0825
-10.0915
-10.1007
-10.1099
-10.119
-10.128
-10.1368
-10.1454
-10.1537
-10.1618
-10.1696
-10.177
-10.1841
-10.1909
-10.1973
-10.2033
-10.209
-10.2143
-10.2046
-10.1763
-10.1212
-10.0804
-10.0542
-10.0365
-10.0266
-10.0227
-10.0226
-10.0253
-10.0303
-10.0369
-10.0445
-10.053
-10.0619
-10.0712
-10.0807
-10.0902
-10.0996
-10.1089
-10.1181
-10.127
-10.1357
-10.144
-10.1521
-10.1598
-10.1672
-10.1742
-10.1809
-10.1872
-10.1931
-10.1986
-10.2038
-10.2877
-10.2246
-10.14
-10.0865
-10.0478
-10.0197
-10.0046
-9.99806
-9.9963
-9.99821
-10.0031
-10.0102
-10.0187
-10.0281
-10.0382
-10.0486
-10.0592
-10.0698
-10.0804
-10.0907
-10.1008
-10.1106
-10.1201
-10.1292
-10.138
-10.1463
-10.1542
-10.1618
-10.1689
-10.1755
-10.1818
-10.1876
-10.193
-10.4379
-10.2044
-10.075
-10.0617
-10.0469
-10.0294
-10.0235
-10.0231
-10.0233
-10.0248
-10.0281
-10.0327
-10.0383
-10.0447
-10.0518
-10.0595
-10.0675
-10.0757
-10.0841
-10.0925
-10.1008
-10.109
-10.1171
-10.125
-10.1326
-10.14
-10.1471
-10.1538
-10.1602
-10.1663
-10.172
-10.1774
-10.1825
-11.3942
-10.171
-9.58066
-9.50138
-9.51452
-9.55213
-9.60764
-9.66358
-9.71425
-9.76093
-9.80392
-9.84274
-9.87748
-9.90863
-9.93669
-9.96202
-9.98496
-10.0058
-10.0248
-10.0422
-10.0582
-10.073
-10.0865
-10.0991
-10.1107
-10.1215
-10.1314
-10.1406
-10.1491
-10.157
-10.1642
-10.1707
-10.1766
-15.1633
-12.9604
-11.9292
-11.2929
-10.8658
-10.615
-10.4531
-10.33
-10.2377
-10.1734
-10.1298
-10.1003
-10.0809
-10.0692
-10.0632
-10.0613
-10.0624
-10.0658
-10.0706
-10.0766
-10.0833
-10.0905
-10.098
-10.1055
-10.113
-10.1205
-10.1277
-10.1347
-10.1414
-10.1479
-10.154
-10.1598
-10.1654
-1.24958
-5.34224
-7.46605
-8.23857
-8.6774
-9.04112
-9.30728
-9.48353
-9.60761
-9.7035
-9.77901
-9.83799
-9.88473
-9.9229
-9.95484
-9.98198
-10.0054
-10.0258
-10.044
-10.0602
-10.0749
-10.0883
-10.1005
-10.1117
-10.1221
-10.1316
-10.1405
-10.1486
-10.1561
-10.1631
-10.1694
-10.1753
-10.1806
-10.348
-10.1322
-10.4213
-10.6906
-10.7953
-10.8277
-10.8387
-10.8356
-10.8252
-10.817
-10.8179
-10.831
-10.8574
-10.8967
-10.9469
-11.0056
-11.0697
-11.1364
-11.203
-11.2669
-11.326
-11.3788
-11.4238
-11.4602
-11.4872
-11.5046
-11.512
-11.5095
-11.4971
-11.4748
-11.4426
-11.4006
-11.3488
-11.287
-11.2153
-11.1334
-11.0412
-10.9386
-10.8253
-10.701
-10.5656
-10.4189
-10.2606
-10.0906
-9.90877
-9.715
-9.50934
-9.2919
-9.06289
-8.82264
-8.57159
-8.31033
-8.03956
-7.76013
-7.47301
-7.1793
-6.8802
-6.57702
-6.27113
-5.96397
-5.65699
-5.35166
-5.04943
-4.7517
-4.45978
-4.1749
-3.89817
-3.63057
-3.37292
-3.12592
-2.89007
-2.66577
-2.45324
-2.25259
-2.0638
-1.88675
-1.72119
-1.5668
-1.42319
-1.28989
-1.1664
-1.0522
-0.946733
-0.849455
-0.759822
-0.677304
-0.601387
-0.531588
-0.46743
-0.408507
-0.354337
-0.304684
-0.258817
-0.217145
-0.17753
-0.143366
-0.105866
-0.0823101
-0.0340317
-0.0419761
-10.3949
-10.3942
-10.5882
-10.733
-10.7653
-10.7597
-10.7516
-10.7417
-10.7323
-10.7301
-10.7395
-10.7615
-10.7957
-10.841
-10.8955
-10.9567
-11.0222
-11.0895
-11.156
-11.2195
-11.2783
-11.3306
-11.3752
-11.4112
-11.438
-11.4552
-11.4626
-11.4601
-11.4478
-11.4255
-11.3935
-11.3516
-11.2999
-11.2383
-11.1667
-11.0851
-10.9931
-10.8907
-10.7777
-10.6539
-10.519
-10.3728
-10.2152
-10.046
-9.86512
-9.67247
-9.4681
-9.25213
-9.02478
-8.78638
-8.53737
-8.27832
-8.00994
-7.73306
-7.44862
-7.1577
-6.86148
-6.56122
-6.25826
-5.95401
-5.64989
-5.34732
-5.04773
-4.75248
-4.46287
-4.1801
-3.90526
-3.63933
-3.38312
-3.13732
-2.90246
-2.67892
-2.46695
-2.26668
-2.07808
-1.90106
-1.73539
-1.58077
-1.43681
-1.30308
-1.17909
-1.06432
-0.958243
-0.860323
-0.770024
-0.686826
-0.610221
-0.53973
-0.474879
-0.415265
-0.360403
-0.310066
-0.263495
-0.221164
-0.180779
-0.146118
-0.107499
-0.0844588
-0.0329828
-0.0471721
-10.4076
-10.4224
-10.5095
-10.6108
-10.6678
-10.6967
-10.7156
-10.7255
-10.7285
-10.7314
-10.7395
-10.756
-10.7821
-10.8183
-10.8641
-10.9178
-10.9773
-11.0402
-11.1037
-11.1654
-11.223
-11.2747
-11.319
-11.355
-11.3818
-11.3992
-11.4068
-11.4046
-11.3926
-11.3707
-11.3389
-11.2974
-11.2461
-11.1848
-11.1136
-11.0323
-10.9408
-10.8389
-10.7264
-10.6031
-10.4688
-10.3234
-10.1667
-9.99854
-9.81881
-9.62748
-9.42461
-9.21032
-8.98483
-8.74848
-8.5017
-8.24507
-7.97927
-7.7051
-7.42351
-7.13553
-6.84232
-6.54511
-6.2452
-5.94397
-5.6428
-5.34309
-5.04623
-4.75354
-4.46631
-4.18571
-3.91284
-3.64863
-3.39392
-3.14938
-2.91555
-2.69282
-2.48145
-2.28156
-2.09318
-1.9162
-1.75042
-1.59556
-1.45125
-1.31706
-1.19253
-1.07717
-0.970449
-0.871848
-0.780843
-0.696921
-0.619583
-0.548355
-0.482766
-0.422416
-0.366817
-0.315751
-0.268437
-0.2254
-0.184219
-0.149002
-0.109284
-0.0866218
-0.0321492
-0.0521276
-10.4115
-10.4362
-10.5042
-10.5979
-10.6616
-10.6915
-10.7059
-10.7125
-10.7147
-10.7178
-10.7268
-10.7441
-10.7704
-10.8059
-10.8494
-10.8995
-10.9541
-11.0113
-11.0688
-11.1246
-11.177
-11.2242
-11.2652
-11.2986
-11.3239
-11.3402
-11.3474
-11.345
-11.3331
-11.3114
-11.28
-11.2389
-11.188
-11.1272
-11.0565
-10.9757
-10.8847
-10.7834
-10.6716
-10.5491
-10.4156
-10.2712
-10.1155
-9.9485
-9.77009
-9.58026
-9.37905
-9.1666
-8.94314
-8.70899
-8.4646
-8.21052
-7.94742
-7.67611
-7.39748
-7.11256
-6.82246
-6.5284
-6.23165
-5.93353
-5.63541
-5.33865
-5.0446
-4.75457
-4.46981
-4.19148
-3.92065
-3.65826
-3.40513
-3.16192
-2.92919
-2.70733
-2.49661
-2.29716
-2.10902
-1.93211
-1.76624
-1.61114
-1.46647
-1.33182
-1.20674
-1.09076
-0.983361
-0.884045
-0.792295
-0.70761
-0.629496
-0.557487
-0.491114
-0.429983
-0.373603
-0.321763
-0.273663
-0.229875
-0.187867
-0.15204
-0.111224
-0.0888371
-0.0314951
-0.0568876
-10.4157
-10.4469
-10.5032
-10.5757
-10.6286
-10.657
-10.674
-10.6861
-10.695
-10.704
-10.7168
-10.7357
-10.7616
-10.7948
-10.8349
-10.8806
-10.9306
-10.983
-11.0359
-11.0873
-11.1357
-11.1793
-11.2169
-11.2475
-11.2702
-11.2845
-11.29
-11.2865
-11.2737
-11.2515
-11.2198
-11.1786
-11.1278
-11.0672
-10.9968
-10.9165
-10.826
-10.7253
-10.6142
-10.4924
-10.3599
-10.2164
-10.0619
-9.89613
-9.71915
-9.53091
-9.33146
-9.12095
-8.89961
-8.66777
-8.42586
-8.17443
-7.91413
-7.64576
-7.37018
-7.08841
-6.80152
-6.51071
-6.2172
-5.9223
-5.62732
-5.33361
-5.04249
-4.75522
-4.47305
-4.1971
-3.92843
-3.66796
-3.41651
-3.17474
-2.94319
-2.72228
-2.51228
-2.31334
-2.1255
-1.94869
-1.78276
-1.62745
-1.48242
-1.34731
-1.22168
-1.10506
-0.99697
-0.896911
-0.804385
-0.7189
-0.639971
-0.567139
-0.499941
-0.437984
-0.380778
-0.328119
-0.279192
-0.234606
-0.191738
-0.155246
-0.113334
-0.0911071
-0.0310451
-0.0614029
-10.4186
-10.4511
-10.4982
-10.5558
-10.6032
-10.6338
-10.6546
-10.6701
-10.6822
-10.6937
-10.7078
-10.7267
-10.7516
-10.7827
-10.8197
-10.8618
-10.9075
-10.9554
-11.0037
-11.0507
-11.0949
-11.1347
-11.169
-11.1967
-11.217
-11.2294
-11.2333
-11.2285
-11.2147
-11.1917
-11.1595
-11.1179
-11.0669
-11.0062
-10.9359
-10.8557
-10.7656
-10.6653
-10.5547
-10.4337
-10.302
-10.1595
-10.006
-9.84156
-9.66601
-9.47937
-9.28172
-9.07319
-8.85402
-8.62453
-8.38516
-8.13643
-7.87901
-7.61364
-7.3412
-7.06266
-6.77908
-6.4916
-6.20145
-5.90987
-5.61816
-5.32763
-5.03956
-4.75519
-4.47573
-4.2023
-3.93591
-3.67749
-3.42784
-3.18762
-2.95737
-2.73751
-2.52832
-2.32996
-2.14248
-1.96584
-1.79989
-1.6444
-1.49905
-1.36349
-1.23731
-1.12005
-1.01125
-0.910431
-0.817103
-0.730788
-0.65101
-0.577318
-0.509253
-0.446428
-0.388354
-0.334832
-0.285036
-0.239607
-0.195846
-0.158631
-0.11563
-0.0934291
-0.0308318
-0.0656119
-10.42
-10.4516
-10.4926
-10.5405
-10.5828
-10.6134
-10.6355
-10.6528
-10.6672
-10.681
-10.6967
-10.7162
-10.7405
-10.77
-10.8045
-10.8432
-10.885
-10.9286
-10.9725
-11.0151
-11.0551
-11.0911
-11.1219
-11.1465
-11.1642
-11.1743
-11.1764
-11.1701
-11.155
-11.1311
-11.0982
-11.0561
-11.0047
-10.9439
-10.8735
-10.7934
-10.7035
-10.6035
-10.4934
-10.3729
-10.242
-10.1004
-9.94797
-9.78473
-9.61059
-9.42555
-9.22968
-9.02314
-8.80616
-8.57906
-8.34226
-8.09629
-7.8418
-7.57951
-7.31029
-7.03507
-6.75489
-6.47086
-6.18417
-5.89604
-5.60773
-5.32051
-5.03562
-4.75429
-4.47768
-4.2069
-3.94293
-3.6867
-3.43897
-3.20042
-2.97159
-2.75288
-2.5446
-2.3469
-2.15987
-1.98346
-1.81755
-1.66192
-1.51628
-1.3803
-1.25357
-1.13568
-1.02617
-0.924578
-0.830431
-0.743262
-0.662607
-0.58802
-0.519054
-0.455322
-0.39634
-0.341912
-0.291207
-0.244889
-0.200204
-0.162206
-0.118126
-0.0958022
-0.030881
-0.0694618
-10.42
-10.4502
-10.4866
-10.5275
-10.5651
-10.5947
-10.6176
-10.6363
-10.6526
-10.6681
-10.685
-10.7048
-10.7285
-10.7564
-10.7885
-10.824
-10.8622
-10.9018
-10.9416
-10.9801
-11.0161
-11.0483
-11.0757
-11.0972
-11.1122
-11.1199
-11.1199
-11.1119
-11.0954
-11.0703
-11.0364
-10.9936
-10.9417
-10.8805
-10.8098
-10.7297
-10.6398
-10.5401
-10.4303
-10.3103
-10.18
-10.0392
-9.88786
-9.7258
-9.55303
-9.36957
-9.17548
-8.97093
-8.75615
-8.53146
-8.29727
-8.05411
-7.8026
-7.54346
-7.27753
-7.00571
-6.72902
-6.44855
-6.16543
-5.88086
-5.59606
-5.31227
-5.03069
-4.75252
-4.4789
-4.21088
-3.94947
-3.69554
-3.44986
-3.21309
-2.98577
-2.76832
-2.56103
-2.36409
-2.17758
-2.00147
-1.83565
-1.67993
-1.53405
-1.39767
-1.27042
-1.15191
-1.04169
-0.939322
-0.844344
-0.756304
-0.674747
-0.59924
-0.529339
-0.464666
-0.404739
-0.349365
-0.297714
-0.250461
-0.204822
-0.165978
-0.120833
-0.0982262
-0.0312127
-0.0729078
-10.4189
-10.4475
-10.4803
-10.5159
-10.5496
-10.5778
-10.6009
-10.6205
-10.638
-10.6548
-10.6725
-10.6924
-10.7154
-10.7418
-10.7716
-10.8043
-10.8391
-10.875
-10.9108
-10.9454
-10.9776
-11.0062
-11.0302
-11.0486
-11.0608
-11.0661
-11.064
-11.0541
-11.0361
-11.0097
-10.9747
-10.931
-10.8784
-10.8166
-10.7456
-10.6652
-10.5753
-10.4756
-10.3661
-10.2465
-10.1168
-9.97676
-9.82631
-9.66537
-9.49393
-9.31201
-9.11968
-8.91711
-8.70452
-8.48224
-8.25068
-8.01035
-7.76187
-7.50592
-7.24333
-6.97498
-6.70185
-6.425
-6.14553
-5.86461
-5.58341
-5.30313
-5.02496
-4.75005
-4.4795
-4.21437
-3.9556
-3.70406
-3.46053
-3.22564
-2.99993
-2.78382
-2.57761
-2.38149
-2.19557
-2.01982
-1.85415
-1.69839
-1.55229
-1.41555
-1.28781
-1.16869
-1.05777
-0.954628
-0.858814
-0.769889
-0.687414
-0.610963
-0.540101
-0.474455
-0.413549
-0.357192
-0.304559
-0.25633
-0.209708
-0.169955
-0.123759
-0.100701
-0.0318419
-0.0759132
-10.4169
-10.4438
-10.4736
-10.5053
-10.5357
-10.5624
-10.5852
-10.6053
-10.6235
-10.6411
-10.6592
-10.679
-10.7013
-10.7262
-10.7538
-10.7838
-10.8154
-10.8478
-10.88
-10.9108
-10.9393
-10.9644
-10.985
-11.0005
-11.0099
-11.0128
-11.0085
-10.9968
-10.9771
-10.9494
-10.9132
-10.8685
-10.8151
-10.7527
-10.6812
-10.6005
-10.5104
-10.4108
-10.3014
-10.1822
-10.0529
-9.91358
-9.764
-9.60414
-9.43399
-9.25356
-9.06296
-8.86234
-8.65194
-8.43206
-8.20313
-7.96564
-7.72018
-7.46745
-7.20822
-6.94337
-6.67383
-6.40065
-6.12488
-5.84765
-5.57011
-5.29341
-5.0187
-4.74711
-4.47972
-4.21752
-3.96147
-3.71241
-3.47109
-3.23814
-3.01411
-2.79941
-2.59434
-2.39912
-2.21383
-2.03849
-1.87302
-1.71726
-1.57099
-1.43391
-1.3057
-1.18599
-1.07438
-0.970465
-0.873811
-0.783994
-0.700586
-0.623172
-0.551326
-0.484681
-0.422766
-0.365393
-0.311744
-0.262497
-0.214866
-0.174141
-0.126912
-0.103227
-0.0327778
-0.0784498
-10.4141
-10.4394
-10.4667
-10.4952
-10.5228
-10.548
-10.5703
-10.5904
-10.6089
-10.6269
-10.6452
-10.6647
-10.6861
-10.7096
-10.7352
-10.7626
-10.7912
-10.8202
-10.8489
-10.8762
-10.9011
-10.9228
-10.9402
-10.9527
-10.9594
-10.9598
-10.9534
-10.9397
-10.9184
-10.8892
-10.8518
-10.8061
-10.7518
-10.6888
-10.6168
-10.5358
-10.4455
-10.3458
-10.2365
-10.1176
-9.98883
-9.85012
-9.70139
-9.54258
-9.37368
-9.19474
-9.00585
-8.80717
-8.59893
-8.38146
-8.15514
-7.92049
-7.67806
-7.42854
-7.17268
-6.91133
-6.64541
-6.3759
-6.10384
-5.83033
-5.55647
-5.28339
-5.01219
-4.74396
-4.47975
-4.22054
-3.96725
-3.72071
-3.48165
-3.25071
-3.02841
-2.81516
-2.61128
-2.41699
-2.23239
-2.05751
-1.89227
-1.73655
-1.59012
-1.45273
-1.32407
-1.20378
-1.09149
-0.986807
-0.889312
-0.798596
-0.714244
-0.635852
-0.563001
-0.495332
-0.432382
-0.373962
-0.319267
-0.268963
-0.220297
-0.17854
-0.130294
-0.105804
-0.0340232
-0.0804996
-10.4106
-10.4343
-10.4594
-10.4854
-10.5107
-10.5344
-10.556
-10.5758
-10.5943
-10.6123
-10.6305
-10.6496
-10.67
-10.6921
-10.7157
-10.7406
-10.7663
-10.7922
-10.8176
-10.8414
-10.863
-10.8813
-10.8956
-10.9051
-10.9091
-10.9071
-10.8985
-10.8829
-10.8599
-10.8292
-10.7906
-10.7438
-10.6887
-10.6249
-10.5524
-10.471
-10.3805
-10.2808
-10.1716
-10.053
-9.92467
-9.78661
-9.63872
-9.48096
-9.31332
-9.13586
-8.94867
-8.75192
-8.54585
-8.33077
-8.10707
-7.87524
-7.63584
-7.38953
-7.13704
-6.8792
-6.61688
-6.35106
-6.08273
-5.81294
-5.54278
-5.27332
-5.00563
-4.74078
-4.47978
-4.22359
-3.9731
-3.72911
-3.49235
-3.26344
-3.04289
-2.83114
-2.62849
-2.43517
-2.25129
-2.07688
-1.91191
-1.75624
-1.60969
-1.47201
-1.34291
-1.22206
-1.10909
-1.00364
-0.905297
-0.813677
-0.72837
-0.648984
-0.575112
-0.506398
-0.442388
-0.382893
-0.327123
-0.275727
-0.226002
-0.183152
-0.133906
-0.108431
-0.0355748
-0.0820553
-10.4063
-10.4285
-10.4518
-10.4756
-10.4991
-10.5213
-10.542
-10.5613
-10.5796
-10.5974
-10.6153
-10.6337
-10.6531
-10.6736
-10.6953
-10.7178
-10.7409
-10.7638
-10.786
-10.8066
-10.8248
-10.84
-10.8512
-10.8578
-10.8592
-10.8547
-10.8439
-10.8264
-10.8017
-10.7695
-10.7296
-10.6818
-10.6257
-10.5612
-10.4882
-10.4064
-10.3157
-10.2159
-10.1068
-9.98846
-9.86061
-9.72321
-9.57617
-9.41946
-9.25309
-9.07711
-8.89164
-8.69683
-8.49293
-8.28024
-8.05916
-7.83016
-7.59379
-7.35068
-7.10156
-6.84721
-6.5885
-6.32636
-6.06175
-5.79568
-5.52921
-5.26338
-4.99922
-4.73776
-4.47998
-4.22681
-3.97913
-3.73771
-3.50327
-3.27641
-3.05766
-2.84742
-2.64602
-2.45369
-2.27055
-2.09665
-1.93196
-1.77637
-1.6297
-1.49174
-1.36221
-1.2408
-1.12716
-1.02094
-0.921755
-0.829222
-0.74295
-0.662557
-0.587645
-0.517866
-0.452774
-0.392177
-0.335308
-0.282785
-0.231977
-0.187976
-0.137746
-0.111109
-0.0374231
-0.0831202
-10.4012
-10.4221
-10.4438
-10.4658
-10.4876
-10.5084
-10.5282
-10.5468
-10.5647
-10.5821
-10.5994
-10.617
-10.6353
-10.6544
-10.6741
-10.6944
-10.7149
-10.735
-10.7541
-10.7716
-10.7867
-10.7988
-10.807
-10.8109
-10.8096
-10.8027
-10.7898
-10.7702
-10.7438
-10.7102
-10.669
-10.62
-10.563
-10.4978
-10.4242
-10.342
-10.251
-10.1512
-10.0423
-9.92418
-9.79681
-9.66006
-9.51389
-9.35825
-9.19316
-9.01868
-8.83493
-8.64207
-8.44035
-8.23006
-8.01161
-7.78543
-7.55209
-7.31218
-7.06642
-6.81556
-6.56045
-6.30197
-6.04107
-5.77873
-5.51594
-5.25372
-4.99309
-4.73501
-4.48046
-4.23032
-3.98545
-3.74661
-3.5145
-3.28971
-3.07276
-2.86405
-2.66392
-2.4726
-2.29021
-2.11683
-1.95244
-1.79694
-1.65017
-1.51194
-1.38199
-1.26002
-1.14571
-1.03871
-0.938675
-0.845221
-0.757974
-0.67656
-0.600592
-0.529727
-0.463532
-0.401809
-0.343814
-0.290132
-0.23822
-0.193011
-0.141809
-0.113838
-0.0395528
-0.0837084
-10.3955
-10.4152
-10.4354
-10.4559
-10.4761
-10.4957
-10.5144
-10.5323
-10.5495
-10.5663
-10.5829
-10.5997
-10.6168
-10.6343
-10.6522
-10.6703
-10.6883
-10.7057
-10.7219
-10.7365
-10.7486
-10.7577
-10.7631
-10.7642
-10.7604
-10.7512
-10.736
-10.7146
-10.6864
-10.6512
-10.6087
-10.5586
-10.5007
-10.4348
-10.3606
-10.278
-10.1868
-10.0869
-9.97809
-9.86031
-9.73342
-9.59736
-9.45205
-9.2975
-9.1337
-8.96074
-8.77872
-8.58783
-8.38829
-8.18042
-7.96458
-7.74124
-7.51091
-7.2742
-7.03179
-6.78442
-6.53288
-6.27806
-6.02086
-5.76221
-5.5031
-5.24449
-4.98736
-4.73266
-4.48132
-4.23421
-3.99215
-3.75589
-3.52611
-3.30339
-3.08825
-2.88109
-2.68224
-2.49193
-2.31031
-2.13746
-1.97337
-1.81796
-1.6711
-1.53261
-1.40223
-1.2797
-1.16472
-1.05695
-0.956053
-0.861668
-0.773432
-0.690982
-0.613942
-0.541974
-0.474654
-0.411781
-0.352637
-0.297765
-0.244727
-0.198255
-0.146091
-0.11662
-0.0419438
-0.0838437
-10.3891
-10.4076
-10.4266
-10.4456
-10.4645
-10.4829
-10.5006
-10.5177
-10.5341
-10.5502
-10.566
-10.5817
-10.5976
-10.6136
-10.6297
-10.6457
-10.6613
-10.6761
-10.6896
-10.7013
-10.7106
-10.7168
-10.7195
-10.7179
-10.7116
-10.7001
-10.6829
-10.6595
-10.6296
-10.5929
-10.5491
-10.4979
-10.439
-10.3723
-10.2975
-10.2145
-10.1231
-10.0232
-9.91451
-9.79704
-9.67065
-9.53527
-9.39086
-9.2374
-9.07492
-8.90348
-8.72321
-8.53429
-8.33694
-8.13148
-7.91827
-7.69775
-7.47044
-7.23692
-6.99784
-6.75393
-6.50597
-6.25478
-6.00125
-5.74628
-5.49081
-5.23579
-4.98215
-4.73081
-4.48267
-4.23857
-3.99931
-3.76563
-3.53817
-3.31753
-3.10419
-2.89857
-2.701
-2.51171
-2.33087
-2.15855
-1.99476
-1.83946
-1.69251
-1.55374
-1.42294
-1.29986
-1.1842
-1.07565
-0.97388
-0.878554
-0.789317
-0.705817
-0.627688
-0.554597
-0.486132
-0.422086
-0.36177
-0.305677
-0.251492
-0.203705
-0.150583
-0.119454
-0.0445717
-0.0835588
-10.3821
-10.3996
-10.4173
-10.4351
-10.4528
-10.47
-10.4867
-10.5029
-10.5185
-10.5337
-10.5485
-10.5632
-10.5778
-10.5923
-10.6066
-10.6205
-10.6339
-10.6462
-10.6571
-10.6661
-10.6727
-10.6763
-10.6763
-10.6722
-10.6635
-10.6497
-10.6304
-10.6051
-10.5736
-10.5354
-10.4902
-10.4379
-10.3781
-10.3106
-10.2353
-10.1519
-10.0603
-9.96026
-9.85173
-9.73458
-9.6087
-9.47403
-9.33052
-9.17817
-9.01701
-8.84712
-8.66861
-8.48166
-8.28651
-8.08346
-7.87287
-7.65517
-7.43086
-7.20051
-6.96475
-6.72429
-6.47986
-6.23228
-5.98239
-5.73107
-5.47923
-5.22776
-4.97758
-4.72957
-4.48461
-4.2435
-4.00702
-3.77589
-3.55075
-3.33217
-3.12063
-2.91655
-2.72025
-2.53198
-2.3519
-2.18012
-2.01664
-1.86143
-1.71439
-1.57535
-1.44413
-1.32048
-1.20413
-1.09479
-0.992149
-0.895871
-0.80562
-0.721054
-0.641819
-0.567587
-0.497957
-0.432716
-0.371205
-0.313864
-0.258508
-0.209357
-0.155278
-0.122345
-0.0474083
-0.0828935
-10.3745
-10.391
-10.4076
-10.4243
-10.4408
-10.457
-10.4727
-10.4879
-10.5026
-10.5168
-10.5307
-10.5442
-10.5575
-10.5704
-10.583
-10.595
-10.6062
-10.6162
-10.6246
-10.6311
-10.6351
-10.636
-10.6335
-10.627
-10.616
-10.6
-10.5787
-10.5516
-10.5184
-10.4787
-10.4323
-10.3789
-10.3181
-10.2499
-10.174
-10.0902
-9.9984
-9.89836
-9.78998
-9.67316
-9.54781
-9.41386
-9.27127
-9.12004
-8.96022
-8.79187
-8.61512
-8.43016
-8.2372
-8.03656
-7.82858
-7.61369
-7.39237
-7.16517
-6.93271
-6.69565
-6.45473
-6.21073
-5.96445
-5.71674
-5.46848
-5.22053
-4.97377
-4.72906
-4.48724
-4.24909
-4.01537
-3.78677
-3.56392
-3.34737
-3.13762
-2.93506
-2.74002
-2.55276
-2.37344
-2.20218
-2.03901
-1.88389
-1.73675
-1.59744
-1.46578
-1.34156
-1.22452
-1.11438
-1.01085
-0.913606
-0.822327
-0.736682
-0.656324
-0.580933
-0.510119
-0.443662
-0.380934
-0.322318
-0.265769
-0.215206
-0.160163
-0.125294
-0.0504229
-0.0818928
-10.3664
-10.382
-10.3976
-10.4132
-10.4286
-10.4438
-10.4584
-10.4727
-10.4864
-10.4997
-10.5125
-10.5248
-10.5368
-10.5482
-10.5591
-10.5692
-10.5783
-10.5861
-10.5922
-10.5962
-10.5977
-10.5963
-10.5913
-10.5825
-10.5693
-10.5512
-10.528
-10.4991
-10.4643
-10.4232
-10.3755
-10.3209
-10.2593
-10.1904
-10.1139
-10.0298
-9.93775
-9.83769
-9.72949
-9.61302
-9.4882
-9.35499
-9.21333
-9.06324
-8.90476
-8.73797
-8.56299
-8.38001
-8.18926
-7.99101
-7.78564
-7.57353
-7.35518
-7.1311
-6.9019
-6.66822
-6.43078
-6.1903
-5.94759
-5.70345
-5.45872
-5.21424
-4.97086
-4.7294
-4.49067
-4.25544
-4.02443
-3.79833
-3.57774
-3.36321
-3.15521
-2.95415
-2.76035
-2.57408
-2.39551
-2.22476
-2.06188
-1.90684
-1.75959
-1.61999
-1.4879
-1.36309
-1.24535
-1.1344
-1.02997
-0.931746
-0.839425
-0.752684
-0.671187
-0.59462
-0.522604
-0.45491
-0.390945
-0.331027
-0.273262
-0.221245
-0.165225
-0.128304
-0.0535821
-0.0806047
-10.3579
-10.3726
-10.3873
-10.4019
-10.4163
-10.4304
-10.4441
-10.4573
-10.47
-10.4823
-10.494
-10.5052
-10.5158
-10.5257
-10.5349
-10.5432
-10.5503
-10.556
-10.5599
-10.5617
-10.5609
-10.5571