/*--------------------------------*- C++ -*----------------------------------*\
| =========                 |                                                 |
| \\      /  F ield         | OpenFOAM: The Open Source CFD Toolbox           |
|  \\    /   O peration     | Version:  4.1                                   |
|   \\  /    A nd           | Web:      www.OpenFOAM.org                      |
|    \\/     M anipulation  |                                                 |
\*---------------------------------------------------------------------------*/
FoamFile
{
    version     2.0;
    format      ascii;
    class       surfaceScalarField;
    location    "800";
    object      phi;
}
// * * * * * * * * * * * * * * * * * * * * * * * * * * * * * * * * * * * * * //

dimensions      [0 3 -1 0 0 0 0];

internalField   nonuniform List<scalar> 
13452
(
6.28704e-05
-2.60189e-06
6.37403e-05
-8.69977e-07
6.46286e-05
-8.88281e-07
6.4105e-05
5.2357e-07
6.28898e-05
1.21528e-06
6.15445e-05
1.34523e-06
6.02725e-05
1.27201e-06
5.91139e-05
1.1586e-06
5.80687e-05
1.04527e-06
5.71283e-05
9.40328e-07
5.62815e-05
8.4682e-07
5.55161e-05
7.6538e-07
5.48213e-05
6.94782e-07
5.41881e-05
6.33237e-07
5.36089e-05
5.79198e-07
5.30774e-05
5.31466e-07
5.25884e-05
4.89081e-07
5.21371e-05
4.51252e-07
5.17198e-05
4.17333e-07
5.1333e-05
3.86802e-07
5.09737e-05
3.59234e-07
5.06395e-05
3.34277e-07
5.03278e-05
3.11645e-07
5.00367e-05
2.91108e-07
4.97642e-05
2.72491e-07
4.95085e-05
2.55674e-07
4.92679e-05
2.40611e-07
4.90406e-05
2.27325e-07
4.88245e-05
2.16095e-07
4.86177e-05
2.06842e-07
4.84165e-05
2.01139e-07
4.82254e-05
1.91097e-07
1.8004e-07
4.80454e-05
6.30682e-05
-3.67972e-06
6.27994e-05
-6.01193e-07
6.21233e-05
-2.12203e-07
6.23359e-05
3.10959e-07
6.27935e-05
7.57658e-07
6.31929e-05
9.45854e-07
6.34611e-05
1.0038e-06
6.36058e-05
1.01394e-06
6.36526e-05
9.98468e-07
6.36273e-05
9.65584e-07
6.35508e-05
9.23358e-07
6.34383e-05
8.77882e-07
6.33008e-05
8.32226e-07
6.31464e-05
7.87682e-07
6.29807e-05
7.44898e-07
6.28079e-05
7.04247e-07
6.26311e-05
6.65881e-07
6.24526e-05
6.29809e-07
6.22739e-05
5.95966e-07
6.20965e-05
5.64258e-07
6.19211e-05
5.34578e-07
6.17486e-05
5.06819e-07
6.15794e-05
4.80879e-07
6.14138e-05
4.56671e-07
6.12522e-05
4.34132e-07
6.10946e-05
4.13223e-07
6.09412e-05
3.93969e-07
6.07922e-05
3.7639e-07
6.06475e-05
3.60783e-07
6.05076e-05
3.46723e-07
6.03727e-05
3.3604e-07
6.02411e-05
3.22725e-07
3.33701e-07
6.00874e-05
6.23306e-05
-2.24887e-06
6.26619e-05
-9.32549e-07
6.281e-05
-3.60284e-07
6.30954e-05
2.55539e-08
6.34246e-05
4.28515e-07
6.37126e-05
6.57846e-07
6.39516e-05
7.64746e-07
6.41451e-05
8.2045e-07
6.42964e-05
8.47217e-07
6.44106e-05
8.51331e-07
6.4494e-05
8.40012e-07
6.4552e-05
8.19869e-07
6.45893e-05
7.9486e-07
6.46099e-05
7.67102e-07
6.46169e-05
7.37955e-07
6.46127e-05
7.08385e-07
6.45996e-05
6.79028e-07
6.45791e-05
6.50277e-07
6.45527e-05
6.22374e-07
6.45215e-05
5.95471e-07
6.44864e-05
5.69661e-07
6.44482e-05
5.44997e-07
6.44076e-05
5.21511e-07
6.4365e-05
4.99227e-07
6.4321e-05
4.78176e-07
6.42758e-05
4.58397e-07
6.42298e-05
4.39979e-07
6.41832e-05
4.23005e-07
6.41362e-05
4.07763e-07
6.40888e-05
3.94138e-07
6.40413e-05
3.83505e-07
6.399e-05
3.74098e-07
3.78884e-07
6.39448e-05
6.47767e-05
-1.44247e-06
6.47349e-05
-8.9075e-07
6.47849e-05
-4.1033e-07
6.48931e-05
-8.26388e-08
6.5057e-05
2.64668e-07
6.52214e-05
4.93359e-07
6.53726e-05
6.13559e-07
6.55095e-05
6.83629e-07
6.56306e-05
7.26024e-07
6.57358e-05
7.46209e-07
6.58257e-05
7.50119e-07
6.59018e-05
7.43732e-07
6.59658e-05
7.30874e-07
6.60192e-05
7.13728e-07
6.60633e-05
6.93787e-07
6.60995e-05
6.72166e-07
6.61289e-05
6.49656e-07
6.61524e-05
6.26795e-07
6.61708e-05
6.03956e-07
6.61849e-05
5.81406e-07
6.61952e-05
5.59337e-07
6.62023e-05
5.37889e-07
6.62067e-05
5.17167e-07
6.62086e-05
4.97259e-07
6.62085e-05
4.78251e-07
6.62067e-05
4.6023e-07
6.62034e-05
4.43316e-07
6.61987e-05
4.27636e-07
6.61931e-05
4.13443e-07
6.61864e-05
4.00841e-07
6.61791e-05
3.90776e-07
6.61702e-05
3.83039e-07
3.83206e-07
6.61658e-05
6.70079e-05
-9.93573e-07
6.68589e-05
-7.41781e-07
6.68314e-05
-3.82863e-07
6.68578e-05
-1.09003e-07
6.69422e-05
1.80299e-07
6.70457e-05
3.89816e-07
6.7148e-05
5.11335e-07
6.7245e-05
5.86538e-07
6.73357e-05
6.35323e-07
6.74189e-05
6.6308e-07
6.7494e-05
6.74969e-07
6.75615e-05
6.76268e-07
6.76218e-05
6.70517e-07
6.76757e-05
6.59845e-07
6.77238e-05
6.45743e-07
6.77666e-05
6.29347e-07
6.78048e-05
6.11487e-07
6.78388e-05
5.92751e-07
6.78692e-05
5.73566e-07
6.78963e-05
5.54249e-07
6.79206e-05
5.35037e-07
6.79424e-05
5.16114e-07
6.7962e-05
4.97622e-07
6.79795e-05
4.79682e-07
6.79954e-05
4.62406e-07
6.80097e-05
4.45904e-07
6.80227e-05
4.30305e-07
6.80346e-05
4.15745e-07
6.80456e-05
4.02437e-07
6.80559e-05
3.90551e-07
6.8066e-05
3.80676e-07
6.80761e-05
3.72915e-07
3.69276e-07
6.80901e-05
6.90833e-05
-6.9287e-07
6.89333e-05
-5.91801e-07
6.88863e-05
-3.35806e-07
6.88865e-05
-1.09231e-07
6.8934e-05
1.32791e-07
6.90039e-05
3.19972e-07
6.90771e-05
4.38093e-07
6.91489e-05
5.1478e-07
6.9218e-05
5.66192e-07
6.92834e-05
5.97727e-07
6.93442e-05
6.14089e-07
6.94006e-05
6.19933e-07
6.94526e-05
6.18514e-07
6.95005e-05
6.11895e-07
6.95447e-05
6.01546e-07
6.95855e-05
5.88587e-07
6.96231e-05
5.7385e-07
6.96579e-05
5.57939e-07
6.96902e-05
5.41303e-07
6.97202e-05
5.2428e-07
6.97481e-05
5.0713e-07
6.97741e-05
4.90055e-07
6.97985e-05
4.73217e-07
6.98215e-05
4.5675e-07
6.98431e-05
4.40776e-07
6.98636e-05
4.25411e-07
6.98831e-05
4.10776e-07
6.99019e-05
3.96995e-07
6.99201e-05
3.8423e-07
6.9938e-05
3.7262e-07
6.99562e-05
3.62469e-07
6.99753e-05
3.53787e-07
3.47009e-07
6.99976e-05
7.11508e-05
-4.77351e-07
7.10202e-05
-4.61196e-07
7.09675e-05
-2.83107e-07
7.09558e-05
-9.75387e-08
7.09831e-05
1.05531e-07
7.10322e-05
2.70839e-07
7.10875e-05
3.82829e-07
7.11435e-05
4.58748e-07
7.11988e-05
5.10875e-07
7.12522e-05
5.44314e-07
7.1303e-05
5.63366e-07
7.13508e-05
5.72128e-07
7.13957e-05
5.73572e-07
7.14379e-05
5.69685e-07
7.14776e-05
5.61907e-07
7.15148e-05
5.51334e-07
7.15499e-05
5.38789e-07
7.15829e-05
5.24881e-07
7.16142e-05
5.10068e-07
7.16437e-05
4.94699e-07
7.16718e-05
4.79045e-07
7.16986e-05
4.63317e-07
7.17241e-05
4.47685e-07
7.17486e-05
4.3229e-07
7.17721e-05
4.17253e-07
7.17948e-05
4.02685e-07
7.18169e-05
3.8869e-07
7.18385e-05
3.7537e-07
7.18599e-05
3.62827e-07
7.18814e-05
3.51139e-07
7.19035e-05
3.40399e-07
7.19268e-05
3.30486e-07
3.21219e-07
7.19526e-05
7.32508e-05
-3.22851e-07
7.31391e-05
-3.4956e-07
7.30844e-05
-2.28385e-07
7.30656e-05
-7.87259e-08
7.30803e-05
9.08677e-08
7.31156e-05
2.35462e-07
7.31589e-05
3.39581e-07
7.32046e-05
4.13054e-07
7.32508e-05
4.64658e-07
7.32962e-05
4.98882e-07
7.334e-05
5.19573e-07
7.33819e-05
5.30304e-07
7.34217e-05
5.33768e-07
7.34595e-05
5.31855e-07
7.34954e-05
5.2596e-07
7.35296e-05
5.17153e-07
7.35622e-05
5.0624e-07
7.35932e-05
4.9383e-07
7.36229e-05
4.80384e-07
7.36513e-05
4.66257e-07
7.36787e-05
4.51725e-07
7.3705e-05
4.37005e-07
7.37304e-05
4.22268e-07
7.3755e-05
4.07656e-07
7.3779e-05
3.93286e-07
7.38024e-05
3.79258e-07
7.38255e-05
3.65658e-07
7.38483e-05
3.52556e-07
7.38711e-05
3.40006e-07
7.38942e-05
3.28018e-07
7.3918e-05
3.16558e-07
7.39431e-05
3.0542e-07
2.94232e-07
7.39701e-05
7.5393e-05
-2.13413e-07
7.5299e-05
-2.55567e-07
7.5245e-05
-1.74396e-07
7.52219e-05
-5.55852e-08
7.5228e-05
8.48101e-08
7.52534e-05
2.10011e-07
7.52878e-05
3.05159e-07
7.5326e-05
3.74868e-07
7.53657e-05
4.24975e-07
7.54054e-05
4.59153e-07
7.54443e-05
4.80722e-07
7.54818e-05
4.92761e-07
7.55179e-05
4.97677e-07
7.55525e-05
4.9724e-07
7.55857e-05
4.92785e-07
7.56175e-05
4.85344e-07
7.56481e-05
4.75705e-07
7.56774e-05
4.64468e-07
7.57057e-05
4.52094e-07
7.5733e-05
4.3894e-07
7.57595e-05
4.25283e-07
7.57851e-05
4.11341e-07
7.58101e-05
3.97287e-07
7.58345e-05
3.83259e-07
7.58584e-05
3.69368e-07
7.5882e-05
3.557e-07
7.59053e-05
3.42324e-07
7.59286e-05
3.29281e-07
7.5952e-05
3.16585e-07
7.59758e-05
3.04198e-07
7.60004e-05
2.92018e-07
7.6026e-05
2.79809e-07
2.6718e-07
7.6053e-05
7.75831e-05
-1.36894e-07
7.75059e-05
-1.78409e-07
7.74552e-05
-1.23687e-07
7.74299e-05
-3.02731e-08
7.74298e-05
8.48773e-08
7.74477e-05
1.92131e-07
7.74752e-05
2.77691e-07
7.75074e-05
3.42623e-07
7.7542e-05
3.9041e-07
7.75773e-05
4.23839e-07
7.76123e-05
4.45657e-07
7.76466e-05
4.58466e-07
7.76799e-05
4.64387e-07
7.77121e-05
4.65047e-07
7.77432e-05
4.61705e-07
7.77732e-05
4.55342e-07
7.78022e-05
4.46721e-07
7.78302e-05
4.36429e-07
7.78574e-05
4.24922e-07
7.78838e-05
4.12554e-07
7.79095e-05
3.99601e-07
7.79345e-05
3.8628e-07
7.79591e-05
3.72763e-07
7.79831e-05
3.59181e-07
7.80069e-05
3.45638e-07
7.80304e-05
3.32211e-07
7.80537e-05
3.18949e-07
7.80771e-05
3.05873e-07
7.81008e-05
2.92969e-07
7.81248e-05
2.80172e-07
7.81494e-05
2.6735e-07
7.8175e-05
2.54279e-07
2.40613e-07
7.82015e-05
7.98256e-05
-8.41771e-08
7.97641e-05
-1.1686e-07
7.97186e-05
-7.82415e-08
7.9693e-05
-4.70403e-09
7.96888e-05
8.91261e-08
7.97008e-05
1.80087e-07
7.97226e-05
2.55877e-07
7.97499e-05
3.1532e-07
7.97803e-05
3.60108e-07
7.98119e-05
3.92175e-07
7.98439e-05
4.13689e-07
7.98755e-05
4.26799e-07
7.99066e-05
4.33338e-07
7.99369e-05
4.34773e-07
7.99663e-05
4.3227e-07
7.99949e-05
4.26753e-07
8.00227e-05
4.1895e-07
8.00497e-05
4.09427e-07
8.0076e-05
3.98631e-07
8.01016e-05
3.86909e-07
8.01267e-05
3.74535e-07
8.01512e-05
3.61721e-07
8.01754e-05
3.48634e-07
8.01991e-05
3.35402e-07
8.02227e-05
3.2212e-07
8.0246e-05
3.08856e-07
8.02693e-05
2.95646e-07
8.02927e-05
2.82496e-07
8.03163e-05
2.69376e-07
8.03402e-05
2.56209e-07
8.03647e-05
2.42866e-07
8.03899e-05
2.29149e-07
2.14779e-07
8.04157e-05
8.21247e-05
-4.84499e-08
8.2077e-05
-6.91515e-08
8.20381e-05
-3.93001e-08
8.20139e-05
1.9451e-08
8.20072e-05
9.58308e-08
8.20149e-05
1.72388e-07
8.20321e-05
2.3864e-07
8.20553e-05
2.92191e-07
8.20819e-05
3.33467e-07
8.21104e-05
3.63655e-07
8.21397e-05
3.84381e-07
8.21692e-05
3.97372e-07
8.21983e-05
4.04179e-07
8.2227e-05
4.061e-07
8.22551e-05
4.04194e-07
8.22825e-05
3.9932e-07
8.23093e-05
3.9216e-07
8.23355e-05
3.8326e-07
8.23611e-05
3.73047e-07
8.23861e-05
3.6186e-07
8.24107e-05
3.49965e-07
8.24348e-05
3.37569e-07
8.24586e-05
3.24835e-07
8.24821e-05
3.11885e-07
8.25055e-05
2.98807e-07
8.25286e-05
2.8566e-07
8.25518e-05
2.72473e-07
8.25751e-05
2.59243e-07
8.25985e-05
2.45934e-07
8.26223e-05
2.32472e-07
8.26464e-05
2.1874e-07
8.2671e-05
2.04579e-07
1.89772e-07
8.2696e-05
8.4484e-05
-2.46533e-08
8.4448e-05
-3.32137e-08
8.44161e-05
-7.34982e-09
8.43946e-05
4.09012e-08
8.4387e-05
1.03466e-07
8.43917e-05
1.67668e-07
8.44054e-05
2.24983e-07
8.4425e-05
2.72546e-07
8.44485e-05
3.09981e-07
8.44743e-05
3.37887e-07
8.45012e-05
3.57417e-07
8.45287e-05
3.69918e-07
8.45562e-05
3.76678e-07
8.45835e-05
3.78818e-07
8.46104e-05
3.77288e-07
8.46368e-05
3.7287e-07
8.46628e-05
3.662e-07
8.46883e-05
3.5779e-07
8.47133e-05
3.48049e-07
8.47378e-05
3.37302e-07
8.4762e-05
3.25805e-07
8.47858e-05
3.13759e-07
8.48093e-05
3.01319e-07
8.48326e-05
2.88602e-07
8.48557e-05
2.75691e-07
8.48787e-05
2.62639e-07
8.49017e-05
2.49469e-07
8.49248e-05
2.36177e-07
8.4948e-05
2.22728e-07
8.49714e-05
2.09057e-07
8.49951e-05
1.95068e-07
8.5019e-05
1.80639e-07
1.65611e-07
8.50432e-05
8.69066e-05
-9.09168e-09
8.68803e-05
-6.92282e-09
8.68552e-05
1.77577e-08
8.68373e-05
5.88283e-08
8.683e-05
1.1078e-07
8.68329e-05
1.64701e-07
8.6844e-05
2.1395e-07
8.68608e-05
2.55705e-07
8.68816e-05
2.89165e-07
8.6905e-05
3.14516e-07
8.69299e-05
3.32529e-07
8.69556e-05
3.44229e-07
8.69816e-05
3.5066e-07
8.70076e-05
3.5278e-07
8.70335e-05
3.51421e-07
8.70591e-05
3.47289e-07
8.70843e-05
3.40965e-07
8.71092e-05
3.32927e-07
8.71337e-05
3.23559e-07
8.71578e-05
3.13168e-07
8.71816e-05
3.02e-07
8.72051e-05
2.90246e-07
8.72284e-05
2.78055e-07
8.72514e-05
2.65538e-07
8.72744e-05
2.52773e-07
8.72972e-05
2.39809e-07
8.732e-05
2.26668e-07
8.73428e-05
2.13348e-07
8.73657e-05
1.99818e-07
8.73888e-05
1.86028e-07
8.74119e-05
1.71904e-07
8.74352e-05
1.57359e-07
1.42279e-07
8.74585e-05
8.93956e-05
8.74515e-10
8.93769e-05
1.17154e-08
8.93581e-05
3.66209e-08
8.9344e-05
7.2887e-08
8.93379e-05
1.16865e-07
8.93402e-05
1.62449e-07
8.93495e-05
2.04659e-07
8.93642e-05
2.41001e-07
8.93828e-05
2.70531e-07
8.94041e-05
2.93188e-07
8.94272e-05
3.09459e-07
8.94513e-05
3.2011e-07
8.9476e-05
3.25978e-07
8.95009e-05
3.27866e-07
8.95258e-05
3.26495e-07
8.95506e-05
3.22492e-07
8.95752e-05
3.16384e-07
8.95995e-05
3.08608e-07
8.96236e-05
2.99521e-07
8.96473e-05
2.89413e-07
8.96708e-05
2.78515e-07
8.96941e-05
2.67007e-07
8.97171e-05
2.5503e-07
8.97399e-05
2.42691e-07
8.97626e-05
2.30062e-07
8.97853e-05
2.17192e-07
8.98078e-05
2.04103e-07
8.98304e-05
1.90795e-07
8.98529e-05
1.77249e-07
8.98756e-05
1.63426e-07
8.98982e-05
1.49277e-07
8.99208e-05
1.34742e-07
1.19744e-07
8.99433e-05
9.19536e-05
7.09137e-09
9.19409e-05
2.44563e-08
9.19274e-05
5.00934e-08
9.19172e-05
8.31276e-08
9.19129e-05
1.21173e-07
9.19152e-05
1.60119e-07
9.19235e-05
1.96345e-07
9.19367e-05
2.27807e-07
9.19536e-05
2.53599e-07
9.19733e-05
2.73544e-07
9.19948e-05
2.87946e-07
9.20175e-05
2.97371e-07
9.2041e-05
3.02489e-07
9.20649e-05
3.03966e-07
9.2089e-05
3.02424e-07
9.21131e-05
2.98411e-07
9.21371e-05
2.924e-07
9.21609e-05
2.84788e-07
9.21845e-05
2.75903e-07
9.22079e-05
2.66012e-07
9.22311e-05
2.55331e-07
9.22541e-05
2.4403e-07
9.22769e-05
2.32243e-07
9.22995e-05
2.20067e-07
9.2322e-05
2.07575e-07
9.23444e-05
1.94812e-07
9.23666e-05
1.81804e-07
9.23889e-05
1.68555e-07
9.24111e-05
1.55055e-07
9.24332e-05
1.41282e-07
9.24553e-05
1.27204e-07
9.24773e-05
1.12782e-07
9.79722e-08
9.2499e-05
9.45834e-05
1.0827e-08
9.45751e-05
3.27699e-08
9.45661e-05
5.91238e-08
9.45593e-05
8.98844e-08
9.4557e-05
1.23488e-07
9.45599e-05
1.57187e-07
9.45679e-05
1.88412e-07
9.45801e-05
2.15581e-07
9.45958e-05
2.37923e-07
9.46141e-05
2.55238e-07
9.46343e-05
2.67726e-07
9.46559e-05
2.75817e-07
9.46783e-05
2.80048e-07
9.47013e-05
2.80974e-07
9.47246e-05
2.79128e-07
9.4748e-05
2.74986e-07
9.47714e-05
2.6897e-07
9.47948e-05
2.61434e-07
9.4818e-05
2.52679e-07
9.48411e-05
2.42948e-07
9.4864e-05
2.32441e-07
9.48867e-05
2.21317e-07
9.49092e-05
2.09699e-07
9.49316e-05
1.97681e-07
9.49539e-05
1.85332e-07
9.4976e-05
1.72696e-07
9.4998e-05
1.59801e-07
9.50199e-05
1.46659e-07
9.50417e-05
1.33268e-07
9.50633e-05
1.19617e-07
9.50848e-05
1.05691e-07
9.51061e-05
9.14712e-08
7.69317e-08
9.51272e-05
9.72874e-05
1.29405e-08
9.72823e-05
3.78433e-08
9.72768e-05
6.46434e-08
9.7273e-05
9.36625e-08
9.72727e-05
1.23855e-07
9.72765e-05
1.53383e-07
9.72844e-05
1.80455e-07
9.72961e-05
2.039e-07
9.73109e-05
2.23122e-07
9.73282e-05
2.37956e-07
9.73474e-05
2.48554e-07
9.73679e-05
2.5526e-07
9.73895e-05
2.58516e-07
9.74116e-05
2.58788e-07
9.74342e-05
2.56531e-07
9.74571e-05
2.52163e-07
9.748e-05
2.46054e-07
9.75029e-05
2.38521e-07
9.75257e-05
2.29833e-07
9.75485e-05
2.20214e-07
9.75711e-05
2.09845e-07
9.75935e-05
1.98873e-07
9.76158e-05
1.87413e-07
9.76379e-05
1.75552e-07
9.76599e-05
1.63356e-07
9.76817e-05
1.50871e-07
9.77034e-05
1.38125e-07
9.77249e-05
1.25136e-07
9.77463e-05
1.1191e-07
9.77675e-05
9.84471e-08
9.77884e-05
8.47444e-08
9.78091e-05
7.07974e-08
5.65947e-08
9.78294e-05
0.000100068
1.40087e-08
0.000100065
4.06102e-08
0.000100062
6.75031e-08
0.000100061
9.50447e-08
0.000100062
1.2251e-07
0.000100067
1.48658e-07
0.000100075
1.72261e-07
0.000100087
1.92487e-07
0.000100101
2.08914e-07
0.000100117
2.21445e-07
0.000100136
2.3022e-07
0.000100155
2.35535e-07
0.000100176
2.37766e-07
0.000100198
2.37312e-07
0.00010022
2.34567e-07
0.000100242
2.29894e-07
0.000100264
2.2362e-07
0.000100287
2.16028e-07
0.000100309
2.07357e-07
0.000100332
1.97809e-07
0.000100354
1.87549e-07
0.000100376
1.76712e-07
0.000100398
1.65402e-07
0.00010042
1.53702e-07
0.000100442
1.41674e-07
0.000100463
1.29364e-07
0.000100485
1.16802e-07
0.000100506
1.0401e-07
0.000100527
9.1002e-08
0.000100547
7.77851e-08
0.000100568
6.43664e-08
0.000100588
5.07508e-08
3.69382e-08
0.000100607
0.000102928
1.44188e-08
0.000102926
4.17948e-08
0.000102926
6.8448e-08
0.000102926
9.46282e-08
0.000102929
1.19806e-07
0.000102934
1.43135e-07
0.000102943
1.63788e-07
0.000102954
1.81208e-07
0.000102968
1.95131e-07
0.000102984
2.05534e-07
0.000103001
2.12571e-07
0.00010302
2.16516e-07
0.00010304
2.17699e-07
0.000103061
2.16473e-07
0.000103083
2.13181e-07
0.000103104
2.08144e-07
0.000103126
2.01649e-07
0.000103148
1.93945e-07
0.00010317
1.85249e-07
0.000103193
1.7574e-07
0.000103215
1.65566e-07
0.000103236
1.5485e-07
0.000103258
1.43687e-07
0.00010328
1.32155e-07
0.000103301
1.20312e-07
0.000103322
1.08202e-07
0.000103343
9.58579e-08
0.000103364
8.33048e-08
0.000103384
7.05607e-08
0.000103404
5.76402e-08
0.000103424
4.45563e-08
0.000103444
3.13212e-08
1.79417e-08
0.000103463
0.000105869
1.44341e-08
0.000105869
4.19591e-08
0.000105869
6.8118e-08
0.000105871
9.29902e-08
0.000105874
1.16163e-07
0.00010588
1.37059e-07
0.000105889
1.55142e-07
0.0001059
1.70071e-07
0.000105913
1.81722e-07
0.000105929
1.90148e-07
0.000105946
1.95529e-07
0.000105964
1.98131e-07
0.000105984
1.98259e-07
0.000106004
1.96229e-07
0.000106025
1.92347e-07
0.000106046
1.86897e-07
0.000106068
1.80133e-07
0.000106089
1.72277e-07
0.000106111
1.63519e-07
0.000106133
1.54021e-07
0.000106154
1.43914e-07
0.000106176
1.33309e-07
0.000106197
1.22293e-07
0.000106218
1.10936e-07
0.000106239
9.9293e-08
0.00010626
8.74078e-08
0.000106281
7.53131e-08
0.000106301
6.30358e-08
0.000106321
5.0597e-08
0.000106341
3.80163e-08
0.00010636
2.53103e-08
0.000106379
1.24963e-08
-4.15287e-10
0.000106397
0.000108894
1.42398e-08
0.000108894
4.15483e-08
0.000108895
6.70664e-08
0.000108897
9.06786e-08
0.000108901
1.12041e-07
0.000108908
1.30767e-07
0.000108916
1.46542e-07
0.000108927
1.59205e-07
0.00010894
1.68753e-07
0.000108955
1.75313e-07
0.000108971
1.79099e-07
0.000108989
1.80378e-07
0.000109008
1.79441e-07
0.000109028
1.76578e-07
0.000109048
1.72068e-07
0.000109069
1.66162e-07
0.00010909
1.59086e-07
0.000109111
1.51039e-07
0.000109132
1.42187e-07
0.000109154
1.32674e-07
0.000109175
1.22616e-07
0.000109196
1.12113e-07
0.000109217
1.01242e-07
0.000109238
9.0067e-08
0.000109259
7.86397e-08
0.000109279
6.70003e-08
0.000109299
5.51823e-08
0.000109319
4.32124e-08
0.000109339
3.11146e-08
0.000109358
1.89097e-08
0.000109376
6.6181e-09
0.000109395
-5.74177e-09
-1.81568e-08
0.000109412
0.000112005
1.39756e-08
0.000112005
4.09337e-08
0.000112007
6.57901e-08
0.000112009
8.82218e-08
0.000112013
1.07926e-07
0.000112019
1.24666e-07
0.000112028
1.38308e-07
0.000112038
1.48847e-07
0.00011205
1.56397e-07
0.000112064
1.61154e-07
0.00011208
1.63371e-07
0.000112097
1.63325e-07
0.000112115
1.613e-07
0.000112134
1.57569e-07
0.000112154
1.52385e-07
0.000112174
1.45977e-07
0.000112195
1.38545e-07
0.000112216
1.30265e-07
0.000112236
1.21284e-07
0.000112257
1.11727e-07
0.000112278
1.01699e-07
0.000112299
9.12851e-08
0.00011232
8.0555e-08
0.00011234
6.9566e-08
0.000112361
5.83644e-08
0.000112381
4.69881e-08
0.0001124
3.54687e-08
0.00011242
2.38329e-08
0.000112439
1.21048e-08
0.000112457
3.06193e-10
0.000112475
-1.1542e-08
0.000112493
-2.34205e-08
-3.53156e-08
0.00011251
0.000115205
1.37596e-08
0.000115205
4.04542e-08
0.000115206
6.47681e-08
0.000115208
8.61568e-08
0.000115212
1.04345e-07
0.000115217
1.19232e-07
0.000115225
1.30847e-07
0.000115234
1.39337e-07
0.000115246
1.44927e-07
0.000115259
1.47891e-07
0.000115274
1.48522e-07
0.00011529
1.47115e-07
0.000115307
1.43953e-07
0.000115326
1.39295e-07
0.000115345
1.33378e-07
0.000115364
1.26407e-07
0.000115384
1.18563e-07
0.000115404
1.1e-07
0.000115425
1.00846e-07
0.000115445
9.1211e-08
0.000115466
8.11848e-08
0.000115486
7.08417e-08
0.000115507
6.02423e-08
0.000115527
4.94366e-08
0.000115547
3.84655e-08
0.000115566
2.73633e-08
0.000115586
1.61586e-08
0.000115605
4.87705e-09
0.000115623
-6.45876e-09
0.000115641
-1.78273e-08
0.000115659
-2.92085e-08
0.000115676
-4.05836e-08
-5.19401e-08
0.000115693
0.000118496
1.3709e-08
0.000118496
4.04603e-08
0.000118496
6.45127e-08
0.000118497
8.50743e-08
0.0001185
1.01901e-07
0.000118504
1.15032e-07
0.00011851
1.2467e-07
0.000118518
1.31115e-07
0.000118529
1.34718e-07
0.000118541
1.35834e-07
0.000118554
1.34808e-07
0.000118569
1.31956e-07
0.000118586
1.27566e-07
0.000118603
1.21891e-07
0.000118621
1.15151e-07
0.00011864
1.07534e-07
0.00011866
9.92012e-08
0.000118679
9.02865e-08
0.000118699
8.09023e-08
0.000118719
7.11409e-08
0.00011874
6.10789e-08
0.00011876
5.07784e-08
0.00011878
4.02911e-08
0.000118799
2.96582e-08
0.000118819
1.89153e-08
0.000118838
8.09088e-09
0.000118857
-2.78911e-09
0.000118876
-1.37029e-08
0.000118894
-2.46294e-08
0.000118912
-3.55498e-08
0.000118929
-4.64453e-08
0.000118946
-5.72995e-08
-6.81009e-08
0.000118962
0.000121881
1.39613e-08
0.00012188
4.13688e-08
0.000121879
6.56369e-08
0.000121878
8.56847e-08
0.000121879
1.01323e-07
0.000121881
1.12765e-07
0.000121886
1.20409e-07
0.000121892
1.24738e-07
0.0001219
1.26244e-07
0.000121911
1.25381e-07
0.000121923
1.22552e-07
0.000121937
1.18107e-07
0.000121952
1.12342e-07
0.000121969
1.05509e-07
0.000121986
9.78152e-08
0.000122004
8.94335e-08
0.000122023
8.05057e-08
0.000122042
7.11478e-08
0.000122061
6.14541e-08
0.000122081
5.15013e-08
0.000122101
4.13509e-08
0.00012212
3.10532e-08
0.00012214
2.06482e-08
0.000122159
1.01695e-08
0.000122179
-3.55964e-10
0.000122198
-1.09047e-08
0.000122216
-2.1457e-08
0.000122235
-3.19942e-08
0.000122253
-4.24998e-08
0.00012227
-5.29574e-08
0.000122287
-6.33521e-08
0.000122303
-7.36696e-08
-8.39016e-08
0.000122319
0.000125363
1.4704e-08
0.00012536
4.37412e-08
0.000125357
6.89542e-08
0.000125354
8.89167e-08
0.000125352
1.03554e-07
0.000125351
1.1332e-07
0.000125353
1.18864e-07
0.000125356
1.20897e-07
0.000125363
1.20084e-07
0.000125371
1.16999e-07
0.000125381
1.12122e-07
0.000125394
1.05844e-07
0.000125407
9.84809e-08
0.000125423
9.0283e-08
0.000125439
8.14497e-08
0.000125456
7.21382e-08
0.000125474
6.24721e-08
0.000125493
5.25481e-08
0.000125512
4.24421e-08
0.000125531
3.22128e-08
0.000125551
2.19062e-08
0.00012557
1.15583e-08
0.00012559
1.19718e-09
0.000125609
-9.1546e-09
0.000125628
-1.94787e-08
0.000125647
-2.97598e-08
0.000125666
-3.99844e-08
0.000125684
-5.01399e-08
0.000125701
-6.02146e-08
0.000125719
-7.01969e-08
0.000125735
-8.00757e-08
0.000125752
-8.9841e-08
-9.94875e-08
0.000125767
0.000128944
1.62238e-08
0.000128939
4.84104e-08
0.000128932
7.56324e-08
0.000128925
9.60621e-08
0.000128919
1.09868e-07
0.000128914
1.17864e-07
0.000128912
1.21047e-07
0.000128913
1.20428e-07
0.000128916
1.16901e-07
0.000128922
1.11193e-07
0.00012893
1.03881e-07
0.00012894
9.54098e-08
0.000128953
8.61203e-08
0.000128967
7.62673e-08
0.000128982
6.60407e-08
0.000128999
5.5581e-08
0.000129016
4.49913e-08
0.000129034
3.43465e-08
0.000129053
2.37006e-08
0.000129072
1.30921e-08
0.000129091
2.54862e-09
0.000129111
-7.91111e-09
0.00012913
-1.82733e-08
0.00012915
-2.85286e-08
0.000129169
-3.86698e-08
0.000129188
-4.86913e-08
0.000129206
-5.8588e-08
0.000129225
-6.8355e-08
0.000129242
-7.79869e-08
0.00012926
-8.74782e-08
0.000129276
-9.68231e-08
0.000129293
-1.06016e-07
-1.15057e-07
0.000129308
0.000132626
1.89987e-08
0.000132618
5.67004e-08
0.000132606
8.74394e-08
0.000132593
1.08991e-07
0.000132581
1.22029e-07
0.000132571
1.27932e-07
0.000132564
1.28208e-07
0.00013256
1.24296e-07
0.00013256
1.17393e-07
0.000132562
1.08426e-07
0.000132568
9.80928e-08
0.000132577
8.69082e-08
0.000132587
7.52392e-08
0.0001326
6.33431e-08
0.000132615
5.13959e-08
0.000132631
3.95159e-08
0.000132648
2.77788e-08
0.000132666
1.62323e-08
0.000132685
4.90238e-09
0.000132705
-6.19717e-09
0.000132724
-1.7063e-08
0.000132744
-2.7696e-08
0.000132764
-3.81018e-08
0.000132783
-4.82863e-08
0.000132803
-5.8257e-08
0.000132822
-6.80199e-08
0.000132841
-7.75812e-08
0.00013286
-8.69446e-08
0.000132878
-9.61137e-08
0.000132896
-1.0509e-07
0.000132913
-1.13874e-07
0.000132929
-1.22466e-07
-1.30872e-07
0.000132945
0.000136413
2.38834e-08
0.000136399
7.08233e-08
0.00013638
1.07143e-07
0.000136358
1.30457e-07
0.000136338
1.42475e-07
0.00013632
1.45494e-07
0.000136306
1.41812e-07
0.000136297
1.33493e-07
0.000136293
1.22148e-07
0.000136292
1.08956e-07
0.000136295
9.47629e-08
0.000136302
8.01525e-08
0.000136312
6.55124e-08
0.000136324
5.10888e-08
0.000136338
3.70302e-08
0.000136355
2.3418e-08
0.000136372
1.0289e-08
0.000136391
-2.34859e-09
0.00013641
-1.45049e-08
0.00013643
-2.62004e-08
0.00013645
-3.74608e-08
0.000136471
-4.83145e-08
0.000136492
-5.87892e-08
0.000136512
-6.89116e-08
0.000136533
-7.87059e-08
0.000136553
-8.81939e-08
0.000136573
-9.7394e-08
0.000136592
-1.06322e-07
0.000136611
-1.14991e-07
0.000136629
-1.23412e-07
0.000136647
-1.31593e-07
0.000136664
-1.39541e-07
-1.47266e-07
0.000136681
0.000140307
3.24971e-08
0.000140283
9.46143e-08
0.000140251
1.39149e-07
0.000140217
1.64507e-07
0.000140185
1.74484e-07
0.000140158
1.72911e-07
0.000140136
1.63344e-07
0.000140121
1.48775e-07
0.000140112
1.31358e-07
0.000140108
1.12563e-07
0.00014011
9.33799e-08
0.000140115
7.44405e-08
0.000140125
5.61199e-08
0.000140137
3.86198e-08
0.000140152
2.20309e-08
0.000140169
6.37235e-09
0.000140188
-8.3789e-09
0.000140208
-2.22716e-08
0.000140229
-3.53656e-08
0.00014025
-4.77263e-08
0.000140272
-5.94179e-08
0.000140294
-7.05023e-08
0.000140317
-8.10355e-08
0.000140339
-9.10694e-08
0.000140361
-1.00649e-07
0.000140382
-1.09813e-07
0.000140404
-1.18597e-07
0.000140424
-1.2703e-07
0.000140444
-1.35135e-07
0.000140464
-1.42935e-07
0.000140483
-1.50446e-07
0.000140501
-1.57683e-07
-1.64662e-07
0.000140518
0.000144309
4.80895e-08
0.000144269
1.34881e-07
0.000144217
1.90456e-07
0.000144165
2.16908e-07
0.000144117
2.22153e-07
0.000144078
2.12593e-07
0.000144047
1.93821e-07
0.000144026
1.70145e-07
0.000144013
1.44339e-07
0.000144007
1.18127e-07
0.000144008
9.25716e-08
0.000144014
6.82753e-08
0.000144025
4.55231e-08
0.000144039
2.44086e-08
0.000144056
4.91296e-09
0.000144076
-1.30449e-08
0.000144097
-2.95795e-08
0.000144119
-4.48175e-08
0.000144143
-5.88875e-08
0.000144167
-7.19115e-08
0.000144192
-8.40029e-08
0.000144216
-9.52639e-08
0.000144241
-1.05786e-07
0.000144266
-1.15649e-07
0.00014429
-1.24922e-07
0.000144314
-1.33667e-07
0.000144337
-1.41935e-07
0.00014436
-1.4977e-07
0.000144382
-1.5721e-07
0.000144403
-1.64287e-07
0.000144424
-1.71028e-07
0.000144444
-1.77456e-07
-1.83595e-07
0.000144463
0.000148418
7.7597e-08
0.000148349
2.03835e-07
0.000148268
2.71861e-07
0.00014819
2.95288e-07
0.000148122
2.89826e-07
0.000148069
2.66077e-07
0.00014803
2.32813e-07
0.000148004
1.95994e-07
0.000147989
1.58843e-07
0.000147984
1.23096e-07
0.000147987
8.96989e-08
0.000147996
5.90528e-08
0.000148011
3.12204e-08
0.000148029
6.08679e-09
0.00014805
-1.65458e-08
0.000148074
-3.69102e-08
0.0001481
-5.5247e-08
0.000148127
-7.17882e-08
0.000148155
-8.67478e-08
0.000148183
-1.00319e-07
0.000148212
-1.12673e-07
0.000148241
-1.23961e-07
0.000148269
-1.34312e-07
0.000148297
-1.43841e-07
0.000148325
-1.52644e-07
0.000148352
-1.60804e-07
0.000148379
-1.68392e-07
0.000148404
-1.7547e-07
0.000148429
-1.82089e-07
0.000148453
-1.88292e-07
0.000148476
-1.94116e-07
0.000148498
-1.99594e-07
-2.04756e-07
0.00014852
0.000152631
1.36095e-07
0.000152511
3.23597e-07
0.000152383
3.99249e-07
0.00015227
4.08277e-07
0.00015218
3.80306e-07
0.000152114
3.321e-07
0.00015207
2.76848e-07
0.000152044
2.21921e-07
0.000152033
1.70206e-07
0.000152033
1.22874e-07
0.000152042
8.03878e-08
0.000152059
4.26881e-08
0.00015208
9.42725e-09
0.000152106
-1.98411e-08
0.000152135
-4.55729e-08
0.000152167
-6.82052e-08
0.000152199
-8.81405e-08
0.000152233
-1.0574e-07
0.000152268
-1.2132e-07
0.000152303
-1.35155e-07
0.000152338
-1.47484e-07
0.000152372
-1.5851e-07
0.000152406
-1.68406e-07
0.00015244
-1.77321e-07
0.000152473
-1.85381e-07
0.000152504
-1.92694e-07
0.000152535
-1.9935e-07
0.000152565
-2.05427e-07
0.000152594
-2.1099e-07
0.000152622
-2.16095e-07
0.000152649
-2.20789e-07
0.000152674
-2.25113e-07
-2.29103e-07
0.000152699
0.000156933
2.54129e-07
0.000156722
5.34905e-07
0.000156526
5.95142e-07
0.000156371
5.63214e-07
0.00015626
4.9137e-07
0.000156189
4.03414e-07
0.000156149
3.17055e-07
0.000156132
2.39074e-07
0.000156132
1.70098e-07
0.000156145
1.09774e-07
0.000156168
5.76147e-08
0.000156197
1.27782e-08
0.000156233
-2.57072e-08
0.000156271
-5.87395e-08
0.000156313
-8.7103e-08
0.000156356
-1.1148e-07
0.000156401
-1.32465e-07
0.000156445
-1.50567e-07
0.00015649
-1.66216e-07
0.000156535
-1.79776e-07
0.000156579
-1.91557e-07
0.000156622
-2.01818e-07
0.000156665
-2.10777e-07
0.000156706
-2.18619e-07
0.000156746
-2.25499e-07
0.000156785
-2.31548e-07
0.000156822
-2.36877e-07
0.000156859
-2.41579e-07
0.000156893
-2.45733e-07
0.000156927
-2.49405e-07
0.000156959
-2.52654e-07
0.000156989
-2.55527e-07
-2.58071e-07
0.000157018
0.00016129
5.02253e-07
0.000160918
9.06969e-07
0.00016063
8.83617e-07
0.000160432
7.60799e-07
0.000160312
6.1112e-07
0.000160253
4.62977e-07
0.000160234
3.36365e-07
0.000160241
2.31802e-07
0.000160267
1.44178e-07
0.000160306
7.05657e-08
0.000160354
9.1624e-09
0.000160409
-4.19677e-08
0.000160468
-8.46292e-08
0.00016053
-1.20282e-07
0.000160593
-1.5009e-07
0.000160656
-1.7502e-07
0.00016072
-1.95883e-07
0.000160782
-2.13353e-07
0.000160844
-2.27984e-07
0.000160905
-2.40236e-07
0.000160964
-2.5049e-07
0.000161021
-2.59063e-07
0.000161076
-2.66216e-07
0.00016113
-2.72169e-07
0.000161181
-2.77103e-07
0.000161231
-2.8117e-07
0.000161279
-2.84498e-07
0.000161324
-2.87191e-07
0.000161368
-2.89338e-07
0.000161409
-2.91014e-07
0.000161449
-2.92279e-07
0.000161487
-2.93183e-07
-2.93777e-07
0.000161522
0.000165509
1.14675e-06
0.000164895
1.52075e-06
0.000164546
1.23314e-06
0.000164348
9.58443e-07
0.000164265
6.94169e-07
0.000164259
4.695e-07
0.000164294
3.00628e-07
0.000164355
1.70998e-07
0.000164433
6.63863e-08
0.000164522
-1.86376e-08
0.000164618
-8.71631e-08
0.000164719
-1.42319e-07
0.000164821
-1.86813e-07
0.000164923
-2.22692e-07
0.000165025
-2.51535e-07
0.000165124
-2.74633e-07
0.000165222
-2.93052e-07
0.000165316
-3.07656e-07
0.000165407
-3.1914e-07
0.000165495
-3.28069e-07
0.000165579
-3.34901e-07
0.00016566
-3.40007e-07
0.000165738
-3.43693e-07
0.000165812
-3.46207e-07
0.000165882
-3.47752e-07
0.00016595
-3.48495e-07
0.000166014
-3.48576e-07