/*--------------------------------*- C++ -*----------------------------------*\
| =========                 |                                                 |
| \\      /  F ield         | OpenFOAM: The Open Source CFD Toolbox           |
|  \\    /   O peration     | Version:  4.1                                   |
|   \\  /    A nd           | Web:      www.OpenFOAM.org                      |
|    \\/     M anipulation  |                                                 |
\*---------------------------------------------------------------------------*/
FoamFile
{
    version     2.0;
    format      ascii;
    class       volVectorField;
    location    "800";
    object      U;
}
// * * * * * * * * * * * * * * * * * * * * * * * * * * * * * * * * * * * * * //

dimensions      [0 1 -1 0 0 0 0];

internalField   nonuniform List<vector> 
6820
(
(7.12051 -2.89958 0)
(7.72183 -2.2784 0)
(7.93531 -1.28315 0)
(7.87961 -0.658565 0)
(7.73232 -0.320701 0)
(7.56973 -0.148361 0)
(7.41011 -0.061684 0)
(7.26102 -0.0176568 0)
(7.12627 0.0048136 0)
(7.00568 0.0160263 0)
(6.89736 0.0212391 0)
(6.79957 0.0232366 0)
(6.71095 0.0235136 0)
(6.63035 0.022881 0)
(6.55676 0.0217884 0)
(6.48933 0.0204895 0)
(6.42736 0.0191278 0)
(6.37025 0.0177823 0)
(6.31749 0.0164954 0)
(6.26864 0.0152878 0)
(6.22331 0.0141682 0)
(6.18117 0.0131385 0)
(6.14192 0.0121968 0)
(6.10528 0.0113399 0)
(6.07102 0.0105646 0)
(6.03891 0.00986891 0)
(6.00872 0.00925414 0)
(5.98024 0.00872381 0)
(5.95326 0.00830322 0)
(5.92736 0.00798316 0)
(5.90259 0.00793263 0)
(5.87648 0.00802565 0)
(5.85617 0.00699958 0)
(7.59884 0.654127 0)
(7.43304 0.77761 0)
(7.36112 0.527756 0)
(7.34933 0.342769 0)
(7.39535 0.234375 0)
(7.45299 0.166654 0)
(7.49513 0.123346 0)
(7.51885 0.0959958 0)
(7.52909 0.0783847 0)
(7.52978 0.0664994 0)
(7.52339 0.0581226 0)
(7.51187 0.052022 0)
(7.49681 0.0474349 0)
(7.47936 0.0438625 0)
(7.46029 0.040984 0)
(7.44017 0.0385946 0)
(7.41941 0.0365606 0)
(7.39834 0.0347914 0)
(7.37716 0.0332248 0)
(7.35606 0.0318179 0)
(7.33517 0.0305407 0)
(7.31456 0.029372 0)
(7.29433 0.028297 0)
(7.2745 0.0273059 0)
(7.25513 0.0263932 0)
(7.23622 0.0255579 0)
(7.21781 0.0248054 0)
(7.19987 0.0241462 0)
(7.18245 0.0236166 0)
(7.16543 0.023229 0)
(7.14922 0.0232288 0)
(7.13281 0.0232584 0)
(7.12002 0.0260206 0)
(7.25567 -0.0497305 0)
(7.16457 -0.0746215 0)
(7.20132 -0.0871774 0)
(7.24037 -0.0571868 0)
(7.27477 -0.0216431 0)
(7.31088 0.00195963 0)
(7.34256 0.0166247 0)
(7.36741 0.0264412 0)
(7.38684 0.0329443 0)
(7.40194 0.0369142 0)
(7.41321 0.0391183 0)
(7.42121 0.0401878 0)
(7.42656 0.0405295 0)
(7.4298 0.0403911 0)
(7.43131 0.0399372 0)
(7.43141 0.0392834 0)
(7.43036 0.0385078 0)
(7.42838 0.0376625 0)
(7.42565 0.0367822 0)
(7.42231 0.0358908 0)
(7.41847 0.0350048 0)
(7.41423 0.034136 0)
(7.40968 0.033293 0)
(7.40487 0.0324831 0)
(7.39987 0.0317135 0)
(7.39472 0.0309923 0)
(7.38945 0.0303324 0)
(7.38409 0.0297487 0)
(7.37868 0.0292806 0)
(7.37319 0.0289428 0)
(7.36778 0.0289201 0)
(7.36221 0.0290591 0)
(7.35755 0.0305074 0)
(7.29108 -0.091508 0)
(7.22275 -0.0639328 0)
(7.23474 -0.0294729 0)
(7.25082 -0.00392902 0)
(7.2644 0.0156013 0)
(7.28272 0.0269927 0)
(7.30139 0.032907 0)
(7.31764 0.0363617 0)
(7.33189 0.0384835 0)
(7.34452 0.0396056 0)
(7.35544 0.0400333 0)
(7.36469 0.0400428 0)
(7.37248 0.039798 0)
(7.379 0.0393837 0)
(7.38442 0.0388547 0)
(7.38888 0.0382522 0)
(7.39252 0.0376048 0)
(7.39545 0.0369316 0)
(7.39777 0.0362459 0)
(7.39957 0.0355576 0)
(7.40091 0.0348742 0)
(7.40187 0.0342021 0)
(7.4025 0.0335467 0)
(7.40283 0.0329139 0)
(7.40292 0.0323105 0)
(7.4028 0.0317452 0)
(7.40249 0.0312313 0)
(7.40203 0.0307857 0)
(7.40144 0.0304422 0)
(7.40074 0.030226 0)
(7.40003 0.0302515 0)
(7.39929 0.0304589 0)
(7.39897 0.0313348 0)
(7.31214 -0.0522565 0)
(7.26645 -0.0334735 0)
(7.26326 -0.0148422 0)
(7.26623 -0.00264956 0)
(7.27139 0.0101301 0)
(7.28196 0.0195665 0)
(7.29393 0.0252594 0)
(7.3049 0.0290472 0)
(7.31503 0.0317851 0)
(7.32449 0.0336491 0)
(7.33312 0.0348208 0)
(7.34087 0.0355139 0)
(7.3478 0.0358739 0)
(7.35399 0.0359866 0)
(7.35951 0.0359132 0)
(7.36444 0.0357028 0)
(7.36882 0.0353926 0)
(7.37274 0.0350097 0)
(7.37623 0.0345746 0)
(7.37934 0.0341031 0)
(7.38213 0.0336082 0)
(7.38462 0.0331003 0)
(7.38685 0.0325886 0)
(7.38886 0.032082 0)
(7.39067 0.0315896 0)
(7.3923 0.0311222 0)
(7.39377 0.0306936 0)
(7.39512 0.0303206 0)
(7.39636 0.0300303 0)
(7.39754 0.0298464 0)
(7.39871 0.0298313 0)
(7.39994 0.0299649 0)
(7.40146 0.0304219 0)
(7.32016 -0.0320514 0)
(7.28758 -0.0252462 0)
(7.28069 -0.0140966 0)
(7.27975 -0.00455731 0)
(7.28192 0.0065014 0)
(7.28854 0.0153379 0)
(7.29664 0.021117 0)
(7.30442 0.0251343 0)
(7.31183 0.0280996 0)
(7.31895 0.0301949 0)
(7.32565 0.0315979 0)
(7.33185 0.0325092 0)
(7.33756 0.0330703 0)
(7.34284 0.0333686 0)
(7.3477 0.0334669 0)
(7.35218 0.033415 0)
(7.35632 0.0332504 0)
(7.36014 0.0330012 0)
(7.36367 0.0326886 0)
(7.36695 0.0323293 0)
(7.37 0.0319368 0)
(7.37285 0.0315221 0)
(7.37551 0.031095 0)
(7.378 0.0306648 0)
(7.38035 0.0302407 0)
(7.38257 0.0298331 0)
(7.38468 0.0294543 0)
(7.3867 0.0291186 0)
(7.38867 0.0288453 0)
(7.3906 0.0286516 0)
(7.39257 0.0285674 0)
(7.39463 0.0285802 0)
(7.39692 0.0287354 0)
(7.32441 -0.0221713 0)
(7.30054 -0.0208447 0)
(7.2931 -0.0128346 0)
(7.29071 -0.00453498 0)
(7.29137 0.00495607 0)
(7.29565 0.0128535 0)
(7.3014 0.0183644 0)
(7.30722 0.0223259 0)
(7.31294 0.0252855 0)
(7.31855 0.0274279 0)
(7.32392 0.0289207 0)
(7.32898 0.0299392 0)
(7.33375 0.0306111 0)
(7.33822 0.0310192 0)
(7.34242 0.0312242 0)
(7.34637 0.0312737 0)
(7.35007 0.0312041 0)
(7.35357 0.0310427 0)
(7.35687 0.0308106 0)
(7.35999 0.0305248 0)
(7.36294 0.0301986 0)
(7.36576 0.0298434 0)
(7.36844 0.029469 0)
(7.371 0.0290845 0)
(7.37346 0.0286988 0)
(7.37583 0.0283211 0)
(7.37814 0.0279617 0)
(7.38039 0.0276315 0)
(7.38261 0.0273428 0)
(7.38483 0.0271049 0)
(7.38711 0.0269276 0)
(7.3895 0.0267948 0)
(7.39208 0.0266975 0)
(7.32735 -0.0153979 0)
(7.30976 -0.0162704 0)
(7.30244 -0.0106192 0)
(7.29932 -0.0037864 0)
(7.29908 0.00415979 0)
(7.30187 0.0110826 0)
(7.30609 0.0162175 0)
(7.31062 0.0200399 0)
(7.31523 0.0229406 0)
(7.31983 0.0250864 0)
(7.32431 0.0266266 0)
(7.32859 0.0277114 0)
(7.33267 0.0284544 0)
(7.33654 0.028934 0)
(7.34023 0.0292085 0)
(7.34373 0.0293237 0)
(7.34705 0.0293149 0)
(7.35023 0.029209 0)
(7.35326 0.0290272 0)
(7.35616 0.0287862 0)
(7.35894 0.0284995 0)
(7.36161 0.0281783 0)
(7.36419 0.0278324 0)
(7.36669 0.0274704 0)
(7.36912 0.0271004 0)
(7.37148 0.0267302 0)
(7.37381 0.0263678 0)
(7.3761 0.0260205 0)
(7.37839 0.0256948 0)
(7.38071 0.025393 0)
(7.38308 0.0251128 0)
(7.38556 0.0248345 0)
(7.38819 0.0245292 0)
(7.32939 -0.0103228 0)
(7.31652 -0.0120774 0)
(7.30969 -0.00829733 0)
(7.30624 -0.00285146 0)
(7.30542 0.00374845 0)
(7.30719 0.00977351 0)
(7.31032 0.0144938 0)
(7.31393 0.0181297 0)
(7.31775 0.0209378 0)
(7.32163 0.0230554 0)
(7.32546 0.0246109 0)
(7.32918 0.0257317 0)
(7.33276 0.0265183 0)
(7.33619 0.0270437 0)
(7.33948 0.0273638 0)
(7.34263 0.0275223 0)
(7.34566 0.0275534 0)
(7.34857 0.0274835 0)
(7.35136 0.0273335 0)
(7.35406 0.0271199 0)
(7.35667 0.026856 0)
(7.3592 0.0265531 0)
(7.36165 0.0262203 0)
(7.36405 0.0258658 0)
(7.36639 0.0254966 0)
(7.3687 0.0251193 0)
(7.37098 0.0247393 0)
(7.37325 0.0243607 0)
(7.37553 0.0239856 0)
(7.37784 0.0236114 0)
(7.38021 0.023229 0)
(7.38267 0.0228171 0)
(7.38524 0.0223425 0)
(7.33074 -0.00670191 0)
(7.32148 -0.00859959 0)
(7.31542 -0.00610278 0)
(7.31195 -0.00180888 0)
(7.31077 0.00363699 0)
(7.31179 0.00883577 0)
(7.31411 0.0131137 0)
(7.31701 0.0165192 0)
(7.32021 0.0192003 0)
(7.32353 0.0212595 0)
(7.32687 0.0228022 0)
(7.33016 0.0239343 0)
(7.33335 0.0247435 0)
(7.33644 0.0252965 0)
(7.33943 0.0256456 0)
(7.34231 0.0258325 0)
(7.3451 0.0258897 0)
(7.34779 0.0258429 0)
(7.35039 0.0257127 0)
(7.35292 0.0255151 0)
(7.35537 0.0252634 0)
(7.35777 0.0249682 0)
(7.36011 0.0246383 0)
(7.3624 0.0242813 0)
(7.36466 0.0239032 0)
(7.36689 0.023509 0)
(7.36911 0.0231022 0)
(7.37132 0.0226845 0)
(7.37355 0.0222546 0)
(7.37581 0.0218067 0)
(7.37813 0.021329 0)
(7.38051 0.0208003 0)
(7.38298 0.0201897 0)
(7.33161 -0.00420197 0)
(7.32508 -0.00581022 0)
(7.31996 -0.00410038 0)
(7.31671 -0.000716137 0)
(7.31534 0.00374771 0)
(7.31583 0.00819105 0)
(7.31753 0.0120139 0)
(7.31985 0.0151551 0)
(7.32254 0.0176789 0)
(7.32541 0.0196528 0)
(7.32835 0.0211579 0)
(7.33128 0.0222802 0)
(7.33417 0.0230941 0)
(7.33698 0.0236596 0)
(7.33972 0.0240247 0)
(7.34239 0.0242282 0)
(7.34497 0.0243011 0)
(7.34749 0.0242682 0)
(7.34993 0.024149 0)
(7.35231 0.0239594 0)
(7.35464 0.0237121 0)
(7.35692 0.0234173 0)
(7.35915 0.0230834 0)
(7.36135 0.0227171 0)
(7.36352 0.0223236 0)
(7.36567 0.0219065 0)
(7.36782 0.0214678 0)
(7.36997 0.0210073 0)
(7.37213 0.0205217 0)
(7.37432 0.0200036 0)
(7.37656 0.0194405 0)
(7.37885 0.0188132 0)
(7.3812 0.0180948 0)
(7.33217 -0.00250027 0)
(7.32765 -0.00362251 0)
(7.32352 -0.00234644 0)
(7.32064 0.000351379 0)
(7.31925 0.00400132 0)
(7.31938 0.00776977 0)
(7.3206 0.0111434 0)
(7.32247 0.0139992 0)
(7.32473 0.0163419 0)
(7.32722 0.018207 0)
(7.32982 0.0196526 0)
(7.33245 0.0207458 0)
(7.33507 0.0215485 0)
(7.33765 0.0221128 0)
(7.34019 0.0224823 0)
(7.34267 0.0226925 0)
(7.34509 0.0227725 0)
(7.34745 0.0227455 0)
(7.34976 0.0226305 0)
(7.35202 0.0224425 0)
(7.35423 0.0221938 0)
(7.3564 0.0218941 0)
(7.35854 0.0215511 0)
(7.36065 0.0211708 0)
(7.36274 0.0207576 0)
(7.36482 0.0203141 0)
(7.36689 0.0198412 0)
(7.36897 0.0193373 0)
(7.37106 0.0187982 0)
(7.37317 0.018216 0)
(7.37532 0.0175787 0)
(7.3775 0.0168699 0)
(7.37972 0.0160673 0)
(7.33251 -0.00135801 0)
(7.32945 -0.0019525 0)
(7.32626 -0.000877913 0)
(7.32385 0.00132748 0)
(7.32255 0.00432589 0)
(7.32248 0.00750905 0)
(7.32335 0.0104562 0)
(7.32485 0.0130193 0)
(7.32676 0.0151647 0)
(7.32892 0.0169022 0)
(7.33123 0.0182693 0)
(7.3336 0.0193162 0)
(7.33599 0.0200927 0)
(7.33837 0.0206433 0)
(7.34073 0.0210065 0)
(7.34304 0.0212143 0)
(7.34532 0.0212934 0)
(7.34755 0.0212657 0)
(7.34974 0.0211489 0)
(7.35189 0.0209573 0)
(7.354 0.0207024 0)
(7.35608 0.0203935 0)
(7.35814 0.0200376 0)
(7.36017 0.0196402 0)
(7.36218 0.0192047 0)
(7.36419 0.0187332 0)
(7.36619 0.0182256 0)
(7.36819 0.0176798 0)
(7.3702 0.0170911 0)
(7.37223 0.0164519 0)
(7.37428 0.0157517 0)
(7.37635 0.0149767 0)
(7.37845 0.0141095 0)
(7.33272 -0.000604601 0)
(7.33069 -0.00071465 0)
(7.32832 0.000298489 0)
(7.3264 0.00216647 0)
(7.3253 0.00466034 0)
(7.32514 0.00735121 0)
(7.32578 0.00990854 0)
(7.327 0.0121844 0)
(7.32862 0.0141248 0)
(7.33051 0.0157212 0)
(7.33256 0.0169944 0)
(7.33471 0.01798 0)
(7.3369 0.018717 0)
(7.3391 0.0192424 0)
(7.34129 0.0195892 0)
(7.34346 0.0197861 0)
(7.34561 0.0198571 0)
(7.34772 0.0198225 0)
(7.3498 0.0196985 0)
(7.35185 0.0194987 0)
(7.35388 0.0192338 0)
(7.35587 0.0189123 0)
(7.35785 0.0185407 0)
(7.3598 0.0181239 0)
(7.36174 0.0176649 0)
(7.36367 0.0171649 0)
(7.3656 0.0166236 0)
(7.36753 0.0160385 0)
(7.36946 0.015405 0)
(7.37141 0.0147165 0)
(7.37336 0.0139639 0)
(7.37532 0.0131362 0)
(7.3773 0.01222 0)
(7.33284 -0.00011743 0)
(7.33153 0.000175311 0)
(7.32984 0.00120024 0)
(7.3284 0.00284421 0)
(7.32753 0.00495738 0)
(7.32738 0.00724551 0)
(7.32788 0.0094584 0)
(7.3289 0.0114633 0)
(7.33029 0.0131993 0)
(7.33195 0.0146472 0)
(7.33379 0.0158153 0)
(7.33574 0.0167276 0)
(7.33775 0.0174135 0)
(7.33978 0.0179032 0)
(7.34183 0.0182247 0)
(7.34387 0.0184028 0)
(7.3459 0.0184591 0)
(7.34791 0.0184117 0)
(7.34989 0.0182758 0)
(7.35185 0.0180636 0)
(7.35379 0.0177853 0)
(7.35571 0.0174484 0)
(7.3576 0.0170592 0)
(7.35949 0.0166217 0)
(7.36136 0.0161385 0)
(7.36322 0.0156106 0)
(7.36507 0.0150373 0)
(7.36693 0.0144163 0)
(7.36878 0.0137434 0)
(7.37064 0.0130129 0)
(7.3725 0.0122176 0)
(7.37436 0.0113487 0)
(7.37621 0.0103962 0)
(7.33292 0.000190307 0)
(7.33209 0.000793967 0)
(7.33093 0.00185944 0)
(7.32991 0.00335558 0)
(7.32929 0.00518557 0)
(7.32921 0.007151 0)
(7.32965 0.00906799 0)
(7.33053 0.0108255 0)
(7.33176 0.0123652 0)
(7.33323 0.013663 0)
(7.33489 0.0147194 0)
(7.33666 0.0155494 0)
(7.33851 0.016175 0)
(7.34041 0.0166202 0)
(7.34232 0.0169081 0)
(7.34425 0.0170604 0)
(7.34616 0.0170958 0)
(7.34807 0.0170305 0)
(7.34996 0.0168782 0)
(7.35184 0.0166502 0)
(7.3537 0.0163554 0)
(7.35554 0.0160011 0)
(7.35736 0.0155926 0)
(7.35918 0.0151337 0)
(7.36098 0.0146265 0)
(7.36277 0.0140718 0)
(7.36455 0.013469 0)
(7.36633 0.0128158 0)
(7.36811 0.0121089 0)
(7.36988 0.0113434 0)
(7.37164 0.0105138 0)
(7.3734 0.00961349 0)
(7.37515 0.00863501 0)
(7.33296 0.000378719 0)
(7.33245 0.00120672 0)
(7.33171 0.00231484 0)
(7.33104 0.00371001 0)
(7.33065 0.00532893 0)
(7.33067 0.00703844 0)
(7.3311 0.00870615 0)
(7.3319 0.0102438 0)
(7.33299 0.0116002 0)
(7.33432 0.0127514 0)
(7.33583 0.0136935 0)
(7.33746 0.0144357 0)
(7.33917 0.0149941 0)
(7.34094 0.0153875 0)
(7.34273 0.0156353 0)
(7.34455 0.0157555 0)
(7.34637 0.0157646 0)
(7.34818 0.0156768 0)
(7.34999 0.0155043 0)
(7.35178 0.0152572 0)
(7.35357 0.0149436 0)
(7.35534 0.01457 0)
(7.35709 0.0141413 0)
(7.35883 0.0136607 0)
(7.36057 0.0131301 0)
(7.36229 0.0125503 0)
(7.364 0.0119206 0)
(7.3657 0.0112393 0)
(7.3674 0.0105035 0)
(7.36909 0.00970963 0)
(7.37077 0.00885329 0)
(7.37243 0.00792969 0)
(7.37407 0.00693353 0)
(7.33298 0.00048871 0)
(7.33269 0.0014671 0)
(7.33224 0.00260627 0)
(7.33185 0.00392644 0)
(7.33167 0.00538458 0)
(7.33179 0.00689057 0)
(7.33224 0.0083501 0)
(7.33298 0.00969537 0)
(7.33399 0.0108845 0)
(7.33521 0.0118962 0)
(7.3366 0.0127251 0)
(7.3381 0.0133768 0)
(7.33969 0.0138634 0)
(7.34135 0.0141999 0)
(7.34304 0.0144019 0)
(7.34475 0.014485 0)
(7.34648 0.0144632 0)
(7.34821 0.0143489 0)
(7.34994 0.0141528 0)
(7.35165 0.0138839 0)
(7.35336 0.0135496 0)
(7.35506 0.0131555 0)
(7.35675 0.0127059 0)
(7.35843 0.0122038 0)
(7.36009 0.011651 0)
(7.36174 0.011048 0)
(7.36338 0.0103944 0)
(7.36501 0.00968887 0)
(7.36663 0.00892921 0)
(7.36824 0.00811271 0)
(7.36983 0.0072362 0)
(7.3714 0.0062963 0)
(7.37295 0.00528928 0)
(7.33299 0.000547808 0)
(7.33284 0.00161758 0)
(7.33261 0.00277108 0)
(7.33242 0.00402875 0)
(7.3324 0.00535946 0)
(7.33261 0.00670091 0)
(7.33309 0.00798601 0)
(7.33381 0.00916397 0)
(7.33476 0.0102022 0)
(7.33589 0.0110833 0)
(7.33717 0.0118024 0)
(7.33858 0.0123636 0)
(7.34006 0.012776 0)
(7.34162 0.0130518 0)
(7.34321 0.0132042 0)
(7.34484 0.0132461 0)
(7.34648 0.0131896 0)
(7.34812 0.0130454 0)
(7.34977 0.0128231 0)
(7.35142 0.0125303 0)
(7.35306 0.0121736 0)
(7.35469 0.0117581 0)
(7.35631 0.0112875 0)
(7.35792 0.0107645 0)
(7.35951 0.0101907 0)
(7.3611 0.00956672 0)
(7.36267 0.00889223 0)
(7.36423 0.00816631 0)
(7.36577 0.00738742 0)
(7.3673 0.00655362 0)
(7.3688 0.00566271 0)
(7.37029 0.00471241 0)
(7.37174 0.00370019 0)
(7.333 0.000574454 0)
(7.33294 0.00169124 0)
(7.33284 0.0028424 0)
(7.3328 0.00404245 0)
(7.3329 0.00526701 0)
(7.33318 0.00647163 0)
(7.33368 0.00760846 0)
(7.33439 0.00864016 0)
(7.33528 0.0095424 0)
(7.33635 0.0103023 0)
(7.33755 0.0109165 0)
(7.33886 0.0113884 0)
(7.34026 0.0117258 0)
(7.34172 0.0119388 0)
(7.34323 0.0120387 0)
(7.34477 0.0120364 0)
(7.34633 0.0119423 0)
(7.3479 0.0117657 0)
(7.34948 0.0115148 0)
(7.35105 0.0111965 0)
(7.35262 0.0108163 0)
(7.35419 0.0103789 0)
(7.35574 0.00988744 0)
(7.35728 0.00934437 0)
(7.35881 0.00875111 0)
(7.36033 0.0081083 0)
(7.36183 0.00741589 0)
(7.36332 0.00667328 0)
(7.36478 0.00587943 0)
(7.36623 0.00503308 0)
(7.36766 0.00413282 0)
(7.36906 0.00317717 0)
(7.37043 0.00216451 0)
(7.333 0.000581073 0)
(7.33299 0.00171362 0)
(7.33299 0.0028488 0)
(7.33304 0.00399264 0)
(7.33321 0.00512443 0)
(7.33354 0.00621139 0)
(7.33405 0.00721925 0)
(7.33473 0.00812122 0)
(7.33559 0.00890009 0)
(7.33659 0.00954731 0)
(7.33772 0.0100614 0)
(7.33895 0.0104462 0)
(7.34026 0.0107086 0)
(7.34164 0.0108578 0)
(7.34307 0.0109032 0)
(7.34453 0.0108544 0)
(7.34601 0.0107205 0)
(7.34751 0.0105094 0)
(7.34902 0.0102283 0)
(7.35052 0.00988305 0)
(7.35203 0.00947869 0)
(7.35352 0.00901907 0)
(7.35501 0.00850711 0)
(7.35649 0.00794492 0)
(7.35795 0.00733382 0)
(7.3594 0.00667447 0)
(7.36084 0.005967 0)
(7.36225 0.00521111 0)
(7.36365 0.00440621 0)
(7.36502 0.00355156 0)
(7.36637 0.00264632 0)
(7.36769 0.00168968 0)
(7.36898 0.000680623 0)
(7.333 0.00057623 0)
(7.33302 0.0017047 0)
(7.33306 0.00281472 0)
(7.33316 0.00390314 0)
(7.33337 0.00495099 0)
(7.33372 0.00593341 0)
(7.33422 0.00682606 0)
(7.33487 0.00761052 0)
(7.33568 0.00827571 0)
(7.33662 0.00881706 0)
(7.33767 0.0092353 0)
(7.33883 0.00953494 0)
(7.34006 0.00972289 0)
(7.34136 0.00980735 0)
(7.34271 0.0097969 0)
(7.34409 0.00969995 0)
(7.3455 0.00952432 0)
(7.34693 0.00927706 0)
(7.34837 0.00896429 0)
(7.3498 0.00859119 0)
(7.35124 0.00816201 0)
(7.35267 0.00768012 0)
(7.3541 0.00714811 0)
(7.35551 0.00656781 0)
(7.35691 0.00594043 0)
(7.3583 0.00526668 0)
(7.35966 0.00454681 0)
(7.36101 0.00378077 0)
(7.36233 0.0029683 0)
(7.36364 0.00210907 0)
(7.36491 0.0012027 0)
(7.36616 0.000248799 0)
(7.36737 -0.000753178 0)
(7.333 0.000566134 0)
(7.33303 0.00168059 0)
(7.33309 0.00276157 0)
(7.3332 0.00379653 0)
(7.33341 0.00476713 0)
(7.33373 0.00565425 0)
(7.3342 0.00644124 0)
(7.33481 0.0071167 0)
(7.33556 0.00767497 0)
(7.33643 0.00811526 0)
(7.33741 0.00844053 0)
(7.33849 0.00865636 0)
(7.33964 0.00876984 0)
(7.34086 0.00878879 0)
(7.34213 0.0087211 0)
(7.34344 0.00857428 0)
(7.34477 0.00835528 0)
(7.34613 0.00807023 0)
(7.3475 0.00772446 0)
(7.34887 0.00732245 0)
(7.35024 0.00686787 0)
(7.35161 0.00636361 0)
(7.35297 0.00581192 0)
(7.35432 0.00521441 0)
(7.35566 0.00457218 0)
(7.35698 0.00388593 0)
(7.35828 0.00315601 0)
(7.35956 0.00238256 0)
(7.36082 0.00156558 0)
(7.36205 0.000705001 0)
(7.36326 -0.000199222 0)
(7.36443 -0.00114717 0)
(7.36557 -0.00213908 0)
(7.333 0.000555724 0)
(7.33302 0.0016553 0)
(7.33307 0.00270913 0)
(7.33315 0.00369502 0)
(7.33333 0.00459459 0)
(7.33361 0.00539337 0)
(7.33402 0.00608125 0)
(7.33456 0.00665315 0)
(7.33523 0.00710853 0)
(7.33602 0.0074503 0)
(7.33691 0.00768378 0)
(7.3379 0.00781581 0)
(7.33898 0.00785395 0)
(7.34011 0.00780589 0)
(7.3413 0.00767906 0)
(7.34253 0.00748034 0)
(7.34379 0.00721592 0)
(7.34508 0.00689122 0)
(7.34638 0.00651086 0)
(7.34768 0.00607871 0)
(7.34899 0.0055979 0)
(7.35029 0.00507092 0)
(7.35159 0.00449967 0)
(7.35288 0.00388556 0)
(7.35416 0.00322957 0)
(7.35542 0.00253238 0)
(7.35666 0.00179437 0)
(7.35788 0.00101581 0)
(7.35907 0.000196867 0)
(7.36024 -0.000662327 0)
(7.36138 -0.00156162 0)
(7.36249 -0.00250088 0)
(7.36357 -0.00348018 0)
(7.333 0.000549509 0)
(7.333 0.00164237 0)
(7.333 0.00267738 0)
(7.33304 0.00362194 0)
(7.33314 0.00445734 0)
(7.33334 0.00517355 0)
(7.33365 0.00576666 0)
(7.3341 0.00623783 0)
(7.33467 0.00659172 0)
(7.33536 0.00683509 0)
(7.33616 0.00697583 0)
(7.33706 0.00702227 0)
(7.33804 0.00698267 0)
(7.33909 0.00686483 0)
(7.34019 0.00667592 0)
(7.34134 0.00642235 0)
(7.34253 0.00610972 0)
(7.34374 0.00574281 0)
(7.34497 0.00532565 0)
(7.34621 0.00486156 0)
(7.34745 0.00435319 0)
(7.3487 0.00380263 0)
(7.34994 0.00321148 0)
(7.35117 0.00258092 0)
(7.35239 0.00191182 0)
(7.35359 0.00120474 0)
(7.35478 0.000460126 0)
(7.35594 -0.000321739 0)
(7.35708 -0.00114059 0)
(7.35819 -0.00199619 0)
(7.35927 -0.00288826 0)
(7.36032 -0.00381656 0)
(7.36134 -0.00478105 0)
(7.333 0.000552361 0)
(7.33297 0.00165679 0)
(7.3329 0.00268887 0)
(7.33283 0.00360405 0)
(7.33282 0.00438354 0)
(7.3329 0.00502224 0)
(7.33309 0.00552297 0)
(7.33341 0.00589363 0)
(7.33386 0.00614457 0)
(7.33443 0.00628681 0)
(7.33512 0.00633117 0)
(7.3359 0.00628779 0)
(7.33678 0.00616586 0)
(7.33774 0.00597353 0)
(7.33875 0.0057179 0)
(7.33982 0.00540504 0)
(7.34093 0.00504007 0)
(7.34207 0.00462726 0)
(7.34324 0.0041701 0)
(7.34441 0.00367138 0)
(7.3456 0.00313332 0)
(7.34679 0.00255762 0)
(7.34797 0.00194557 0)
(7.34915 0.00129811 0)
(7.35032 0.000615927 0)
(7.35147 -0.000100499 0)
(7.35261 -0.000850806 0)
(7.35372 -0.00163471 0)
(7.35481 -0.00245193 0)
(7.35587 -0.00330218 0)
(7.35691 -0.00418518 0)
(7.35791 -0.00510064 0)
(7.35888 -0.00604847 0)
(7.333 0.000570465 0)
(7.33291 0.00171756 0)
(7.33273 0.00277202 0)
(7.33252 0.00367491 0)
(7.33235 0.00440837 0)
(7.33226 0.00497382 0)
(7.33228 0.00538213 0)
(7.33244 0.00564918 0)
(7.33273 0.00579198 0)
(7.33316 0.00582658 0)
(7.33371 0.00576725 0)
(7.33438 0.00562638 0)
(7.33515 0.00541444 0)
(7.336 0.00514015 0)
(7.33693 0.0048107 0)
(7.33791 0.00443199 0)
(7.33895 0.00400875 0)
(7.34002 0.00354477 0)
(7.34113 0.00304302 0)
(7.34225 0.00250583 0)
(7.34338 0.00193493 0)
(7.34453 0.00133164 0)
(7.34567 0.000696905 0)
(7.3468 3.1386e-05 0)
(7.34793 -0.000664456 0)
(7.34904 -0.0013903 0)
(7.35014 -0.0021459 0)
(7.35121 -0.00293105 0)
(7.35226 -0.00374555 0)
(7.35328 -0.00458914 0)
(7.35428 -0.00546157 0)
(7.35524 -0.00636259 0)
(7.35617 -0.00729215 0)
(7.33299 0.000612768 0)
(7.33282 0.00185153 0)
(7.33248 0.00296607 0)
(7.33207 0.00387979 0)
(7.33167 0.00457842 0)
(7.33135 0.00507285 0)
(7.33115 0.00538459 0)
(7.3311 0.00553974 0)
(7.3312 0.00556364 0)
(7.33146 0.00547848 0)
(7.33186 0.00530288 0)
(7.33239 0.00505203 0)
(7.33304 0.00473807 0)
(7.3338 0.00437058 0)
(7.33464 0.00395702 0)
(7.33555 0.00350315 0)
(7.33652 0.00301338 0)
(7.33754 0.00249102 0)
(7.33859 0.00193852 0)
(7.33967 0.00135766 0)
(7.34077 0.000749679 0)
(7.34187 0.000115431 0)
(7.34298 -0.000544548 0)
(7.34409 -0.00122994 0)
(7.34519 -0.00194058 0)
(7.34627 -0.00267637 0)
(7.34734 -0.00343729 0)
(7.34839 -0.00422329 0)
(7.34942 -0.00503427 0)
(7.35041 -0.00587013 0)
(7.35138 -0.00673071 0)
(7.35232 -0.00761585 0)
(7.35322 -0.00852558 0)
(7.33298 0.000693558 0)
(7.33269 0.00209995 0)
(7.33211 0.00332892 0)
(7.33139 0.0042831 0)
(7.33067 0.0049576 0)
(7.33004 0.00537812 0)
(7.32955 0.00558139 0)
(7.32924 0.00560746 0)
(7.32912 0.00549269 0)
(7.32919 0.00526717 0)
(7.32943 0.00495499 0)
(7.32983 0.00457493 0)
(7.33037 0.00414122 0)
(7.33103 0.00366449 0)
(7.3318 0.00315256 0)
(7.33265 0.00261105 0)
(7.33357 0.00204394 0)
(7.33455 0.00145397 0)
(7.33558 0.000842943 0)
(7.33663 0.000211992 0)
(7.33771 -0.000438268 0)
(7.3388 -0.00110757 0)
(7.3399 -0.00179589 0)
(7.34099 -0.00250338 0)
(7.34208 -0.00323025 0)
(7.34316 -0.00397677 0)
(7.34422 -0.00474318 0)
(7.34526 -0.00552969 0)
(7.34628 -0.00633644 0)
(7.34727 -0.00716351 0)
(7.34823 -0.0080109 0)
(7.34915 -0.00887863 0)
(7.35005 -0.00976687 0)
(7.33297 0.000837388 0)
(7.33247 0.00252988 0)
(7.33152 0.0039498 0)
(7.33036 0.00497925 0)
(7.3292 0.00563495 0)
(7.32815 0.00596684 0)
(7.3273 0.00603483 0)
(7.32669 0.00589932 0)
(7.32631 0.00561171 0)
(7.32617 0.00521246 0)
(7.32625 0.0047326 0)
(7.32653 0.00419522 0)
(7.32698 0.00361695 0)
(7.32757 0.00300943 0)
(7.3283 0.00238064 0)
(7.32912 0.00173581 0)
(7.33003 0.00107823 0)
(7.331 0.000409765 0)
(7.33202 -0.000268678 0)
(7.33309 -0.000956873 0)
(7.33418 -0.00165505 0)
(7.33528 -0.0023637 0)
(7.33639 -0.00308352 0)
(7.33751 -0.00381524 0)
(7.33861 -0.00455962 0)
(7.3397 -0.00531739 0)
(7.34078 -0.0060892 0)
(7.34184 -0.0068756 0)
(7.34286 -0.00767706 0)
(7.34387 -0.00849392 0)
(7.34484 -0.00932644 0)
(7.34577 -0.0101748 0)
(7.34667 -0.0110395 0)
(7.33294 0.00108924 0)
(7.33211 0.00325462 0)
(7.33057 0.00496918 0)
(7.32876 0.00610774 0)
(7.32698 0.00673327 0)
(7.3254 0.00693659 0)
(7.32411 0.00681507 0)
(7.32315 0.00645993 0)
(7.32251 0.00594339 0)
(7.32218 0.00531918 0)
(7.32213 0.0046266 0)
(7.32232 0.00389337 0)
(7.32273 0.00313813 0)
(7.32331 0.00237296 0)
(7.32403 0.00160525 0)
(7.32487 0.000839186 0)
(7.32581 7.67123e-05 0)
(7.32682 -0.000681702 0)
(7.32789 -0.00143653 0)
(7.329 -0.00218886 0)
(7.33014 -0.00294006 0)
(7.3313 -0.00369171 0)
(7.33246 -0.00444539 0)
(7.33363 -0.00520267 0)
(7.33478 -0.005965 0)
(7.33592 -0.00673371 0)
(7.33704 -0.00750998 0)
(7.33814 -0.00829483 0)
(7.33921 -0.00908913 0)
(7.34024 -0.00989357 0)
(7.34125 -0.0107087 0)
(7.34222 -0.0115351 0)
(7.34314 -0.0123733 0)
(7.33289 0.00153853 0)
(7.33145 0.00447336 0)
(7.32898 0.00660962 0)
(7.32621 0.00786997 0)
(7.32361 0.00841282 0)
(7.32136 0.00839841 0)
(7.31957 0.0079863 0)
(7.31826 0.00731459 0)
(7.31739 0.00648308 0)
(7.31693 0.00556078 0)
(7.31683 0.00459525 0)
(7.31701 0.00361763 0)
(7.31745 0.00264693 0)
(7.31809 0.00169386 0)
(7.31889 0.000763763 0)
(7.31983 -0.000141575 0)
(7.32087 -0.0010226 0)
(7.32198 -0.00188111 0)
(7.32316 -0.00271965 0)
(7.32437 -0.00354114 0)
(7.32562 -0.00434857 0)
(7.32687 -0.00514489 0)
(7.32813 -0.00593292 0)
(7.32939 -0.00671523 0)
(7.33063 -0.00749417 0)
(7.33186 -0.00827183 0)
(7.33306 -0.00905005 0)
(7.33423 -0.00983042 0)
(7.33537 -0.0106143 0)
(7.33647 -0.0114028 0)
(7.33754 -0.0121969 0)
(7.33857 -0.0129975 0)
(7.33955 -0.0138053 0)
(7.33277 0.00237469 0)
(7.33022 0.00655455 0)
(7.32624 0.00923254 0)
(7.3221 0.0105493 0)
(7.31843 0.0108605 0)
(7.31541 0.0104466 0)
(7.31313 0.00956908 0)
(7.31155 0.00843221 0)
(7.31057 0.00716605 0)
(7.31011 0.00585215 0)
(7.31008 0.00454238 0)
(7.31039 0.00326699 0)
(7.31099 0.00204124 0)
(7.3118 0.000871269 0)
(7.3128 -0.000242229 0)
(7.31392 -0.00130174 0)
(7.31515 -0.00231157 0)
(7.31646 -0.00327686 0)
(7.31782 -0.00420304 0)
(7.31921 -0.00509546 0)
(7.32063 -0.00595918 0)
(7.32205 -0.00679892 0)
(7.32346 -0.00761894 0)
(7.32487 -0.00842308 0)
(7.32625 -0.00921473 0)
(7.32761 -0.00999688 0)
(7.32893 -0.0107721 0)
(7.33022 -0.0115428 0)
(7.33147 -0.0123107 0)
(7.33268 -0.0130775 0)
(7.33384 -0.0138447 0)
(7.33496 -0.0146134 0)
(7.33603 -0.0153848 0)
(7.33248 0.00396241 0)
(7.32783 0.0101563 0)
(7.32139 0.0134332 0)
(7.31537 0.0145623 0)
(7.31044 0.0142928 0)
(7.3067 0.0131293 0)
(7.30409 0.0115006 0)
(7.30245 0.0096875 0)
(7.30159 0.00783591 0)
(7.30136 0.00602503 0)
(7.30161 0.00429975 0)
(7.30225 0.00267991 0)
(7.30318 0.00116957 0)
(7.30434 -0.000235089 0)
(7.30567 -0.00154161 0)
(7.30713 -0.0027593 0)
(7.30868 -0.00389809 0)
(7.31029 -0.00496771 0)
(7.31194 -0.00597734 0)
(7.31361 -0.00693536 0)
(7.31529 -0.00784934 0)
(7.31695 -0.00872601 0)
(7.3186 -0.00957133 0)
(7.32023 -0.0103905 0)
(7.32182 -0.0111881 0)
(7.32338 -0.0119681 0)
(7.32489 -0.0127338 0)
(7.32635 -0.0134883 0)
(7.32776 -0.014234 0)
(7.32913 -0.014973 0)
(7.33044 -0.0157073 0)
(7.33169 -0.0164382 0)
(7.33289 -0.0171673 0)
(7.33192 0.00692349 0)
(7.32311 0.0161363 0)
(7.31274 0.0198089 0)
(7.30432 0.0202555 0)
(7.29817 0.0188177 0)
(7.29399 0.0163592 0)
(7.29148 0.0135746 0)
(7.29022 0.0108103 0)
(7.28988 0.00818343 0)
(7.29023 0.00574299 0)
(7.2911 0.00351173 0)
(7.29235 0.00148789 0)
(7.29389 -0.000344224 0)
(7.29563 -0.00200438 0)
(7.29752 -0.00351253 0)
(7.29951 -0.00488781 0)
(7.30156 -0.00614802 0)
(7.30365 -0.00730925 0)
(7.30575 -0.00838569 0)
(7.30784 -0.00938982 0)
(7.30992 -0.0103325 0)
(7.31196 -0.0112231 0)
(7.31396 -0.0120698 0)
(7.31592 -0.0128795 0)
(7.31782 -0.0136582 0)
(7.31967 -0.0144112 0)
(7.32145 -0.0151428 0)
(7.32317 -0.0158569 0)
(7.32483 -0.0165566 0)
(7.32642 -0.0172448 0)
(7.32794 -0.0179238 0)
(7.32939 -0.018596 0)
(7.33078 -0.0192633 0)
(7.33066 0.013816 0)
(7.31338 0.0263449 0)
(7.29717 0.0284469 0)
(7.28626 0.0270601 0)
(7.27934 0.0238827 0)
(7.27544 0.0198565 0)
(7.27381 0.0158621 0)
(7.27367 0.0122011 0)
(7.2745 0.00887495 0)
(7.27603 0.00586625 0)
(7.27805 0.00316542 0)
(7.28042 0.000746981 0)
(7.28303 -0.0014215 0)
(7.28578 -0.00337031 0)
(7.28861 -0.00512621 0)
(7.2915 -0.00671354 0)
(7.29438 -0.00815445 0)
(7.29726 -0.00946866 0)
(7.30009 -0.0106734 0)
(7.30286 -0.0117838 0)
(7.30558 -0.0128129 0)
(7.30822 -0.0137721 0)
(7.31078 -0.0146714 0)
(7.31325 -0.0155192 0)
(7.31564 -0.0163229 0)
(7.31794 -0.017089 0)
(7.32015 -0.0178228 0)
(7.32226 -0.0185291 0)
(7.32429 -0.0192119 0)
(7.32623 -0.0198746 0)
(7.32807 -0.0205201 0)
(7.32982 -0.0211503 0)
(7.33149 -0.0217672 0)
(7.32447 0.0352529 0)
(7.28905 0.0484152 0)
(7.26649 0.0395876 0)
(7.25598 0.0291989 0)
(7.2507 0.0198777 0)
(7.2489 0.0120331 0)
(7.24973 0.00591202 0)
(7.25205 0.00117483 0)
(7.25519 -0.00258373 0)
(7.25891 -0.00559973 0)
(7.26304 -0.00802662 0)
(7.26741 -0.0100034 0)
(7.2719 -0.0116426 0)
(7.27643 -0.013025 0)
(7.28094 -0.0142086 0)
(7.28539 -0.0152369 0)
(7.28974 -0.0161436 0)
(7.29397 -0.0169545 0)
(7.29807 -0.0176894 0)
(7.30202 -0.0183639 0)
(7.30582 -0.0189898 0)
(7.30947 -0.0195769 0)
(7.31297 -0.0201327 0)
(7.31631 -0.0206633 0)
(7.31951 -0.0211734 0)
(7.32255 -0.0216672 0)
(7.32545 -0.0221478 0)
(7.32821 -0.022618 0)
(7.33083 -0.02308 0)
(7.33332 -0.0235359 0)
(7.33568 -0.0239877 0)
(7.33791 -0.0244378 0)
(7.34003 -0.0248889 0)
(7.29541 0.0831414 0)
(7.21833 0.128044 0)
(7.18707 0.129005 0)
(7.18632 0.113963 0)
(7.19295 0.0941336 0)
(7.20193 0.0760901 0)
(7.21231 0.0610609 0)
(7.22297 0.0481506 0)
(7.2335 0.0368367 0)
(7.24384 0.0270214 0)
(7.25389 0.0186074 0)
(7.26354 0.0114372 0)
(7.27271 0.00534181 0)
(7.2814 0.000170224 0)
(7.2896 -0.00421236 0)
(7.29733 -0.00792752 0)
(7.3046 -0.0110821 0)
(7.31143 -0.0137671 0)
(7.31785 -0.0160595 0)
(7.32388 -0.0180236 0)
(7.32954 -0.0197134 0)
(7.33485 -0.0211739 0)
(7.33983 -0.0224427 0)
(7.34451 -0.0235509 0)
(7.34889 -0.0245247 0)
(7.35301 -0.0253857 0)
(7.35686 -0.026152 0)
(7.36047 -0.0268386 0)
(7.36386 -0.0274581 0)
(7.36702 -0.0280205 0)
(7.36998 -0.0285345 0)
(7.37273 -0.0290059 0)
(7.37529 -0.029442 0)
(7.32717 -0.156814 0)
(7.19692 -0.284093 0)
(7.13361 -0.280647 0)
(7.11315 -0.247166 0)
(7.11508 -0.214556 0)
(7.13554 -0.184255 0)
(7.16564 -0.15703 0)
(7.19803 -0.134036 0)
(7.22997 -0.115223 0)
(7.26033 -0.0998979 0)
(7.28836 -0.0873951 0)
(7.31375 -0.0772159 0)
(7.33648 -0.0689517 0)
(7.35673 -0.0622448 0)
(7.37472 -0.0567937 0)
(7.39067 -0.0523554 0)
(7.40478 -0.0487362 0)
(7.41726 -0.0457803 0)
(7.4283 -0.0433622 0)
(7.43805 -0.0413812 0)
(7.44666 -0.0397563 0)
(7.45427 -0.0384225 0)
(7.46098 -0.0373275 0)
(7.46689 -0.036429 0)
(7.47208 -0.0356928 0)
(7.47664 -0.0350911 0)
(7.48063 -0.0346013 0)
(7.4841 -0.0342051 0)
(7.48712 -0.0338872 0)
(7.48972 -0.0336352 0)
(7.49195 -0.033438 0)
(7.49385 -0.033287 0)
(7.49548 -0.0331707 0)
(7.33086 1.21499 0)
(7.63822 1.23053 0)
(7.81865 0.920168 0)
(7.8759 0.647915 0)
(7.88919 0.449902 0)
(7.88325 0.310866 0)
(7.8619 0.213001 0)