/*--------------------------------*- C++ -*----------------------------------*\
| =========                 |                                                 |
| \\      /  F ield         | OpenFOAM: The Open Source CFD Toolbox           |
|  \\    /   O peration     | Version:  4.1                                   |
|   \\  /    A nd           | Web:      www.OpenFOAM.org                      |
|    \\/     M anipulation  |                                                 |
\*---------------------------------------------------------------------------*/
FoamFile
{
    version     2.0;
    format      ascii;
    class       volScalarField;
    location    "1700";
    object      p;
}
// * * * * * * * * * * * * * * * * * * * * * * * * * * * * * * * * * * * * * //

dimensions      [0 2 -2 0 0 0 0];

internalField   nonuniform List<scalar> 
26785
(
99.6883
101.398
104.166
107.737
111.804
116.229
120.849
125.427
129.572
132.825
134.712
134.776
132.811
128.652
122.331
113.834
103.397
91.3554
78.3862
65.5028
53.9006
46.6036
46.4719
54.3884
69.1115
85.4981
100.359
112.878
123.144
131.479
138.202
143.569
147.77
150.949
153.2
154.577
155.094
154.667
153.176
150.14
144.948
137.658
128.714
118.658
108.005
97.0624
85.8378
74.1319
61.7298
48.5395
34.7008
20.6386
6.94579
-5.89041
-17.6804
-28.423
-38.0641
-46.4284
-53.2985
-58.4147
-61.5209
-62.5186
-61.4154
-58.4141
-53.9848
-48.6901
-43.0032
-37.2533
-31.6513
-26.3321
-21.3896
-16.9044
-12.962
-9.65647
-7.0978
-5.40904
-4.71181
-5.10284
-6.62132
-9.20687
-12.6554
-16.5819
-20.4398
-23.6186
-25.6075
-26.207
-25.5891
-24.1666
-22.3655
-20.4363
-18.4268
-16.2874
-13.9501
-11.4391
-8.87752
-6.47019
-4.24608
-2.59008
-0.541964
-1.20625
99.6796
101.387
104.151
107.716
111.786
116.213
120.831
125.404
129.541
132.785
134.661
134.712
132.734
128.564
122.236
113.733
103.297
91.256
78.2819
65.3956
53.7664
46.4079
46.234
54.1152
68.8977
85.3507
100.252
112.793
123.073
131.419
138.152
143.529
147.742
150.933
153.199
154.59
155.123
154.716
153.252
150.237
145.029
137.699
128.709
118.616
107.942
96.9967
85.7781
74.0783
61.6761
48.4737
34.6105
20.521
6.81282
-6.02043
-17.7996
-28.5365
-38.1802
-46.554
-53.4416
-58.58
-61.7016
-62.7086
-61.6023
-58.5774
-54.1113
-48.7788
-43.0592
-37.2828
-31.6593
-26.3215
-21.3618
-16.8591
-12.8977
-9.57214
-6.99392
-5.28817
-4.5794
-4.96819
-6.49824
-9.11381
-12.614
-16.61
-20.5432
-23.7814
-25.7916
-26.3708
-25.7057
-24.2312
-22.3945
-20.4604
-18.4728
-16.362
-14.0419
-11.5305
-8.95552
-6.52885
-4.29144
-2.61789
-0.606223
-1.14104
99.666
101.371
104.127
107.683
111.75
116.181
120.796
125.361
129.484
132.711
134.568
134.598
132.6
128.414
122.076
113.569
103.141
91.1035
78.1244
65.246
53.5897
46.1321
45.8886
53.6803
68.538
85.0899
100.053
112.628
122.93
131.296
138.049
143.448
147.684
150.9
153.193
154.614
155.18
154.812
153.399
150.418
145.175
137.766
128.685
118.518
107.803
96.8523
85.6486
73.9649
61.5657
48.3411
34.4301
20.2868
6.54933
-6.27608
-18.032
-28.7569
-38.4057
-46.7987
-53.7215
-58.9082
-62.0709
-63.1056
-61.9947
-58.9194
-54.3754
-48.9626
-43.1735
-37.3409
-31.672
-26.2953
-21.2998
-16.7615
-12.7634
-9.40044
-6.78513
-5.04643
-4.3146
-4.69783
-6.24891
-8.92194
-12.5233
-16.6584
-20.7443
-24.1058
-26.1614
-26.6994
-25.9328
-24.3395
-22.405
-20.4172
-18.4254
-16.3499
-14.0823
-11.6068
-9.0426
-6.60655
-4.36144
-2.66477
-0.714573
-1.04395
99.6479
101.346
104.092
107.635
111.698
116.131
120.741
125.295
129.4
132.608
134.442
134.445
132.424
128.217
121.871
113.358
102.94
90.9066
77.9174
65.0532
53.3773
45.8045
45.4853
53.1529
68.0869
84.7516
99.7854
112.401
122.733
131.125
137.906
143.335
147.604
150.856
153.189
154.653
155.267
154.953
153.61
150.672
145.376
137.847
128.632
118.355
107.582
96.6284
85.45
73.7924
61.4002
48.1462
34.1687
19.9511
6.17667
-6.63076
-18.3482
-29.0536
-38.709
-47.1295
-54.1035
-59.3626
-62.5915
-63.6728
-62.5597
-59.4137
-54.7575
-49.2288
-43.34
-37.4271
-31.6936
-26.2622
-21.2163
-16.6279
-12.5775
-9.16109
-6.49151
-4.70313
-3.93448
-4.3048
-5.88042
-8.63096
-12.3758
-16.7137
-21.0279
-24.5776
-26.7063
-27.189
-26.2767
-24.5118
-22.4367
-20.367
-18.3533
-16.301
-14.0821
-11.6496
-9.10651
-6.669
-4.42385
-2.70457
-0.831469
-0.929101
99.6236
101.312
104.045
107.573
111.629
116.062
120.665
125.205
129.29
132.475
134.284
134.257
132.209
127.982
121.627
113.111
102.709
90.6797
77.677
64.8337
53.1512
45.4567
45.0573
52.5906
67.5953
84.3699
99.4719
112.127
122.49
130.912
137.728
143.195
147.506
150.804
153.188
154.707
155.381
155.137
153.879
150.99
145.619
137.931
128.54
118.122
107.278
96.3248
85.1841
73.565
61.1865
47.8978
33.8358
19.5223
5.70242
-7.0763
-18.7398
-29.419
-39.0828
-47.5391
-54.5795
-59.9346
-63.254
-64.4007
-63.2887
-60.053
-55.2526
-49.5761
-43.561
-37.5472
-31.7327
-26.2329
-21.124
-16.4726
-12.3558
-8.87099
-6.13155
-4.27773
-3.45819
-3.80604
-5.40505
-8.24635
-12.17
-16.7704
-21.3899
-25.198
-27.431
-27.846
-26.7415
-24.7464
-22.4773
-20.2831
-18.2214
-16.1802
-14.0072
-11.6259
-9.11796
-6.69287
-4.46046
-2.72593
-0.940553
-0.811092
99.5897
101.263
103.982
107.497
111.542
115.973
120.566
125.091
129.153
132.314
134.097
134.038
131.963
127.716
121.354
112.836
102.456
90.4301
77.4098
64.5923
52.915
45.0997
44.6102
52.0233
67.0988
83.9724
99.1318
111.821
122.213
130.669
137.523
143.034
147.394
150.747
153.191
154.776
155.52
155.36
154.198
151.362
145.894
138.008
128.402
117.814
106.888
95.9417
84.8509
73.2829
60.9251
47.5961
33.4305
18.9994
5.12873
-7.60497
-19.1951
-29.84
-39.5133
-48.0132
-55.1356
-60.6127
-64.0525
-65.2885
-64.1816
-60.8348
-55.8561
-49.9999
-43.8341
-37.7014
-31.7928
-26.2138
-21.0317
-16.3069
-12.112
-8.54499
-5.72193
-3.78764
-2.90251
-3.21574
-4.83171
-7.76908
-11.898
-16.8129
-21.8122
-25.9522
-28.3242
-28.6655
-27.3297
-25.0542
-22.5502
-20.2003
-18.0652
-16.0161
-13.8754
-11.5413
-9.07309
-6.66901
-4.45937
-2.71845
-1.02764
-0.693569
99.5428
101.197
103.901
107.404
111.437
115.862
120.442
124.95
128.989
132.126
133.881
133.79
131.688
127.422
121.056
112.541
102.188
90.1664
77.1254
64.3392
52.6774
44.7506
44.1523
51.4734
66.625
83.5815
98.782
111.495
121.912
130.402
137.298
142.858
147.274
150.689
153.201
154.859
155.684
155.616
154.56
151.778
146.188
138.065
128.205
117.418
106.4
95.4669
84.4429
72.9449
60.6218
47.2524
32.9684
18.4011
4.47782
-8.19052
-19.6871
-30.2918
-39.9777
-48.5306
-55.7519
-61.3817
-64.9805
-66.3385
-65.2458
-61.7664
-56.5729
-50.5039
-44.163
-37.8949
-31.8802
-26.2125
-20.9484
-16.1406
-11.8575
-8.19539
-5.27655
-3.24797
-2.28293
-2.54813
-4.1709
-7.20372
-11.558
-16.8355
-22.2914
-26.8417
-29.3875
-29.6516
-28.047
-25.4365
-22.6519
-20.114
-17.8809
-15.8062
-13.6857
-11.3936
-8.96738
-6.59162
-4.41374
-2.67679
-1.08564
-0.579044
99.481
101.113
103.801
107.292
111.313
115.728
120.293
124.782
128.797
131.909
133.638
133.514
131.387
127.104
120.74
112.231
101.912
89.895
76.8308
64.0816
52.4428
44.4167
43.6875
50.9571
66.1949
83.2152
98.4366
111.162
121.599
130.12
137.06
142.673
147.149
150.631
153.216
154.956
155.868
155.9
154.956
152.23
146.49
138.084
127.928
116.914
105.797
94.895
83.9656
72.5658
60.297
46.8905
32.4745
17.7525
3.77662
-8.80304
-20.1857
-30.7459
-40.4474
-49.0617
-56.3975
-62.2115
-66.0156
-67.5374
-66.4775
-62.8484
-57.4042
-51.0892
-44.5497
-38.1304
-31.9989
-26.2341
-20.8802
-15.9812
-11.6004
-7.83209
-4.80588
-2.67033
-1.61159
-1.81435
-3.4301
-6.55183
-11.1453
-16.8289
-22.8204
-27.8647
-30.6198
-30.8111
-28.9039
-25.9034
-22.7916
-20.0374
-17.687
-15.5694
-13.4542
-11.1933
-8.80579
-6.46156
-4.32153
-2.59856
-1.11058
-0.468007
99.4041
101.01
103.678
107.159
111.168
115.569
120.118
124.587
128.577
131.664
133.367
133.213
131.061
126.767
120.407
111.909
101.633
89.6223
76.5333
63.8273
52.2161
44.1025
43.2201
50.4881
65.8255
82.8874
98.1073
110.83
121.28
129.831
136.814
142.482
147.021
150.574
153.239
155.065
156.068
156.207
155.375
152.71
146.783
138.041
127.55
116.285
105.075
94.2354
83.4373
72.1679
59.9752
46.5349
31.9725
17.0757
3.04837
-9.41612
-20.6644
-31.177
-40.896
-49.5783
-57.0401
-63.0643
-67.1225
-68.8552
-67.8581
-64.0721
-58.3465
-51.7559
-44.9965
-38.4119
-32.1543
-26.285
-20.8346
-15.837
-11.3498
-7.46572
-4.31993
-2.06696
-0.901929
-1.02783
-2.61972
-5.81848
-10.6598
-16.7907
-23.4034
-29.0321
-32.0328
-32.159
-29.9088
-26.453
-22.9656
-19.9699
-17.4876
-15.3137
-13.1902
-10.949
-8.59447
-6.28229
-4.18354
-2.48372
-1.10093
-0.360722
99.3125
100.888
103.531
107.004
111.001
115.387
119.917
124.365
128.33
131.391
133.07
132.886
130.714
126.41
120.061
111.581
101.356
89.3538
76.239
63.5831
52.001
43.8119
42.7561
50.0778
65.5291
82.6088
97.8034
110.508
120.963
129.54
136.566
142.289
146.893
150.52
153.267
155.184
156.281
156.528
155.809
153.212
147.041
137.913
127.056
115.527
104.244
93.5066
82.881
71.7761
59.6804
46.2084
31.4828
16.3885
2.31163
-10.008
-21.1017
-31.5656
-41.3032
-50.0574
-57.6526
-63.9024
-68.2591
-70.2473
-69.3527
-65.4151
-59.3868
-52.4982
-45.5024
-38.7418
-32.3504
-26.3709
-20.8182
-15.7154
-11.114
-7.10549
-3.828
-1.44982
-0.167409
-0.202736
-1.75099
-5.00924
-10.1009
-16.7176
-24.0462
-30.3577
-33.6389
-33.7047
-31.058
-27.074
-23.1707
-19.9161
-17.2904
-15.0483
-12.9037
-10.6707
-8.34148
-6.0595
-4.00288
-2.33403
-1.05677
-0.257798
99.2042
100.748
103.362
106.824
110.811
115.18
119.69
124.115
128.055
131.092
132.748
132.537
130.346
126.038
119.703
111.249
101.084
89.0945
75.9534
63.3558
51.8017
43.5504
42.3029
49.7365
65.3147
82.3868
97.5325
110.204
120.654
129.253
136.319
142.097
146.767
150.469
153.298
155.307
156.503
156.857
156.251
153.725
147.234
137.681
126.437
114.645
103.317
92.731
82.3224
71.4157
59.4359
45.9311
31.0228
15.7057
1.5828
-10.5591
-21.4795
-31.896
-41.6531
-50.4822
-58.2154
-64.6966
-69.3882
-71.6671
-70.9191
-66.8453
-60.504
-53.3047
-46.0633
-39.1202
-32.5906
-26.4969
-20.8377
-15.6247
-10.9027
-6.76164
-3.343
-0.832516
0.575984
0.643087
-0.839621
-4.1347
-9.47283
-16.6116
-24.7636
-31.8644
-35.455
-35.4585
-32.343
-27.7458
-23.3908
-19.8696
-17.0963
-14.7786
-12.6027
-10.3672
-8.0554
-5.80018
-3.78418
-2.15257
-0.979225
-0.160596
99.0801
100.59
103.169
106.617
110.595
114.949
119.437
123.839
127.752
130.766
132.401
132.165
129.959
125.651
119.337
110.914
100.822
88.849
75.6819
63.1519
51.6236
43.3247
41.8694
49.4728
65.1883
82.2265
97.3
109.923
120.36
128.974
136.077
141.909
146.643
150.42
153.331
155.432
156.728
157.187
156.701
154.225
147.332
137.333
125.696
113.646
102.314
91.9367
81.7912
71.113
59.2608
45.7154
30.6007
15.0348
0.873288
-11.0536
-21.7833
-32.156
-41.9335
-50.8402
-58.7151
-65.4272
-70.4804
-73.0738
-72.5146
-68.3246
-61.6704
-54.1588
-46.6713
-39.5453
-32.8766
-26.6671
-20.8991
-15.5725
-10.7249
-6.44474
-2.87823
-0.227277
1.31095
1.48922
0.0948711
-3.21009
-8.78337
-16.4786
-25.578
-33.5818
-37.5013
-37.4351
-33.7591
-28.4535
-23.6173
-19.8295
-16.9093
-14.5114
-12.2955
-10.0479
-7.74516
-5.51212
-3.53321
-1.94322
-0.869908
-0.0717514
98.9389
100.412
102.951
106.382
110.351
114.693
119.158
123.535
127.423
130.414
132.03
131.773
129.556
125.251
118.963
110.58
100.571
88.6213
75.4292
62.9781
51.4719
43.1417
41.4647
49.2941
65.1529
82.1307
97.1098
109.67
120.083
128.706
135.843
141.724
146.52
150.371
153.362
155.553
156.952
157.511
157.165
154.676
147.312
136.87
124.838
112.548
101.265
91.1594
81.3203
70.8902
59.1629
45.5578
30.2087
14.37
0.185478
-11.4821
-22.0034
-32.3364
-42.1339
-51.1213
-59.141
-66.0804
-71.5127
-74.4367
-74.102
-69.8143
-62.8538
-55.04
-47.3151
-40.0121
-33.2079
-26.8843
-21.0073
-15.5656
-10.5897
-6.16599
-2.44643
0.353575
2.01687
2.31089
1.02722
-2.25833
-8.04752
-16.335
-26.529
-35.5552
-39.811
-39.6624
-35.307
-29.1832
-23.8414
-19.7929
-16.731
-14.2517
-11.9893
-9.72124
-7.41978
-5.20369
-3.25659
-1.71062
-0.731341
0.00603365
98.7801
100.212
102.709
106.117
110.076
114.408
118.853
123.203
127.066
130.037
131.636
131.363
129.137
124.841
118.583
110.248
100.335
88.415
75.2001
62.8414
51.3526
43.0088
41.0992
49.208
65.2097
82.1008
96.9649
109.448
119.828
128.453
135.617
141.544
146.399
150.321
153.388
155.666
157.169
157.821
157.648
155.03
147.166
136.296
123.878
111.375
100.207
90.4413
80.9401
70.7577
59.1319
45.4354
29.8222
13.6938
-0.485202
-11.8396
-22.1338
-32.4302
-42.2459
-51.3166
-59.4834
-66.6434
-72.4665
-75.7348
-75.6525
-71.2775
-64.0213
-55.9251
-47.9809
-40.5137
-33.582
-27.149
-21.1658
-15.61
-10.5053
-5.9361
-2.06045
0.894276
2.67189
3.08113
1.92777
-1.3105
-7.29176
-16.2187
-27.6796
-37.8444
-42.432
-42.1856
-36.9943
-29.9218
-24.0542
-19.7568
-16.5632
-14.0046
-11.6913
-9.39556
-7.08821
-4.88354
-2.96167
-1.46015
-0.565378
0.0695204
98.6029
99.99
102.442
105.823
109.768
114.093
118.519
122.844
126.682
129.634
131.222
130.935
128.706
124.422
118.198
109.921
100.114
88.234
74.9995
62.7493
51.272
42.9348
40.7853
49.2225
65.3589
82.137
96.8667
109.259
119.596
128.215
135.401
141.37
146.279
150.268
153.405
155.768
157.375
158.106
158.146
155.248
146.897
135.622
122.835
110.165
99.1915
89.8246
80.67
70.7095
59.1426
45.3161
29.4129
12.9874
-1.14295
-12.1214
-22.1707
-32.4336
-42.2642
-51.4202
-59.7343
-67.1038
-73.3242
-76.9498
-77.1419
-72.6801
-65.1399
-56.79
-48.6531
-41.0407
-33.9942
-27.46
-21.376
-15.7098
-10.4789
-5.76519
-1.73374
1.37546
3.2555
3.76984
2.75608
-0.413944
-6.5726
-16.2097
-29.1138
-40.4971
-45.3871
-45.0276
-38.8153
-30.655
-24.2496
-19.7204
-16.4085
-13.7749
-11.4076
-9.07856
-6.75919
-4.56066
-2.65665
-1.19731
-0.377712
0.10792
98.4038
99.7447
102.149
105.5
109.426
113.744
118.156
122.457
126.271
129.207
130.787
130.493
128.265
123.995
117.811
109.6
99.9114
88.0814
74.8324
62.7095
51.2359
42.9287
40.5369
49.3463
65.5997
82.2386
96.8161
109.106
119.39
127.995
135.196
141.2
146.159
150.21
153.411
155.854
157.565
158.356
158.625
155.303
146.516
134.867
121.743
108.968
98.2714
89.3402
80.5121
70.726
59.1642
45.1719
28.959
12.237
-1.78857
-12.324
-22.1151
-32.3481
-42.1907
-51.4332
-59.8913
-67.4518
-74.0704
-78.0701
-78.55
-73.9894
-66.178
-57.6109
-49.3151
-41.5824
-34.4379
-27.8139
-21.6375
-15.8676
-10.5159
-5.66244
-1.4796
1.7801
3.7512
4.33679
3.45627
0.355469
-5.98527
-16.4119
-30.8922
-43.4648
-48.5781
-48.1011
-40.7008
-31.3544
-24.4219
-19.6846
-16.2705
-13.5672
-11.1439
-8.77731
-6.44122
-4.24424
-2.35079
-0.926454
-0.173754
0.112831
98.1854
99.4754
101.83
105.149
109.051
113.358
117.76
122.042
125.833
128.756
130.332
130.037
127.815
123.565
117.423
109.288
99.7278
87.9594
74.7031
62.7296
51.2487
42.9939
40.3682
49.5878
65.9306
82.4043
96.8135
108.988
119.21
127.794
135.002
141.036
146.037
150.146
153.402
155.923
157.733
158.564
159
155.175
146.034
134.057
120.645
107.84
97.4897
89
80.4527
70.7779
59.1669
44.9848
28.4494
11.4355
-2.42092
-12.4444
-21.9701
-32.1798
-42.0343
-51.3627
-59.956
-67.6801
-74.6877
-79.0863
-79.8542
-75.1703
-67.1049
-58.3649
-49.9502
-42.1266
-34.9045
-28.2053
-21.9477
-16.0837
-10.6203
-5.63572
-1.31072
2.09115
4.1473
4.74786
3.98631
0.909295
-5.60723
-16.8719
-32.9451
-46.4847
-51.69
-51.1268
-42.4759
-31.9639
-24.5603
-19.6495
-16.1521
-13.3851
-10.9045
-8.49781
-6.1421
-3.94382
-2.05389
-0.656277
0.0458932
0.0929375
97.9476
99.1822
101.486
104.769
108.644
112.934
117.328
121.596
125.368
128.281
129.858
129.569
127.36
123.134
117.039
108.988
99.5636
87.8676
74.6146
62.8155
51.3141
43.124
40.2878
49.9526
66.3493
82.6329
96.8588
108.907
119.058
127.612
134.82
140.876
145.913
150.073
153.374
155.97
157.879
158.748
159.17
154.857
145.469
133.222
119.589
106.829
96.8707
88.7985
80.4646
70.8278
59.1274
44.7498
27.8829
10.5833
-3.02986
-12.4732
-21.7373
-31.9359
-41.8053
-51.2144
-59.9302
-67.7854
-75.1551
-79.9795
-81.0218
-76.1851
-67.892
-59.0311
-50.5422
-42.6606
-35.3841
-28.6267
-22.302
-16.3566
-10.7938
-5.69121
-1.23917
2.2884
4.42172
5.01222
4.32055
1.20411
-5.4562
-17.5401
-35.0088
-49.1107
-54.2928
-53.6788
-43.8872
-32.4057
-24.6456
-19.6126
-16.0541
-13.2294
-10.6915
-8.24466
-5.86937
-3.66959
-1.77756
-0.400691
0.275005
0.0020472
97.6917
98.8657
101.117
104.361
108.206
112.476
116.856
121.116
124.876
127.782
129.365
129.09
126.902
122.705
116.661
108.703
99.4177
87.8046
74.5691
62.9722
51.4362
43.3301
40.3057
50.442
66.8526
82.9224
96.9516
108.864
118.934
127.45
134.651
140.721
145.787
149.991
153.324
155.993
157.996
158.921
159.093
154.371
144.839
132.398
118.617
105.964
96.4207
88.7145
80.5046
70.8413
59.0372
44.4711
27.2686
9.70018
-3.5826
-12.3957
-21.4329
-31.6401
-41.5204
-50.9986
-59.8306
-67.7876
-75.4622
-80.7323
-82.0077
-76.9937
-68.5135
-59.5911
-51.0759
-43.1712
-35.8654
-29.0692
-22.6936
-16.6822
-11.0359
-5.83299
-1.27561
2.34731
4.53751
5.10548
4.39864
1.24509
-5.55223
-18.3276
-36.7729
-50.8943
-56.1442
-55.3646
-44.7016
-32.6068
-24.6548
-19.5681
-15.9742
-13.0992
-10.5067
-8.02182
-5.62971
-3.43111
-1.53542
-0.153491
0.454579
-0.276539
97.4189
98.5271
100.724
103.926
107.738
111.983
116.345
120.597
124.353
127.258
128.852
128.599
126.441
122.28
116.291
108.434
99.2893
87.7718
74.5699
63.2051
51.6187
43.6431
40.4406
51.055
67.4361
83.271
97.0916
108.859
118.839
127.308
134.493
140.57
145.657
149.897
153.251
155.991
158.095
159.138
158.838
153.764
144.172
131.619
117.753
105.258
96.1336
88.7075
80.5196
70.7991
58.8954
44.1553
26.6276
8.83302
-4.02674
-12.2163
-21.1207
-31.3431
-41.2115
-50.7498
-59.6946
-67.704
-75.5741
-81.315
-82.7373
-77.5479
-68.9468
-60.029
-51.5368
-43.6449
-36.3361
-29.5218
-23.114
-17.0544
-11.3433
-6.06255
-1.42874
2.24168
4.4517
4.99468
4.19766
1.01802
-5.90039
-19.1417
-38.0523
-51.6631
-57.0088
-55.7636
-44.7358
-32.5057
-24.5656
-19.5089
-15.9073
-12.99
-10.3462
-7.82874
-5.43019
-3.23463
-1.35793
0.0639362
0.642144
-0.209279
97.1289
98.1684
100.309
103.466
107.241
111.457
115.798
120.039
123.796
126.708
128.319
128.097
125.979
121.861
115.934
108.183
99.1808
87.7768
74.6245
63.5192
51.8644
44.0697
40.703
51.7889
68.0954
83.6767
97.2782
108.891
118.775
127.188
134.349
140.423
145.524
149.79
153.15
155.958
158.159
159.402
158.557
153.102
143.5
130.904
117.004
104.713
95.9899
88.7248
80.481
70.6879
58.6988
43.8077
25.9865
8.04304
-4.31117
-11.973
-20.8605
-31.0713
-40.9147
-50.5199
-59.5528
-67.5248
-75.4546
-81.6967
-83.0983
-77.7885
-69.1729
-60.3318
-51.912
-44.0686
-36.7832
-29.9725
-23.5518
-17.4646
-11.7111
-6.3774
-1.70662
1.9545
4.13784
4.61561
3.71355
0.511158
-6.4259
-19.8276
-38.7151
-51.679
-56.7108
-54.7517
-43.9053
-32.0919
-24.3773
-19.4296
-15.8442
-12.8945
-10.211
-7.6732
-5.27158
-3.09982
-1.23982
0.184694
0.694087
-0.210789
96.8269
97.792
99.8742
102.983
106.718
110.901
115.216
119.442
123.201
126.13
127.765
127.582
125.516
121.451
115.592
107.952
99.0989
87.827
74.7432
63.9176
52.1766
44.5991
41.0935
52.64
68.8263
84.1377
97.5113
108.963
118.74
127.091
134.219
140.281
145.387
149.668
153.022
155.884
158.183
159.547
158.316
152.44
142.85
130.261
116.366
104.324
95.9387
88.7308
80.4042
70.516
58.4504
43.4348
25.3687
7.38879
-4.41137
-11.7114
-20.6104
-30.7908
-40.6284
-50.3107
-59.3781
-67.2637
-75.2325
-81.9084
-83.0234
-77.6704
-69.1819
-60.4893
-52.1887
-44.4278
-37.1924
-30.4087
-23.9968
-17.9015
-12.1329
-6.78605
-2.12138
1.46969
3.54836
3.92724
2.95634
-0.263887
-7.08817
-20.2456
-38.6409
-50.9245
-55.4796
-52.8196
-42.436
-31.3762
-24.0985
-19.3219
-15.7737
-12.806
-10.0906
-7.53544
-5.158
-3.03237
-1.20199
0.0909428
0.606998
-0.190955
96.5154
97.4009
99.4229
102.481
106.172
110.318
114.602
118.809
122.568
125.519
127.189
127.055
125.053
121.05
115.265
107.744
99.0507
87.9203
74.9358
64.3981
52.5592
45.2186
41.6114
53.6044
69.6246
84.6523
97.7906
109.073
118.738
127.017
134.103
140.144
145.248
149.53
152.859
155.775
158.225
159.485
157.976
151.795
142.23
129.674
115.82
104.044
95.9098
88.7076
80.2947
70.3085
58.1771
43.0643
24.8099
6.90126
-4.38512
-11.475
-20.3229
-30.4514
-40.2926
-50.036
-59.0734
-66.8859
-74.9663
-81.8522
-82.5304
-77.1986
-68.973
-60.4952
-52.3575
-44.7106
-37.5493
-30.8127
-24.4354
-18.3707
-12.6261
-7.30998
-2.69312
0.808424
2.74238
3.00822
1.97541
-1.25006
-7.85338
-20.3885
-37.8181
-49.3064
-53.3392
-50.2273
-40.4312
-30.4623
-23.7743
-19.1964
-15.6865
-12.6956
-9.95326
-7.4094
-5.07767
-2.99812
-1.28179
-0.0746886
0.459041
-0.186674
96.197
96.9981
98.9582
101.962
105.607
109.71
113.96
118.144
121.897
124.873
126.588
126.514
124.59
120.659
114.956
107.563
99.0384
88.0453
75.2067
64.9553
53.0407
45.899
42.2548
54.6775
70.4857
85.2186
98.1159
109.224
118.769
126.968
134.003
140.013
145.106
149.373
152.634
155.63
158.226
159.237
157.429
151.135
141.602
129.1
115.336
103.83
95.8714
88.6486
80.1413
70.059
57.8728
42.7141
24.3607
6.56874
-4.30834
-11.2611
-19.9993
-30.0573
-39.907
-49.6738
-58.6275
-66.3859
-74.4917
-81.2396
-81.6526
-76.439
-68.5693
-60.359
-52.4214
-44.9192
-37.8626
-31.2055
-24.8952
-18.8968
-13.2148
-7.95228
-3.39368
-0.00285252
1.75142
1.91774
0.823223
-2.38771
-8.68602
-20.3037
-36.4068
-47.0441
-50.5387
-47.028
-38.151
-29.4979
-23.421
-19.0334
-15.5498
-12.5406
-9.80163
-7.28741
-4.99055
-2.98079
-1.35459
-0.207612
0.33638
-0.157781
95.874
96.5865
98.4834
101.431
105.026
109.084
113.294
117.449
121.194
124.191
125.96
125.959
124.125
120.279
114.668
107.414
99.0584
88.195
75.5522
65.6033
53.6937
46.5542
43.0214
55.8535
71.4049
85.8351
98.4873
109.416
118.834
126.946
133.92
139.89
144.962
149.18
152.327
155.405
158.107
158.809
156.729
150.403
140.921
128.519
114.908
103.659
95.8187
88.5468
79.9434
69.7688
57.5394
42.3891
24.0457
6.38871
-4.20695
-11.0736
-19.6535
-29.6163
-39.472
-49.221
-58.0719
-65.8048
-73.7712
-80.0856
-80.3704
-75.4016
-67.9822
-60.104
-52.4075
-45.0828
-38.1628
-31.6194
-25.4078
-19.4953
-13.886
-8.68154
-4.19569
-0.944198
0.615109
0.702647
-0.449407
-3.62057
-9.55639
-20.0751
-34.6529
-44.5322
-47.4036
-43.7157
-35.9254
-28.5348
-23.0103
-18.8082
-15.3676
-12.3671
-9.62996
-7.11685
-4.85307
-2.88913
-1.35379
-0.294224
0.262504
-0.102798
95.5478
96.1686
98.0013
100.892
104.434
108.443
112.61
116.732
120.463
123.477
125.301
125.389
123.66
119.912
114.404
107.298
99.1058
88.3724
75.9675
66.3939
54.513
46.9019
43.9115
57.1246
72.3771
86.5001
98.9051
109.649
118.934
126.952
133.858
139.773
144.807
148.94
151.938
155.11
157.895
158.214
155.917
149.585
140.181
127.934
114.538
103.532
95.7484
88.3991
79.6997
69.4372
57.179
42.0947
23.8722
6.36669
-4.06114
-10.9122
-19.289
-29.1331
-38.9802
-48.6733
-57.4167
-65.1336
-72.8747
-78.6508
-78.7942
-74.1634
-67.2545
-59.7641
-52.3498
-45.2341
-38.4756
-32.0637
-25.9632
-20.1438
-14.6088
-9.46941
-5.07946
-1.99255
-0.628787
-0.603163
-1.80051
-4.90091
-10.4367
-19.7721
-32.6806
-42.119
-44.498
-40.9021
-34.0053
-27.6371
-22.5805
-18.5575
-15.1553
-12.1309
-9.36946
-6.85582
-4.59842
-2.69599
-1.28846
-0.323795
0.232673
-0.0286763
95.2193
95.7465
97.5143
100.346
103.835
107.792
111.912
115.996
119.709
122.736
124.614
124.802
123.194
119.557
114.165
107.215
99.1794
88.5818
76.4583
67.3526
55.2341
46.6283
44.9987
58.4784
73.3975
87.2127
99.3692
109.926
119.075
126.991
133.815
139.654
144.63
148.656
151.497
154.76
157.562
157.509
155.005
148.687
139.385
127.344
114.22
103.437
95.6564
88.2061
79.4114
69.0664
56.7935
41.8299
23.841
6.51226
-3.85859
-10.7673
-18.9148
-28.6161
-38.4332
-48.0531
-56.7035
-64.3766
-71.8062
-77.0352
-77.0723
-72.8156
-66.4277
-59.3532
-52.2497
-45.3668
-38.7873
-32.518
-26.5352
-20.8134
-15.3573
-10.2967
-6.02712
-3.12819
-1.95309
-1.97216
-3.19734
-6.19199
-11.3065
-19.469
-30.5249
-39.3984
-41.9263
-38.6544
-32.4827
-26.8358
-22.1189
-18.2128
-14.8198
-11.7676
-8.96473
-6.41892
-4.20536
-2.43414
-1.16938
-0.298108
0.238516
0.0602725
94.8843
95.3214
97.0238
99.7969
103.231
107.135
111.206
115.249
118.939
121.974
123.903
124.196
122.727
119.216
113.954
107.165
99.2823
88.8222
77.0397
68.4093
55.6056
46.2626
46.448
59.9323
74.483
87.9846
99.8908
110.256
119.259
127.063
133.782
139.523
144.436
148.342
151.048
154.384
157.101
156.741
154.012
147.714
138.534
126.744
113.942
103.365
95.5423
87.9703
79.0819
68.6612
56.3876
41.5913
23.9431
6.83693
-3.5829
-10.6159
-18.5364
-28.0667
-37.8253
-47.3672
-55.9561
-63.5734
-70.6375
-75.3313
-75.2966
-71.413
-65.5236
-58.8704
-52.0941
-45.4614
-39.0755
-32.96
-27.1028
-21.4838
-16.1133
-11.1486
-7.02498
-4.33614
-3.3336
-3.38066
-4.61349
-7.46804
-12.1508
-19.2259
-28.3913
-36.0336
-38.7311
-36.2259
-30.9624
-25.8794
-21.4514
-17.6357
-14.2308
-11.1263
-8.29716
-5.81016
-3.74134
-2.13639
-1.00264
-0.221977
0.275763
0.1604
94.539
94.8934
96.5311
99.2453
102.625
106.474
110.496
114.496
118.159
121.198
123.174
123.576
122.258
118.891
113.773
107.15
99.4189
89.0908
77.7267
69.4852
55.8439
46.6851
48.3097
61.5122
75.6585
88.8311
100.478
110.642
119.487
127.16
133.756
139.388
144.231
148.006
150.607
153.997
156.577
155.904
152.947
146.672
137.633
126.131
113.69
103.304
95.4065
87.696
78.7164
68.2288
55.9675
41.3733
24.1596
7.35182
-3.21144
-10.4239
-18.1607
-27.4872
-37.1554
-46.6163
-55.1693
-62.7214
-69.4069
-73.6074
-73.5236
-69.9885
-64.5624
-58.3234
-51.8811
-45.5103
-39.3299
-33.3778
-27.6526
-22.1402
-16.8637
-12.0153
-8.06473
-5.60275
-4.74512
-4.8077
-6.02637
-8.71142
-12.9594
-19.0645
-26.5571
-32.6954
-34.9563
-33.0923
-28.8303
-24.4174
-20.3031
-16.6095
-13.2502
-10.1986
-7.47857
-5.15499
-3.26477
-1.81278
-0.790038
-0.0984391
0.344203
0.268468
94.1828
94.4622
96.0368
98.6923
102.017
105.813
109.784
113.742
117.376
120.414
122.433
122.945
121.787
118.583
113.625
107.172
99.593
89.3902
78.5346
70.5634
56.2186
47.8095
50.3754
63.2061
76.9287
89.7548
101.129
111.077
119.753
127.286
133.746
139.26
144.019
147.654
150.172
153.57
155.994
154.995
151.817
145.571
136.689
125.502
113.447
103.241
95.2482
87.3885
78.3217
67.7773
55.5402
41.17
24.462
8.05201
-2.71419
-10.1546
-17.7906
-26.8822
-36.4225
-45.795
-54.3374
-61.8294
-68.1566
-71.9176
-71.7895
-68.5665
-63.5653
-57.7261
-51.6176
-45.5148
-39.5473
-33.7643
-28.1742
-22.7715
-17.5999
-12.8912
-9.13938
-6.91097
-6.1638
-6.23401
-7.41658
-9.90983
-13.7261
-18.9701
-25.0732
-29.8944
-31.561
-29.9474
-26.4139
-22.586
-18.8232
-15.3326
-12.1225
-9.22176
-6.67084
-4.52044
-2.78703
-1.46108
-0.53366
0.0693863
0.444544
0.381677
93.8165
94.0275
95.5412
98.1386
101.409
105.151
109.073
112.988
116.594
119.63
121.687
122.307
121.316
118.295
113.514
107.241
99.808
89.7352
79.4702
71.6397
56.8459
49.2631
52.5624
64.9911
78.2869
90.754
101.843
111.569
120.068
127.451
133.76
139.146
143.805
147.294
149.733
153.073
155.312
154.023
150.63
144.424
135.71
124.852
113.195
103.164
95.0659
87.0542
77.9047
67.3153
55.1135
40.9775
24.8152
8.90526
-2.06064
-9.77485
-17.4091
-26.2547
-35.6212
-44.8787
-53.421
-60.8837
-66.9181
-70.3083
-70.1237
-67.1673
-62.5518
-57.0931
-51.312
-45.4772
-39.7247
-34.1127
-28.6585
-23.369
-18.3162
-13.7699
-10.2382
-8.23905
-7.57122
-7.64227
-8.76846
-11.0546
-14.4489
-18.9252
-23.8771
-27.6235
-28.7834
-27.2983
-24.2401
-20.8278
-17.3747
-14.0959
-11.055
-8.31184
-5.91535
-3.90921
-2.30219
-1.08069
-0.2385
0.277062
0.575709
0.49749
93.4408
93.5894
95.0444
97.5844
100.801
104.489
108.363
112.237
115.817
118.851
120.943
121.67
120.85
118.026
113.442
107.368
100.07
90.1458
80.5176
72.7141
57.7943
50.9463
54.8315
66.85
79.725
91.8289
102.631
112.13
120.443
127.658
133.802
139.047
143.595
146.934
149.281
152.492
154.516
152.997
149.392
143.24
134.705
124.181
112.92
103.058
94.858
86.6987
77.4725
66.8508
54.6951
40.7947
25.1856
9.85216
-1.24481
-9.2629
-16.9816
-25.6032
-34.7476
-43.8435
-52.3641
-59.8369
-65.6831
-68.7966
-68.5483
-65.8079
-61.5381
-56.4349
-50.9685
-45.3961
-39.8565
-34.4147
-29.0969
-23.9267
-19.0072
-14.6415
-11.3474
-9.56664
-8.95503
-9.01803
-10.0709
-12.1407
-15.1276
-18.9174
-22.9072
-25.7784
-26.5185
-25.1098
-22.3784
-19.269
-16.0657
-12.9706
-10.0802
-7.47241
-5.20273
-3.31219
-1.80811
-0.67636
0.0879209
0.51893
0.733843
0.61359
93.0564
93.1479
94.5465
97.0299
100.192
103.828
107.655
111.49
115.047
118.08
120.208
121.039
120.391
117.777
113.412
107.56
100.388
90.6398
81.6525
73.7989
59.0832
52.8048
57.1679
68.7733
81.2369
92.9834
103.502
112.768
120.879
127.909
133.872
138.967
143.388
146.578
148.817
151.828
153.611
151.928
148.113
142.032
133.68
123.487
112.612
102.915
94.6229
86.3271
77.0319
66.3912
54.2928
40.6243
25.5482
10.8215
-0.303846
-8.61622
-16.4707
-24.9172
-33.8096
-42.6893
-51.1247
-58.6054
-64.3688
-67.3288
-67.05
-64.4881
-60.5289
-55.7537
-50.5855
-45.267
-39.9366
-34.6647
-29.4866
-24.4437
-19.669
-15.4978
-12.4558
-10.8831
-10.3052
-10.3508
-11.3175
-13.1662
-15.7646
-18.9405
-22.1199
-24.27
-24.6558
-23.2837
-20.7782
-17.8894
-14.8871
-11.9468
-9.18503
-6.69066
-4.52437
-2.72738
-1.30894
-0.255724
0.437585
0.789219
0.913442
0.728156
92.664
92.703
94.0476
96.4754
99.5847
103.168
106.949
110.748
114.284
117.319
119.484
120.418
119.943
117.549
113.424
107.82
100.769
91.2335
82.8579
74.9136
60.6589
54.8442
59.5626
70.7551
82.824
94.2296
104.468
113.486
121.373
128.199
133.97
138.905
143.184
146.229
148.358
151.108
152.607
150.82
146.815
140.806
132.64
122.77
112.263
102.729
94.3598
85.9433
76.5886
65.943
53.9139
40.4718
25.8911
11.7539
0.692965
-7.86177
-15.8582
-24.1784
-32.8192
-41.4438
-49.7119
-57.1284
-62.8492
-65.7821
-65.5486
-63.1736
-59.5078
-55.0415
-50.1586
-45.0878
-39.9656
-34.8663
-29.8334
-24.9243
-20.3015
-16.3388
-13.5616
-12.1872
-11.6121
-11.6344
-12.5051
-14.1324
-16.3634
-18.9915
-21.4857
-23.0378
-23.1183
-21.7505
-19.4001
-16.669
-13.8259
-11.015
-8.36207
-5.96191
-3.87937
-2.15778
-0.810353
0.174262
0.803626
1.0827
1.1097
0.839137
92.2637
92.2541
93.5477
95.9209
98.9774
102.51
106.245
110.009
113.528
116.57
118.775
119.814
119.51
117.342
113.479
108.147
101.225
91.9425
84.1262
76.0833
62.4489
57.0516
62.0018
72.7986
84.503
95.5866
105.534
114.277
121.916
128.524
134.097
138.86
142.979
145.886
147.917
150.363
151.531
149.669
145.519
139.57
131.589
122.029
111.871
102.496
94.0682
85.5497
76.1475
65.5118
53.5648
40.3443
26.2155
12.619
1.67992
-7.04774
-15.1578
-23.3802
-31.7876
-40.1431
-48.1771
-55.4255
-61.0554
-64.0264
-63.9252
-61.7975
-58.4345
-54.2782
-49.68
-44.8582
-39.9479
-35.026
-30.1425
-25.3715
-20.9109
-17.1746
-14.6701
-13.4768
-12.8707
-12.8649
-13.6313
-15.0405
-16.9277
-19.0681
-20.9819
-22.036