/*--------------------------------*- C++ -*----------------------------------*\
| =========                 |                                                 |
| \\      /  F ield         | OpenFOAM: The Open Source CFD Toolbox           |
|  \\    /   O peration     | Version:  4.1                                   |
|   \\  /    A nd           | Web:      www.OpenFOAM.org                      |
|    \\/     M anipulation  |                                                 |
\*---------------------------------------------------------------------------*/
FoamFile
{
    version     2.0;
    format      ascii;
    class       surfaceScalarField;
    location    "1700";
    object      phi;
}
// * * * * * * * * * * * * * * * * * * * * * * * * * * * * * * * * * * * * * //

dimensions      [0 3 -1 0 0 0 0];

internalField   nonuniform List<scalar> 
52920
(
-278.78
40.126
-282.884
4.09895
-255.723
-27.1665
-179.259
-76.4688
-33.8397
-145.424
167.553
-201.396
409.661
-242.109
695.083
-285.423
1024
-328.919
1397.92
-373.916
1817.11
-419.195
2278.66
-461.549
2778.64
-499.977
3310.45
-531.817
3866.68
-556.225
4435.79
-569.118
5003.52
-567.725
5555.28
-551.758
6077.04
-521.765
6546.05
-469.011
6912.48
-366.435
7108.66
-196.179
7085.88
22.7871
6849.88
235.991
6490.04
359.846
6085.76
404.278
5678.72
407.039
5286.08
392.64
4913.63
372.448
4563.06
350.567
4235.17
327.892
3931.14
304.031
3653.04
278.102
3404.1
248.935
3188.94
215.158
3013.53
175.414
2884.68
128.844
2809.21
75.4711
2803.93
5.28182
2889.61
-85.6825
3065.68
-176.068
3316.31
-250.639
3619.37
-303.055
3954.26
-334.889
4307.56
-353.302
4674.2
-366.643
5054.52
-380.323
5450.41
-395.891
5862.02
-411.61
6284.83
-422.806
6708.57
-423.738
7119.59
-411.028
7505.51
-385.919
7858.24
-352.731
8173.08
-314.833
8446.21
-273.129
8673.8
-227.598
8851.95
-178.15
8975.9
-123.951
9041.03
-65.1282
9045.26
-4.22868
8988.48
56.7795
8876.62
111.865
8724.07
152.549
8549.14
174.926
8368.7
180.445
8195.65
173.049
8038.87
156.774
7904.1
134.775
7794.96
109.135
7713.96
81.0025
7663.18
50.7832
7644.79
18.3903
7660.98
-16.1968
7713.39
-52.4063
7802.54
-89.154
7927.28
-124.732
8084.12
-156.845
8267.01
-182.886
8467.38
-200.368
8675.02
-207.64
8880.48
-205.465
9078.24
-197.757
9268.82
-190.579
9459.18
-190.366
9658.86
-199.677
9872.93
-214.068
10094.2
-221.256
10298.3
-204.093
10447
-148.749
10502
-55.0055
10442.1
59.9465
10272.4
169.733
10018.1
254.225
9711.75
306.38
9383.21
328.537
9053.03
330.178
8740.07
312.966
8433.9
306.168
243.911
-230.404
62.6895
-202.631
-23.6803
-120.15
-109.652
23.278
-219.901
199.309
-321.459
407.457
-409.546
649.888
-484.542
924.723
-560.26
1232.73
-636.926
1574.76
-715.952
1950.33
-794.767
2356.43
-867.652
2789.58
-933.121
3244.9
-987.144
3718.29
-1029.61
4202.97
-1053.8
4690.27
-1055.02
5171.21
-1032.7
5637.37
-987.925
6074.75
-906.391
6446.26
-737.951
6687.99
-437.909
6730.16
-19.3821
6549.63
416.526
6228.79
680.68
5851.82
781.253
5465.61
793.246
5090.41
767.836
4733.58
729.279
4397.61
686.539
4083.76
641.746
3793.52
594.263
3529.22
542.405
3294.25
483.907
3093.31
416.097
2932.4
336.318
2818.09
243.153
2755.96
137.606
2760.71
0.531843
2855.77
-180.743
3046.37
-366.67
3315.04
-519.314
3635.19
-623.203
3984.65
-684.355
4351.29
-719.945
4731.62
-746.972
5126.36
-775.059
5536.57
-806.107
5961.03
-836.065
6393.83
-855.608
6823.77
-853.682
7236.91
-824.168
7621.22
-770.23
7969.56
-701.066
8278.38
-623.654
8545.02
-539.769
8766.65
-449.228
8940.24
-351.736
9062.01
-245.723
9127.44
-130.557
9132.5
-9.29654
9075.34
113.946
8961.85
225.354
8807.36
307.041
8631.31
350.973
8451.35
360.401
8280.7
343.706
8128.1
309.37
7998.87
264.008
7895.98
212.02
7821.07
155.915
7775.06
96.7953
7758.55
34.9009
7772.2
-29.8521
7816.68
-96.8841
7891.96
-164.428
7996.66
-229.436
8127.38
-287.563
8277.99
-333.503
8439.24
-361.61
8598.79
-367.198
8743.42
-350.094
8862.58
-316.916
8952.27
-280.267
9018.32
-256.42
9075.43
-256.779
9142.19
-280.832
9233.2
-312.263
9350.25
-321.143
9476.4
-274.903
9576.21
-154.815
9606.48
29.6758
9541.31
234.902
9385.44
410.096
9162.99
528.827
8903.22
588.305
8629.07
604.336
8361.62
580.412
8096.89
570.902
460.193
-175.045
67.3028
-126.575
-72.1551
-20.8817
-215.348
124.798
-365.583
292.401
-489.064
485.791
-602.937
706.774
-705.527
955.864
-809.351
1234.25
-915.312
1542.85
-1024.55
1881.11
-1133.02
2245.87
-1232.42
2633.45
-1320.7
3039.21
-1392.9
3459.81
-1450.21
3889.75
-1483.75
4322.43
-1487.7
4751.28
-1461.55
5169.81
-1406.45
5568.76
-1305.34
5924.35
-1093.54
6187.75
-701.312
6282.61
-114.246
6156.94
542.204
5879.72
957.896
5536.11
1124.86
5176.89
1152.46
4825.01
1119.72
4489.33
1064.96
4173.22
1002.65
3878.49
936.467
3607.05
865.706
3361.44
788.016
3145.18
700.165
2963.01
598.262
2820.79
478.544
2724.07
339.869
2676.86
184.814
2694.28
-16.8911
2802.11
-288.574
3005.29
-569.851
3283.82
-797.844
3612.14
-951.52
3969.97
-1042.19
4344.63
-1094.6
4730.34
-1132.68
5125.91
-1170.62
5531.98
-1212.18
5948.24
-1252.32
6370.13
-1277.5
6787.45
-1271
7186.78
-1223.5
7556.57
-1140.02
7890.51
-1035
8186
-919.151
8441.25
-795.021
8654.2
-662.168
8822.5
-520.044
8943.06
-366.278
9011.59
-199.088
9023.26
-20.9718
8974.32
162.892
8869
330.671
8722.02
454.018
8552.87
520.126
8379.19
534.086
8213.93
508.965
8065.39
457.906
7938.31
391.089
7835.08
315.243
7756.85
234.149
7704.23
149.415
7677.89
61.2373
7678.92
-30.8793
7708.72
-126.684
7768.22
-223.924
7857.07
-318.289
7972.74
-403.232
8109.53
-470.298
8257.7
-509.772
8402.85
-512.351
8527.76
-475.003
8616.28
-405.436
8658.5
-322.491
8656.4
-254.32
8624.44
-224.812
8586.06
-242.457
8566.35
-292.552
8582.59
-337.384
8635.63
-327.94
8704.67
-223.852
8750.06
-15.7184
8733.82
251.139
8642.73
501.194
8487.69
683.858
8291.23
784.771
8074.16
821.401
7856.61
797.966
7639.29
788.219
642.415
-144.163
68.0933
-93.8991
-122.424
9.00972
-318.26
143.42
-499.995
298.93
-644.576
479.512
-783.52
686.758
-912.775
921.412
-1044.01
1183.93
-1177.84
1474.22
-1314.84
1790.78
-1449.59
2129.82
-1571.46
2487.33
-1678.22
2858.89
-1764.46
3241.78
-1833.1
3631.17
-1873.14
4021.84
-1878.37
4408.55
-1848.27
4784.38
-1782.28
5140.56
-1661.53
5462.16
-1415.14
5717.77
-956.919
5837.72
-234.201
5750.2
629.73
5509.31
1198.79
5197.12
1437.05
4865.54
1484.04
4538.67
1446.59
4226.19
1377.44
3932.07
1296.77
3658.58
1209.96
3407.91
1116.37
3182.8
1013.13
2986.8
896.166
2824.54
760.514
2701.36
601.722
2621.72
419.516
2588.56
217.964
2617.05
-45.3781
2732.92
-404.444
2941.03
-777.966
3222.64
-1079.45
3552.35
-1281.23
3907.43
-1397.28
4273.37
-1460.54
4645.55
-1504.86
5025.89
-1550.96
5418.05
-1604.34
5823.21
-1657.48
6236.42
-1690.71
6645.8
-1680.38
7036.05
-1613.75
7394.76
-1498.74
7716.11
-1356.34
7998.56
-1201.6
8241.24
-1037.71
8442.94
-863.862
8602.11
-679.22
8716.34
-480.505
8781.72
-264.473
8793.19
-32.436
8745.77
210.31
8642.54
433.902
8497.94
598.614
8331.47
686.601
8160.33
705.221
7996.7
672.602
7847.98
606.626
7718.15
520.914
7609.11
424.28
7521.76
321.499
7456.78
214.395
7415.27
102.756
7399.11
-14.7224
7411.09
-138.67
7453.87
-266.699
7528.92
-393.339
7635.37
-509.677
7768.75
-603.681
7919.62
-660.642
8071.98
-664.712
8204.47
-607.496
8294.55
-495.51
8325.22
-353.164
8293.63
-222.731
8212.61
-143.791
8107.91
-137.756
8010.63
-195.269
7947.45
-274.213
7931.23
-311.719
7953.27
-245.89
7982.29
-44.7338
7979.1
254.321
7921.34
558.957
7810.13
795.068
7661
933.902
7491.1
991.307
7317.85
971.214
7144.29
961.779
790.33
-135.126
73.3367
-92.0774
-165.475
0.101455
-410.44
122.774
-622.67
269.785
-791.589
443.452
-957.188
644.071
-1113.39
871.376
-1271.31
1124.69
-1431.15
1403.08
-1593.23
1704.54
-1751.04
2024.93
-1891.85
2360.1
-2013.39
2705.79
-2110.15
3059.67
-2186.99
3417.31
-2230.78
3774.49
-2235.55
4126.87
-2200.64
4466.52
-2121.93
4783.61
-1978.62
5067.72
-1699.24
5300.65
-1189.85
5424.28
-357.829
5357.24
696.773
5142.55
1413.47
4857.36
1722.23
4552.11
1789.29
4250.39
1748.31
3961.83
1666
3690.57
1568.02
3439.15
1461.38
3209.95
1345.57
3005.76
1217.32
2830.05
1071.88
2687.11
903.448
2581.56
707.273
2517.11
483.965
2495.49
239.584
2530.7
-80.5877
2648.74
-522.482
2854.46
-983.687
3129.42
-1354.42
3449.02
-1600.84
3792.43
-1740.69
4148.36
-1816.47
4514.96
-1871.47
4894.52
-1930.52
5288.71
-1998.53
5695.83
-2064.6
6108.42
-2103.31
6513.08
-2085.04
6894.16
-1994.83
7240.2
-1844.77
7547.26
-1663.41
7815.55
-1469.89
8045.09
-1267.24
8235.05
-1053.83
8384.15
-828.318
8490.21
-586.568
8548.89
-323.149
8553.42
-36.9629
8497.14
266.583
8383.27
547.772
8228.04
753.847
8052.52
862.116
7874.17
883.575
7704.34
842.435
7549.3
761.663
7412.01
658.203
7293.64
542.655
7194.68
420.454
7115.72
293.353
7057.92
160.564
7023.46
19.7347
7016.14
-131.353
7040.43
-290.986
7099.99
-452.901
7196.14
-605.825
7326.36
-733.906
7482.65
-816.929
7648.9
-830.964
7801.11
-759.701
7910.78
-605.181
7952.93
-395.315
7918.37
-188.169
7816.32
-41.7446
7672.88
5.68509
7522.78
-45.17
7399.14
-150.572
7323.82
-236.398
7298
-220.074
7299.01
-45.7419
7290.9
262.433
7247.36
602.497
7163.08
879.344
7047.92
1049.06
6915.31
1123.92
6779.57
1106.95
6644.32
1097.03
905.851
-142.032
83.255
-107.94
-199.571
-26.6323
-491.75
86.9663
-736.27
229.364
-933.988
399.322
-1127.15
595.46
-1309.53
816.745
-1492.6
1062.11
-1676.52
1330.52
-1861.64
1619.89
-2040.41
1925.85
-2197.81
2243.94
-2331.47
2569.79
-2436
2901.19
-2518.39
3233.7
-2563.28
3563.65
-2565.51
3887.02
-2524.01
4194.89
-2429.81
4476.71
-2260.43
4725.07
-1947.61
4930.85
-1395.63
5045.99
-472.967
4986.19
756.576
4788.79
1610.87
4526.16
1984.86
4245.54
2069.91
3968.56
2025.29
3704.01
1930.55
3455.83
1816.2
3226.62
1690.6
3018.79
1553.39
2835.08
1401.03
2678.75
1228.21
2553.52
1028.67
2463.4
797.398
2411.54
535.821
2398.09
253.035
2435.44
-117.939
2548.05
-635.09
2741.48
-1177.12
3005.54
-1618.47
3322.41
-1917.71
3671.32
-2089.6
4037.36
-2182.5
4414.04
-2248.14
4799.06
-2315.55
5191.23
-2390.7
5588.56
-2461.93
5985.28
-2500.03
6370.39
-2470.15
6730.33
-2354.77
7055.65
-2170.09
7344.62
-1952.39
7598.89
-1724.15
7818.69
-1487.04
8002.75
-1237.89
8149.14
-974.71
8255.15
-692.579
8314.8
-382.795
8317.83
-39.9951
8254.06
330.351
8126.38
675.457
7954.25
925.977
7762.35
1054.01
7569.77
1076.15
7387.77
1024.44
7221.69
927.74
7073.43
806.46
6943.3
672.791
6831.21
532.539
6737.48
387.088
6663.14
234.895
6610.4
72.4824
6583.38
-104.333
6588.09
-295.703
6630.41
-495.217
6714.15
-689.566
6839.26
-859.01
6999.91
-977.579
7181.09
-1012.15
7357.7
-936.307
7496.2
-743.689
7563.27
-462.38
7542.7
-167.598
7438.61
62.3408
7276.57
167.727
7093.4
137.999
6925.61
17.2151
6800.72
-111.502
6727.62
-146.972
6692.46
-10.5891
6666.23
288.667
6622.93
645.796
6553.14
949.134
6461.78
1140.42
6358.54
1227.17
6254.48
1211.01
6152.64
1198.87
991.168
-158.833
97.8352
-130.664
-227.743
-56.5617
-565.854
50.6063
-843.44
189.619
-1073
355.607
-1293.14
546.112
-1500.04
760.125
-1706.61
996.879
-1913.28
1255.61
-2120.37
1534.23
-2319.04
1828.11
-2491.69
2132.41
-2635.77
2442.6
-2746.19
2756.42
-2832.21
3069.16
-2876.02
3377.26
-2873.61
3676.35
-2823.1
3956.24
-2709.7
4205.94
-2510.12
4420.72
-2162.4
4598.41
-1573.33
4698.41
-572.963
4637.31
817.675
4450.95
1797.23
4207.59
2228.22
3950.22
2327.28
3697.48
2278.02
3456.72
2171.31
3231.41
2041.5
3024.01
1898
2836.88
1740.52
2672.59
1565.33
2534.03
1366.77
2424.3
1138.4
2346.92
874.78
2304.53
578.203
2296.05
261.515
2329.71
-151.598
2428.04
-733.42
2609.63
-1358.72
2880.42
-1889.26
3218.16
-2255.46
3587.96
-2459.4
3965.61
-2560.15
4341.12
-2623.65
4712
-2686.43
5079.41
-2758.1
5445.54
-2828.07
5809.12
-2863.61
6162.34
-2823.37
6493.08
-2685.51
6792.89
-2469.9
7061.74
-2221.24
7302.53
-1964.94
7515.64
-1700.15
7699.41
-1421.66
7851.28
-1126.58
7967.97
-809.275
8041.65
-456.47
8057.33
-55.6801
7998.46
389.223
7864.89
809.029
7679.17
1111.69
7471.08
1262.1
7262.9
1284.34
7066.83
1220.51
6887.91
1106.66
6727.27
967.098
6584.46
815.597
6458.85
658.151
6350.41
495.534
6260.09
325.211
6190.01
142.566
6144.08
-58.4053
6129.27
-280.896
6153.39
-519.332
6222.91
-759.094
6340.73
-976.825
6503.76
-1140.61
6698.63
-1207.01
6900.04
-1137.72
7070.02
-913.669
7166.85
-559.208
7167.3
-168.043
7069.87
159.764
6900.45
337.146
6699.29
339.165
6503.49
213.009
6340.8
51.1896
6224.7
-30.8714
6150.18
63.9293
6097.46
341.394
6044.39
698.859
5979.8
1013.73
5904.48
1215.74
5824.4
1307.24
5747.28
1288.13
5674.89
1271.26
1048.35
-179.585
116.77
-152.549
-254.782
-82.4991
-635.905
18.5835
-944.524
152.943
-1207.36
313.308
-1453.5
496.512
-1683.25
701.997
-1912.1
929.455
-2140.73
1178.36
-2369.27
1446.61
-2587.29
1729.31
-2774.38
2021.4
-2927.86
2318.32
-3043.12
2617.87
-3131.76
2914.87
-3173.03
3205.57
-3164.3
3484.92
-3102.46
3741.13
-2965.91
3962.59
-2731.59
4146.74
-2346.55
4296.85
-1723.43
4377.19
-653.305
4308.87
885.987
4129.51
1976.59
3903.41
2454.31
3668.43
2562.27
3439.49
2506.96
3222.12
2388.68
3019.13
2244.49
2832.73
2084.4
2665.12
1908.13
2518.62
1711.83
2395.67
1489.71
2298.77
1235.3
2230.97
942.572
2194.89
614.283
2188.12
268.291
2210.92
-174.407
2293.57
-816.068
2481.82
-1546.96
2783.45
-2190.89
3149.89
-2621.9
3530.38
-2839.89
3900.02
-2929.79
4252.63
-2976.26
4589.7
-3023.5
4916.7
-3085.11
5240.67
-3152.03
5564.42
-3187.36
5882.24
-3141.19
6181.87
-2985.14
6454.62
-2742.65
6701.71
-2468.33
6927.29
-2190.52
7132.17
-1905.03
7314.93
-1604.42
7473.24
-1284.89
7604.26
-940.297
7699.9
-552.11
7741.24
-97.017
7703.12
427.344
7577.84
934.308
7388.77
1300.77
7171.01
1479.86
6951.06
1504.29
6743.08
1428.48
6552.55
1297.19
6380.31
1139.34
6225.46
970.451
6086.95
796.658
5964.49
617.995
5858.98
430.723
5772.58
228.963
5708.92
5.26203
5675.19
-247.17
5680.86
-524.998
5735.05
-813.291
5844.08
-1085.85
6008.22
-1304.75
6216.08
-1414.87
6442.65
-1364.29
6645.2
-1116.22
6773.16
-687.168
6796.49
-191.375
6707.85
248.413
6534.5
510.49
6322.79
550.88
6110.41
425.39
5921.16
240.434
5768.81
121.48
5656.21
176.527
5573.67
423.936
5505.1
767.428
5439.6
1079.24
5374.82
1280.52
5313.28
1368.77
5259.39
1342.02
5213.38
1317.27
1079.14
-200.16
137.572
-171.532
-283.412
-104.999
-702.44
-10.986
-1038.54
116.889
-1335.24
270.215
-1606.83
445.245
-1858.28
641.788
-2108.64
859.739
-2358.69
1098.62
-2608.15
1356.3
-2844.97
1627.76
-3045.85
1907.98
-3208.08
2192.67
-3327.81
2479.85
-3418.94
2763.92
-3457.1
3040.8
-3441.17
3304.66
-3366.33
3541.75
-3203
3739.54
-2929.38
3896.86
-2503.87
4021.17
-1847.73
4078.8
-710.938
3999
965.784
3824.15
2151.45
3614.31
2664.14
3401.23
2775.35
3195.63
2712.56
3001.04
2583.27
2819.48
2426.05
2652.85
2251.04
2503.11
2057.87
2372.27
1842.67
2262.32
1599.66
2175.24
1322.39
2113.62
1004.19
2080.98
646.924
2072.05
277.222
2078.9
-181.258
2156.81
-893.98
2375.56
-1765.72
2715.1
-2530.44
3095.89
-3002.69
3466.81
-3210.8
3811.27
-3274.25
4128.2
-3293.19
4422.1
-3317.4
4701.97
-3364.98
4979.28
-3429.34
5260.98
-3469.07
5543.37
-3423.58
5813.14
-3254.91
6060.21
-2989.71
6286.31
-2694.44
6496.24
-2400.45
6690.72
-2099.51
6868.75
-1782.45
7028.86
-1445.01
7169.83
-1081.27
7285.88
-668.152
7357.51
-168.653
7351.6
433.252
7248.29
1037.63
7068.06
1481
6850.2
1697.72
6625.47
1729.02
6410.53
1643.42
6211.85
1495.87
6030.47
1320.71
5865.4
1135.52
5715.43
946.632
5580.11
753.312
5460.33
550.503
5358.45
330.848
5278.08
85.6274
5226.03
-195.123
5213.28
-512.243
5251.48
-851.491
5350.91
-1185.29
5516.01
-1469.85
5737.72
-1636.58
5991.61
-1618.19
6228.9
-1353.51
6388.61
-846.872
6434.53
-237.294
6353.21
329.731
6174.73
688.97
5952.78
772.83
5726.85
651.322
5517.87
449.41
5337.85
301.503
5193.44
320.94
5083.02
534.35
4997.53
852.918
4928.11
1148.65
4870.44
1338.19
4824.23
1414.99
4790.78
1375.47
4768.87
1339.18
1084.96
-219.486
157.957
-189.757
-313.143
-128.135
-764.064
-41.8355
-1124.84
78.4274
-1455.5
223.865
-1752.27
390.678
-2025.09
578.561
-2296.52
787.166
-2567.29
1015.86
-2836.85
1262.53
-3091.64
1522.23
-3305.54
1790.2
-3476.06
2062.77
-3600.37
2338.47
-3694.65
2611.37
-3730.01
2877.2
-3707
3129.41
-3618.54
3352
-3425.59
3530.97
-3108.35
3665.58
-2638.48
3766.51
-1948.67
3799.55
-743.984
3705.65
1059.69
3534.19
2322.91
3340.34
2857.99
3148.85
2966.85
2965.97
2895.44
2793.22
2756.02
2631.8
2587.47
2483.25
2399.59
2349.3
2191.82
2231.59
1960.38
2131.79
1699.45
2051.34
1402.84
1992.64
1062.89
1960.96
678.603
1945.66
292.529
1936.51
-172.113
2028.22
-985.689
2291.58
-2029.08
2657.8
-2896.67
3033.87
-3378.76
3382.11
-3559.04
3693.2
-3585.34
3967.53
-3567.52
4211.14
-3561.01
4436.67
-3590.51
4661.15
-3653.82
4897.41
-3705.33
5144.86
-3671.03
5388.41
-3498.46
5614.87
-3216.17
5825.32
-2904.89
6024.04
-2599.17
6210.5
-2285.96
6383.4
-1955.34
6541.84
-1603.45
6686.53
-1225.96
6815.6
-797.219
6913.41
-266.468
6942.9
403.76
6869.87
1110.66
6708.42
1642.44
6499.78
1906.37
6278.03
1950.76
6062.2
1859.26
5859.96
1698.12
5672.89
1507.77
5500.19
1308.22
5340.71
1106.11
5194.03
899.986
5061.09
683.445
4944.5
447.438
4848.29
181.836
4778.57
-125.404
4747.49
-481.153
4769.1
-873.102
4858.32
-1274.51
5024.74
-1636.28
5262.39
-1874.22
5548.14
-1903.95
5824.88
-1630.25
6017.98
-1039.97
6085.52
-304.836
6007.81
407.438
5819.74
877.043
5584.98
1007.59
5345.85
890.454
5120.96
674.297
4919.67
502.791
4749.84
490.768
4615.79
668.405
4514.88
953.826
4441.01
1222.53
4388.74
1390.46
4355.76
1447.97
4340.71
1390.52
4341.31
1338.59
1066.96
-237.755
170.707
-209.079
-341.822
-153.487
-819.656
-75.1272
-1203.2
36.2827
-1566.92
173.063
-1889.05
331.992
-2184.02
511.759
-2476.29
711.326
-2766.86
929.778
-3055.31
1165.05
-3326.91
1412.39
-3552.89
1667.53
-3731.2
1927.67
-3860.51
2192.11
-3959.09
2454.74
-3992.63
2711.36
-3963.62
2955
-3862.17
3167.26
-3637.85
3332.24
-3273.32
3448.56
-2754.8
3528.97
-2029.07
3536.26
-751.279
3426.91
1169.04
3258.8
2491.02
3081.1
3035.69
2910.8
3137.15
2749.71
3056.53
2597.44
2908.29
2454.46
2730.45
2321.95
2532.1
2201.37
2312.4
2094.08
2067.67
2001.53
1792
1924.65
1479.72
1866.23
1121.3
1833.36
711.465
1807.47
318.424
1787.83
-152.48
1912.23
-1110.09
2221
-2337.85
2596.38
-3272.05
2955.06
-3737.43
3274.12
-3878.1
3544.93
-3856.15
3767.18
-3789.77
3949.42
-3743.25
4109.68
-3750.77
4273.16
-3817.29
4461.46
-3893.64
4677.69
-3887.26
4902.22
-3722.99
5115.98
-3429.93
5318.59
-3107.5
5513.55
-2794.13
5698.38
-2470.79
5870.59
-2127.56
6028.88
-1761.75
6174.97
-1372.04
6310.52
-932.769
6426.11
-382.056
6486.74
343.129
6445.56
1151.84
6308.39
1779.61
6116
2098.76
5904.1
2162.66
5693.28
2070.08
5492.26
1899.13
5303.26
1696.78
5125.84
1485.65
4959.09
1272.86
4802.76
1056.31
4657.92
828.293
4527.42
577.928
4415.92
293.342
4329.23
-38.7122
4279.79
-431.712
4283.92
-877.233
4361.95
-1352.54
4529.92
-1804.24
4786.13
-2130.44
5110.79
-2228.61
5435.23
-1954.68
5665.45
-1270.2
5753.31
-392.689
5672.9
487.847
5467.69
1082.25
5215.22
1260.07
4961.53
1144.14
4722.8
913.03
4505.23
720.354
4316.41
679.591
4164.42
820.397
4051.61
1066.63
3974.51
1299.63
3927.2
1437.76
3906.26
1468.91
3908.13
1388.65
3930.26
1316.46
1026.08
-257.107
183.338
-230.838
-368.092
-181.381
-869.115
-110.387
-1274.2
-9.04551
-1668.26
118.114
-2016.21
269.466
-2335.37
441.601
-2648.43
632.471
-2957.73
840.807
-3263.64
1064.56
-3550.66
1299.21
-3787.54
1541.03
-3973.03
1788.26
-4107.74
2041.21
-4212.04
2293.71
-4245.13
2542.05
-4211.96
2779.16
-4099.29
2984.33
-3843.02
3139.47
-3428.47
3241.78
-2857.11
3304.84
-2092.13
3285.99
-732.43
3161.01
1294.01
2997.05
2654.99
2835.84
3196.89
2686.13
3286.86
2545.5
3197.16
2411.96
3041.83
2285.35
2857.05
2166.56
2650.89
2056.82
2422.14
1957.26
2167.23
1869.24
1880.01
1793.24
1555.73
1733.32
1181.22
1697.37
747.408
1656.74
359.059
1637.23
-132.971
1809.44
-1282.3
2154.41
-2682.82
2523.01
-3640.64
2856.71
-4071.14
3139.53
-4160.92
3358.63
-4075.25
3514.79
-3945.93
3622.16
-3850.63
3707.34
-3835.95
3807.19
-3917.15
3953.63
-4040.07
4149.91
-4083.55
4365.7
-3938.78
4573.15
-3637.37
4772.12
-3306.48
4967.54
-2989.54
5155.7
-2658.96
5332.74
-2304.6
5495.84
-1924.84
5646.16
-1522.37
5786.91
-1073.52
5913.36
-508.508
5997.3
259.196
5983.95
1165.19
5871.85
1891.71
5699.68
2270.93
5502.73
2359.6
5301.91
2270.9
5106.47
2094.58
4919.11
1884.13
4739.85
1664.91
4568.11
1444.6
4403.89
1220.53
4248.43
983.754
4104.88
721.472
3978.47
419.76
3875.45
64.3036
3807.19
-363.454
3792.18
-862.219
3857.06
-1417.42
4025.5
-1972.68
4302.41
-2407.35
4675.93
-2602.13
5061.45
-2340.2
5336.31
-1545.06
5443.42
-499.796
5350.83
580.433
5117.51
1315.57
4840.2
1537.39
4569.22
1415.12
4317.74
1164.51
4088.31
949.781
3887.03
880.875
3723.66
983.769
3603.66
1186.63
3525.66
1377.63
3483.67
1479.75
3474.12
1478.47
3491.82
1370.94
3535.11
1273.17
963.274
-277.931
196.938
-255.162
-390.864
-211.446
-912.831
-147.416
-1338.23
-56.6091
-1759.07
60.4663
-2133.29
204.217
-2479.12
368.962
-2813.17
551.529
-3140.3
750.195
-3462.31
962.753
-3763.22
1184.82
-4009.61
1413.08
-4201.29
1646.85
-4341.5
1887.55
-4452.74
2129.24
-4486.83
2369.24
-4451.96
2600.91
-4330.96
2801.08
-4043.19
2949.49
-3576.88
3041.39
-2949.02
3090.28
-2141.01
3045.77
-687.92
2906.31
1433.46
2747.93
2813.38
2603.59
3341.23
2473.56
3416.89
2351.72
3319
2234.85
3158.7
2122.34
2969.57
2014.85
2758.38
1913.45
2523.53
1819.16
2261.53
1733.3
1965.87
1656.03
1632.99
1593.73
1243.53
1552.57
788.565
1493.09
418.54
1489.53
-129.418
1718.86
-1511.63
2083.96
-3047.93
2432.89
-3989.57
2734.21
-4372.46
2968.93
-4395.64
3120.35
-4226.66
3195.78
-4021.37
3219.88
-3874.73
3231.67
-3847.73
3281.14
-3966.62
3405.6
-4164.53
3598.78
-4276.73
3812.82
-4152.82
4012
-3836.55
4202.15
-3496.63
4393.99
-3181.38
4584.39
-2849.36
4768.33
-2488.53
4940.71
-2097.22
5100.87
-1682.54
5251.15
-1223.8
5386.94
-644.293
5487.41
158.724
5495.14
1157.46
5405.33
1981.52
5254.56
2421.7
5075.8
2538.37
4888.78
2457.92
4702.52
2280.84
4519.95
2066.7
4341.47
1843.39
4166.87
1619.2
3996.4
1391
3831.53
1148.63
3675.67
877.332
3534.5
560.93
3415.55
183.25
3327.48
-275.378
3290.64
-825.387
3338.51
-1465.29
3502.43
-2136.6
3800.59
-2705.51
4237.36
-3038.89
4702.22
-2805.06
5032.18
-1875.02
5159.21
-626.827
5043.13
696.512
4767.19
1591.5
4455.52
1849.06
4163.78
1706.86
3901.04
1427.24
3664.84
1185.98
3458.2
1087.52
3290.49
1151.48
3168.5
1308.62
3092.39
1453.74
3056.36
1515.78
3057.78
1477.05
3090.46
1338.26
3155.13
1208.5
879.615
-300.463
212.51
-281.57
-409.758
-242.896
-951.508
-185.022
-1396.1
-104.12
-1839.97
2.39171
-2239.8
137.651
-2614.38
294.921
-2970.44
469.686
-3315.06
659.504
-3652.13
861.727
-3965.44
1071.94
-4219.82
1286.78
-4416.14
1506.4
-4561.11
1733.46
-4679.81
1962.76
-4716.12
2193.48
-4682.68
2419.93
-4557.41
2616.23
-4239.5
2759.92
-3720.57
2844.14
-3033.23
2881.74
-2178.61
2812.81
-618.994
2661.26
1585.01
2510.42
2964.21
2383.23
3468.42
2271.74
3528.38
2166.79
3423.95
2064.36
3261.13
1963.61
3070.32
1865.07
2856.92
1769.71
2618.89
1678.52
2352.72
1592.82
2051.57
1512.77
1713.04
1447.85
1308.45
1398.42
837.987
1317.25
499.711
1349.78
-161.947
1637.3
-1799.15
2002.39
-3413.02
2320.54
-4307.72
2578.58
-4630.5
2748.62
-4565.68
2816.61
-4294.65
2804.46
-4009.22
2752.33
-3822.6
2712.83
-3808.24
2742.9
-3996.68
2871.61
-4293.24
3073.01
-4478.14
3281.68
-4361.49
3460.28
-4015.15
3627.95
-3664.31
3805.4
-3358.83
3990.99
-3034.95
4178.65
-2676.19
4360.81
-2279.37
4534.97
-1856.7
4701.25
-1390.07
4850.18
-793.221
4965.01
43.8958
4987.84
1134.62
4915.96
2053.4
4785.83
2551.83
4626.91
2697.29
4456.34
2628.49
4282.03
2455.15
4106.81
2241.92
3931.34
2018.86
3755.72
1794.81
3580.47
1566.25
3407.21
1321.9
3239.56
1044.98
3083.54
716.953
2948.4
318.387
2839.44
-166.422
2776.81
-762.757
2798.8
-1487.28
2947.35
-2285.14
3271.16
-3029.33
3791.75
-3559.48
4347.59
-3360.9
4732.38
-2259.81
4879.61
-774.053
4734.59
841.53
4406.23
1919.86
4053.33
2201.97
3739.6
2020.59
3469.3
1697.54
3233.04
1422.25
3028.83
1291.72
2863.85
1316.47
2744.89
1427.58
2673.26
1525.37
2643.65
1545.39
2655.74
1464.96
2702.72
1291.28
2789.69
1121.53
776.426
-324.351
230.618
-309.37
-424.74
-275.28
-985.598
-223.075
-1448.31
-150.918
-1912.13
-54.683
-2336.04
71.0739
-2740.14
220.415
-3119.79
387.918
-3482.56
569.969
-3834.18
763.259
-4158.73
963.05
-4419.61
1165.11
-4618.19
1369.83
-4765.84
1581.33
-4891.3
1795.88
-4930.68
2015.64
-4902.44
2236.43
-4778.2
2429.26
-4432.33
2569.37
-3860.68
2647.72
-3111.57
2676.43
-2207.32
2584.77
-527.338
2424.5
1745.27
2283.51
3105.2
2173.6
3578.33
2079.31
3622.67
1989.25
3514.01
1899.04
3351.33
1807.81
3161.55
1716.03
2948.69
1624.63
2710.29
1534.69
2442.65
1447.54
2138.73
1363.76
1796.82
1296.19
1376.02
1234.18
899.987
1133.32
600.575
1222.66
-251.285
1558.44
-2134.93
1902.35
-3756.93
2178.15
-4583.52
2377.47
-4829.82
2466.26
-4654.47
2444.17
-4272.56
2354.2
-3919.26
2252.44
-3720.83
2199.73
-3755.54
2245.63
-4042.58
2396.47
-4444.08
2605.74
-4687.41
2798.13
-4553.88
2940.86
-4157.88
3071.2
-3794.65
3222.03
-3509.65
3393.08
-3206
3576.87
-2859.99
3763.74
-2466.25
3950.7
-2043.67
4136.19
-1575.56
4302.88
-959.916
4433.16
-86.3826
4467.69
1100.09
4409.8
2111.29
4298.84
2662.79
4160.43
2835.7
4008.02
2780.9
3847.7
2615.47
3681.79
2407.83
3511.1
2189.55
3335.99
1969.92
3157.14
1745.1
2976.26
1502.77
2797.09
1224.15
2625.91
888.133
2473.82
470.475
2343.79
-36.3895
2247.83
-666.796
2228.19
-1467.65
2357.99
-2414.94
2729.92
-3401.26
3348.25
-4177.81
3972.45
-3985.09
4379.38
-2666.75
4539.02
-933.698
4374.22
1006.33
4003.82
2290.26
3617.67
2588.11
3289.79
2348.47
3020.8
1966.54
2793.51
1649.54
2599.92
1485.3
2444.12
1472.27
2332.46
1539.24
2267.32
1590.51
2244.32
1568.39
2267.04
1442.24
2327.27
1231.06
2438.02
1010.78
656.293
-348.718
244.371
-337.907
-435.554
-308.229
-1015.28
-261.362
-1495.18
-196.395
-1977.1
-109.317
-2423.12
5.85763
-2855.32
146.189
-3260.12
306.737
-3643.11
482.097
-4009.54
668.273
-4344.91
859.743
-4611.08
1050.13
-4808.58
1239.42
-4955.13
1433.34
-5085.22
1630.51
-5127.85
1837.12
-5109.05
2051.14
-4992.22
2240.15
-4621.35
2377.08
-3997.61
2450.66
-3185.16
2472.42
-2229.07
2359.9
-414.826
2194.88
1910.3
2066.16
3233.92
1973.49
3671
1894.93
3701.23
1817.77
3591.17
1737.67
3431.43
1653.88
3245.34
1566.88
3035.69
1477.64
2799.52
1387.44
2532.86
1297.54
2228.63
1209.63
1884.73
1138.82
1446.83
1059.88
978.932
951.175
709.275
1112.2
-412.312
1473.32
-2496.05
1775.99
-4059.6
1995.51
-4803.04
2119.73
-4954.04
2120.04
-4654.78
2018.16
-4170.69
1875.62
-3776.72
1759.52
-3604.73
1731.62
-3727.64
1819.08
-4130.04
1998.35
-4623.35
2210.48
-4899.54
2377.65
-4721.05
2472.55
-4252.77
2552.09
-3874.19
2663.47
-3621.04
2808.92
-3351.45
2979.71
-3030.78
3164.26
-2650.79
3359.9
-2239.3
3563.72
-1779.38
3749.22
-1145.41
3893.72
-230.881
3937.62
1056.19
3891.3
2157.61
3798.42
2755.67
3680.81
2953.31
3547.67
2914.04
3402.71
2760.43
3247.55
2562.99
3082.98
2354.12
2909.54
2143.36
2728
1926.64
2540.02
1690.75
2349.28
1414.9
2162.28
1075.13
1991.42
641.332
1842.52
112.517
1699.74
-524.018
1634.21
-1402.12
1777.9
-2558.62
2223.73
-3847.09
2906.1
-4860.18
3526.72
-4605.71
3896.55
-3036.57
4053.97
-1091.13
3892.68
1167.63
3516.38
2666.56
3127.43
2977.06
2807.77
2668.13
2556.28
2218.03
2349.38
1856.44
2174.26
1660.42
2032.8
1613.73
1931.6
1640.44
1874.17
1647.94
1857.72
1584.84
1890.1
1409.87
1960.66
1160.49
2098.85
872.591
522.539
-373.92
262.147
-366.561
-442.914
-341.4
-1040.44
-299.714
-1536.86
-240.806
-2036
-161.739
-2502.18
-57.4036
-2959.65
72.9507
-3390.47
226.25
-3796.41
395.688
-4178.98
576.675
-4525.9
762.23
-4796.63
942.619
-4988.97
1116.64
-5129.15
1291.65
-5260.23
1469.07
-5305.26
1659.9
-5299.88
1865.07
-5197.39
2048.93
-4805.21
2182.34
-4131.02
2251.79
-3254.61
2268.29
-2245.58
2136.96
-283.49
1971.42
2075.83
1857.22
3348.12
1781.52
3746.7
1717.19
3765.56
1651.03
3657.33
1579.12
3503.34
1500.92
3323.54
1416.98
3119.64
1328.41
2888.09
1236.71
2624.55
1143.14
2322.19
1050.98
1976.89
975.512
1522.29
873.942
1080.5
778.771
804.444
1017.56
-651.106
1371.44
-2849.94
1614.65
-4302.8
1762.86
-4951.25
1803.51
-4994.69
1726.05
-4577.32
1567.97
-4012.61
1398.79
-3607.54
1299.4
-3505.34
1326.93
-3755.17
1469.14
-4272.24
1674.36
-4828.57
1883.39
-5108.58
2018.01
-4855.66
2052.61
-4287.38
2063.43
-3885.02
2117.51
-3675.12
2225.2
-3459.13
2376.66
-3182.23
2557.4
-2831.54
2763.53
-2445.44
2989.12
-2004.97
3195.11
-1351.4
3350.83
-386.605
3400.73
1006.29
3363.97
2194.37
3288.71
2830.94
3192.3
3049.72
3079.17
3027.17
2950.47
2889.13
2806.98
2706.48
2649.47
2511.63
2478.53
2314.3
2294.91
2110.26
2100.11
1885.55
1897.46
1617.54
1693.5
1279.1
1500.26
834.566
1333.45
279.331
1138.01
-328.583
1070.53
-1334.64
1274.95
-2763.05
1762.55
-4334.68
2416.43
-5514.07
2950.87
-5140.16
3238.38
-3324.08
3384.95
-1237.69
3253.06
1299.52
2917.88
3001.73
2570.91
3324.04
2292.97
2946.08
2080.38
2430.62
1906.03
2030.78
1755.84
1810.61
1632.12
1737.45
1543.39
1729.18
1493.36
1697.96
1482.75
1595.44
1521.48
1371.14
1599.25
1082.72
1777.57
694.262
373.923
-398.551
284.016
-394.716
-446.751
-374.218
-1060.94
-337.632
-1573.45
-284.246
-2089.39
-212.124
-2574.31
-117.767
-3054.01
1.73064
-3509.97
146.473
-3941.16
310.185
-4342.69
487.488
-4703.2
669.3
-4978.45
841.987
-5161.66
1002.3
-5289.47
1158.37
-5416.31
1314.22
-5461.11
1486.07
-5471.74
1679.01
-5390.33
1855.28
-4981.47
1984.18
-4259.93
2049.75
-3320.17
2062.6
-2258.43
1914.88
-135.767
1753.21
2237.49
1655.48
3445.86
1596.19
3805.99
1544.54
3817.22
1487.66
3714.21
1422.26
3568.74
1348.1
3397.7
1265.76
3201.98
1176.67
2977.18
1082.58
2718.64
984.775
2420
887.932
2073.73
804.93
1605.29
677.397
1208.03
623.663
858.176
932.102
-959.546
1241.84
-3159.67
1410.12
-4471.09
1477.4
-5018.53
1443.83
-4961.13
1314.54
-4448.03
1120.44
-3818.51
943.762
-3430.86
893.077
-3454.66
995.267
-3857.36
1183.1
-4460.08
1398.52
-5043.99
1594.12
-5304.18
1686.06
-4947.6
1643.41
-4244.73
1562.82
-3804.43
1545.29
-3657.59
1613.08
-3526.92
1746.34
-3315.5
1926.11
-3011.3
2145.84
-2665.17
2397.69
-2256.82
2631.04
-1584.75
2802.64
-558.21
2858.57
950.36
2830.44
2222.5
2773.27
2888.1
2698.78
3124.21
2606.24
3119.71
2494.29
3001.08
2363.02
2837.75
2213.13
2661.53
2045.23
2482.2
1859.89
2295.6
1658.27
2087.17
1443.13
1832.68
1220.72
1501.51
1000.17
1055.11
800.969
478.53
594.062
-121.675
597.806
-1338.38
843.725
-3008.96
1287.16
-4778.12
1826.65
-6053.56
2233.78
-5547.29
2420.04
-3510.34
2549.79
-1367.45
2471.68
1377.63
2217.55
3255.86