/*--------------------------------*- C++ -*----------------------------------*\
| =========                 |                                                 |
| \\      /  F ield         | OpenFOAM: The Open Source CFD Toolbox           |
|  \\    /   O peration     | Version:  4.1                                   |
|   \\  /    A nd           | Web:      www.OpenFOAM.org                      |
|    \\/     M anipulation  |                                                 |
\*---------------------------------------------------------------------------*/
FoamFile
{
    version     2.0;
    format      ascii;
    class       volVectorField;
    location    "1700";
    object      U;
}
// * * * * * * * * * * * * * * * * * * * * * * * * * * * * * * * * * * * * * //

dimensions      [0 1 -1 0 0 0 0];

internalField   nonuniform List<vector> 
26785
(
(-7.2089e-15 0.0067487 -2.14035)
(-6.98953e-15 -0.0043392 -2.121)
(-7.08939e-15 -0.0194998 -1.85118)
(-1.56113e-14 -0.0391653 -1.29583)
(4.83177e-15 -0.055107 -0.428823)
(-1.07754e-14 -0.0649193 0.785741)
(-4.12367e-15 -0.0766953 2.1894)
(-2.36523e-15 -0.0923021 3.78543)
(5.53942e-15 -0.108091 5.55232)
(-8.39838e-16 -0.12423 7.48642)
(9.36292e-16 -0.140311 9.58096)
(-4.18437e-17 -0.155101 11.8142)
(3.70135e-16 -0.16812 14.1573)
(7.09256e-16 -0.178127 16.5714)
(1.08219e-15 -0.184467 19.0142)
(1.34761e-15 -0.185424 21.4388)
(1.5358e-15 -0.179908 23.778)
(1.78188e-15 -0.167952 25.9593)
(1.53539e-15 -0.150068 27.9355)
(2.36024e-15 -0.122994 29.6475)
(3.76371e-15 -0.0771452 30.9485)
(2.97243e-15 -0.00923413 31.6025)
(3.98829e-15 0.071155 31.3342)
(5.77545e-15 0.14215 30.0622)
(6.83053e-15 0.180839 28.1018)
(7.60516e-15 0.192289 25.8983)
(6.70255e-15 0.18948 23.7177)
(6.38304e-15 0.180861 21.6602)
(3.96178e-15 0.17038 19.7535)
(4.42134e-15 0.159483 17.9992)
(4.2474e-15 0.148492 16.3923)
(5.08809e-15 0.137273 14.9285)
(-1.13237e-15 0.125523 13.6065)
(3.30108e-15 0.112847 12.4289)
(-4.31934e-15 0.0988142 11.4023)
(-4.90814e-15 0.0830636 10.5366)
(-7.46183e-15 0.0654538 9.8462)
(-9.16368e-15 0.0460988 9.33778)
(-1.07533e-14 0.0212724 9.0292)
(-1.33049e-14 -0.0101359 8.97808)
(-8.70843e-15 -0.0410254 9.23493)
(-9.11917e-15 -0.0664815 9.76585)
(-6.21317e-15 -0.0849007 10.4904)
(-6.04754e-15 -0.0965313 11.3258)
(-6.26239e-15 -0.103085 12.2098)
(-7.48536e-15 -0.107028 13.1099)
(-6.66838e-15 -0.110312 14.0195)
(-6.36918e-15 -0.11383 14.9446)
(-5.78477e-15 -0.117402 15.8904)
(-5.36762e-15 -0.119702 16.8523)
(-4.76527e-15 -0.118796 17.8099)
(-4.9411e-15 -0.113395 18.7292)
(-4.74518e-15 -0.103772 19.5732)
(-4.82376e-15 -0.091358 20.315)
(-4.92321e-15 -0.077319 20.9419)
(-5.33576e-15 -0.0619575 21.449)
(-4.38363e-15 -0.04526 21.8324)
(-3.92523e-15 -0.0271967 22.0871)
(-4.24135e-15 -0.00744092 22.2068)
(-3.06716e-15 0.0138354 22.1839)
(-2.88179e-15 0.0355603 22.0143)
(-2.46093e-15 0.0567352 21.6989)
(-2.51307e-15 0.0753417 21.2481)
(-1.67329e-15 0.0887583 20.6912)
(-1.01873e-15 0.0957957 20.072)
(-1.2249e-15 0.0969924 19.4356)
(-1.19938e-15 0.0937115 18.8174)
(-9.97006e-16 0.0873479 18.2414)
(-6.69717e-16 0.0789873 17.7219)
(-2.70507e-16 0.0693286 17.2671)
(2.27925e-16 0.0587219 16.881)
(7.68759e-16 0.0472198 16.5662)
(1.28828e-15 0.0347175 16.3247)
(1.84438e-15 0.0212184 16.1593)
(2.31019e-15 0.00696189 16.072)
(3.00289e-15 -0.00758837 16.0627)
(3.39847e-15 -0.0217257 16.1287)
(3.5322e-15 -0.0345454 16.2632)
(3.77341e-15 -0.0450991 16.4543)
(3.98497e-15 -0.0526215 16.6855)
(4.11789e-15 -0.0568024 16.9363)
(4.42141e-15 -0.0582493 17.1862)
(4.35451e-15 -0.0585529 17.4198)
(4.16301e-15 -0.0597135 17.6327)
(4.41465e-15 -0.0632938 17.8329)
(4.11652e-15 -0.0688561 18.0379)
(4.08598e-15 -0.0730827 18.2641)
(4.14082e-15 -0.0700798 18.5118)
(4.84228e-15 -0.0534983 18.7523)
(4.96408e-15 -0.0207308 18.9261)
(5.12949e-15 0.0236935 18.959)
(5.27888e-15 0.0701871 18.7939)
(5.33224e-15 0.109712 18.4229)
(5.27406e-15 0.137294 17.882)
(5.12542e-15 0.152343 17.232)
(5.05288e-15 0.156717 16.527)
(4.79021e-15 0.154205 15.8292)
(4.43537e-15 0.145312 15.1176)
(4.13683e-15 0.140979 14.5758)
(3.22436e-15 0.116227 13.7174)
(-2.83237e-15 0.017175 -1.83117)
(-8.23854e-15 -0.0246782 -1.58633)
(2.50438e-15 -0.0658573 -1.0664)
(4.11517e-15 -0.124455 -0.134523)
(1.52799e-14 -0.167573 0.978803)
(-8.42134e-16 -0.200598 2.25023)
(8.95965e-15 -0.234745 3.67645)
(5.47352e-15 -0.272282 5.2161)
(1.54391e-15 -0.309572 6.8628)
(2.37133e-15 -0.346945 8.61637)
(1.24365e-15 -0.383232 10.4702)
(7.66054e-16 -0.415628 12.4054)
(3.09572e-16 -0.443538 14.3987)
(1.11444e-16 -0.464673 16.4207)
(-5.02955e-16 -0.478727 18.4454)
(8.74717e-16 -0.481852 20.4499)
(8.8742e-16 -0.471357 22.394)
(-1.42036e-16 -0.44704 24.2323)
(3.79222e-16 -0.4097 25.9394)
(3.83517e-17 -0.350195 27.4798)
(1.79752e-16 -0.239885 28.7521)
(-7.90857e-16 -0.061049 29.5732)
(-1.59971e-15 0.173357 29.6327)
(1.49221e-15 0.394597 28.6749)
(3.2945e-15 0.519356 26.9379)
(3.72344e-15 0.558541 24.8875)
(4.65033e-15 0.552258 22.82)
(3.76262e-15 0.527412 20.8539)
(3.7942e-15 0.496636 19.0259)
(7.93649e-16 0.464526 17.3425)
(2.10878e-15 0.432097 15.8012)
(1.37189e-15 0.398934 14.3991)
(6.22161e-16 0.364111 13.1362)
(4.94246e-16 0.326453 12.0159)
(7.03322e-16 0.284706 11.0452)
(-1.29612e-15 0.237815 10.2342)
(-4.13073e-15 0.185366 9.59768)
(-5.90528e-15 0.128447 9.14046)
(-6.83869e-15 0.0566574 8.87412)
(-6.83115e-15 -0.0375946 8.8518)
(-7.03807e-15 -0.135704 9.15371)
(-1.11931e-15 -0.217968 9.74636)
(-1.45582e-15 -0.274114 10.5307)
(3.86595e-15 -0.305141 11.4135)
(3.14469e-15 -0.319977 12.3357)
(3.41943e-15 -0.329025 13.2721)
(2.71741e-16 -0.338817 14.2199)
(-9.79155e-16 -0.351003 15.1838)
(-2.84867e-15 -0.363441 16.1654)
(-1.94894e-15 -0.370895 17.1557)
(-3.22086e-15 -0.367119 18.1311)
(-2.61507e-15 -0.348552 19.0563)
(-3.05133e-15 -0.316698 19.8951)
(-2.48906e-15 -0.276501 20.623)
(-3.05337e-15 -0.231908 21.2305)
(-3.58167e-15 -0.184064 21.7164)
(-2.31549e-15 -0.132983 22.0792)
(-1.48129e-15 -0.078578 22.3165)
(-2.77056e-15 -0.0199784 22.4238)
(-2.77534e-15 0.0428256 22.396)
(-3.00069e-15 0.107854 22.2272)
(-1.46336e-15 0.172332 21.9102)
(-5.96729e-16 0.229147 21.4545)
(-1.70585e-15 0.269682 20.8904)
(-1.46321e-15 0.290172 20.2648)
(-9.5774e-16 0.292441 19.6251)
(-6.53738e-16 0.280915 19.0081)
(-7.38787e-16 0.260086 18.4375)
(3.83686e-16 0.233463 17.9269)
(2.46753e-16 0.203375 17.4832)
(6.0639e-16 0.171136 17.1088)
(1.40053e-15 0.137275 16.8039)
(1.85545e-15 0.101858 16.568)
(2.2094e-15 0.0648765 16.4)
(2.69805e-15 0.0267939 16.2995)
(2.81619e-15 -0.0113061 16.2655)
(2.66431e-15 -0.0476594 16.2947)
(2.82743e-15 -0.079896 16.3805)
(2.83313e-15 -0.105291 16.5118)
(2.64466e-15 -0.121181 16.6718)
(2.48333e-15 -0.125698 16.8381)
(2.31283e-15 -0.119501 16.9845)
(2.04314e-15 -0.106691 17.0874)
(1.59264e-15 -0.0940253 17.1328)
(1.87412e-15 -0.0892148 17.123)
(2.7692e-15 -0.0962706 17.0791)
(3.60623e-15 -0.111975 17.0351)
(4.55789e-15 -0.124467 17.0254)
(4.89587e-15 -0.11554 17.0676)
(5.0142e-15 -0.0687446 17.1493)
(4.99892e-15 0.0197003 17.222)
(4.89515e-15 0.135505 17.2078)
(4.77088e-15 0.250586 17.0352)
(5.12148e-15 0.340989 16.6901)
(4.89798e-15 0.39723 16.2101)
(4.76822e-15 0.420907 15.6447)
(4.64377e-15 0.421993 15.0594)
(4.22697e-15 0.402309 14.4408)
(3.92581e-15 0.392956 13.9684)
(2.89173e-15 0.326185 13.1986)
(9.58785e-15 0.0125196 -1.39883)
(2.2687e-14 -0.0656239 -1.09974)
(-1.212e-15 -0.141401 -0.4413)
(1.10814e-14 -0.222452 0.530687)
(1.13681e-14 -0.280487 1.60527)
(2.47476e-15 -0.331851 2.79242)
(7.71782e-15 -0.382637 4.08519)
(2.14309e-15 -0.436047 5.46826)
(1.38697e-15 -0.489934 6.94197)
(8.33626e-16 -0.544729 8.50827)
(-3.53141e-16 -0.598252 10.1621)
(-1.38395e-15 -0.645902 11.8853)
(-1.95365e-15 -0.686758 13.654)
(-1.63666e-15 -0.717707 15.4395)
(-8.02742e-16 -0.739283 17.2196)
(-9.7443e-16 -0.745992 18.9773)
(2.5497e-17 -0.734012 20.6802)
(-2.21085e-15 -0.703083 22.2953)
(-3.87345e-16 -0.654736 23.8066)
(-3.11565e-17 -0.577085 25.1851)
(8.70158e-16 -0.426688 26.3616)
(-2.17345e-15 -0.166503 27.2325)
(-3.46511e-15 0.205993 27.5359)
(-4.6282e-16 0.586265 26.8826)
(1.65491e-15 0.812329 25.3918)
(2.45777e-15 0.890782 23.5262)
(1.31057e-15 0.888116 21.6038)
(1.77173e-15 0.851307 19.7589)
(1.71459e-15 0.80291 18.0371)
(7.60827e-16 0.751348 16.4498)
(-7.36908e-16 0.69868 14.9975)
(2.63694e-15 0.644399 13.6794)
(-1.63048e-15 0.587072 12.4968)
(-1.67595e-15 0.524842 11.4538)
(4.00922e-16 0.455686 10.5579)
(-1.45803e-15 0.377913 9.81937)
(-2.5573e-15 0.291301 9.25192)
(-3.44313e-15 0.198472 8.8552)
(-4.08795e-15 0.0813689 8.63663)
(-3.88722e-15 -0.0773569 8.65868)
(-3.40538e-15 -0.244744 9.01237)
(-1.1526e-15 -0.381138 9.64652)
(1.04399e-15 -0.470662 10.4594)
(3.94112e-16 -0.519952 11.3678)
(-2.04789e-15 -0.545364 12.3163)
(-4.63357e-15 -0.562228 13.2739)
(-6.19926e-15 -0.579021 14.2307)
(-6.74769e-15 -0.597513 15.1886)
(-6.82705e-15 -0.614525 16.1508)
(-6.84004e-15 -0.622286 17.1127)
(-6.8502e-15 -0.611311 18.0548)
(-6.51327e-15 -0.576325 18.9438)
(-6.05289e-15 -0.520306 19.7447)
(-5.54777e-15 -0.451775 20.4347)
(-5.29844e-15 -0.377276 21.0069)
(-4.34433e-15 -0.298469 21.4623)
(-2.97927e-15 -0.215126 21.8016)
(-3.61729e-15 -0.126944 22.0238)
(-3.27872e-15 -0.0324779 22.1256)
(-4.61117e-15 0.0690862 22.1033)
(-4.95396e-15 0.176026 21.951)
(-5.00981e-15 0.284031 21.6565)
(-4.81506e-15 0.37993 21.2243)
(-4.80508e-15 0.448198 20.6815)
(-2.99137e-15 0.482167 20.075)
(-2.46889e-15 0.485121 19.4526)
(-3.30098e-15 0.464865 18.8508)
(-2.64538e-15 0.429256 18.2928)
(-2.30794e-15 0.384405 17.791)
(-1.99577e-15 0.334369 17.3509)
(-1.581e-15 0.28146 16.974)
(-1.0944e-15 0.226712 16.6598)
(-7.16252e-16 0.170372 16.4076)
(-2.7813e-17 0.112324 16.2171)
(3.69896e-16 0.0529625 16.0895)
(4.84729e-16 -0.00627024 16.0255)
(6.17924e-16 -0.062708 16.0241)
(7.7429e-16 -0.112493 16.0809)
(9.01223e-16 -0.150861 16.186)
(8.97015e-16 -0.17267 16.3229)
(7.72159e-16 -0.17353 16.4668)
(6.23922e-16 -0.153024 16.5857)
(1.34186e-15 -0.116897 16.6464)
(2.13465e-15 -0.0767505 16.6236)
(3.84792e-15 -0.0482698 16.5099)
(6.05905e-15 -0.043277 16.3228)
(8.22852e-15 -0.0633989 16.1011)
(9.82091e-15 -0.0963626 15.8939)
(1.04442e-14 -0.117082 15.744)
(1.07627e-14 -0.0957239 15.6709)
(9.72107e-15 -0.0109212 15.6575)
(8.3837e-15 0.136386 15.6447)
(7.4506e-15 0.31067 15.5505)
(6.47864e-15 0.464559 15.3254)
(5.7727e-15 0.570879 14.9762)
(5.21911e-15 0.624722 14.5358)
(4.82664e-15 0.639169 14.0624)
(4.20265e-15 0.617228 13.5451)
(3.76691e-15 0.606476 13.1507)
(2.51365e-15 0.508738 12.4884)
(8.35327e-15 0.00802402 -1.14113)
(1.79945e-14 -0.105808 -0.887076)
(1.17965e-14 -0.216145 -0.227987)
(1.02402e-14 -0.317524 0.672726)
(6.09548e-15 -0.388735 1.66662)
(5.58909e-15 -0.455366 2.77015)
(1.30653e-15 -0.521176 3.97686)
(-1.11269e-15 -0.589998 5.27609)
(1.64707e-15 -0.659978 6.66529)
(3.18725e-16 -0.731157 8.14004)
(-1.7914e-15 -0.800223 9.68997)
(-2.34352e-15 -0.860848 11.2933)
(-2.10475e-15 -0.911945 12.9246)
(-2.41206e-16 -0.949964 14.5558)
(-6.34033e-16 -0.976603 16.1691)
(-4.72834e-17 -0.984907 17.7514)
(-5.25971e-16 -0.97052 19.2753)
(-7.20697e-16 -0.933264 20.7167)
(-1.20068e-15 -0.874429 22.0632)
(-3.01263e-16 -0.780946 23.2787)
(-5.06636e-16 -0.601831 24.3034)
(-2.43458e-15 -0.284457 25.1002)
(-4.15424e-15 0.199611 25.4978)
(-3.11132e-15 0.732857 25.0523)
(-2.17151e-15 1.06543 23.7634)
(-1.16282e-15 1.18924 22.0687)
(-3.16561e-16 1.19454 20.2928)
(5.34627e-16 1.14875 18.5765)
(7.07155e-16 1.08488 16.9702)
(3.19599e-17 1.01548 15.4884)
(7.64404e-16 0.943809 14.1342)
(-1.45273e-15 0.869373 12.9087)
(-1.8252e-15 0.790333 11.8141)
(-1.46137e-16 0.704246 10.8553)
(-4.03448e-15 0.608368 10.0396)
(4.0663e-15 0.500598 9.37712)
(-3.40762e-15 0.381548 8.87884)
(-3.43649e-15 0.255296 8.5403)
(8.00488e-15 0.0943649 8.36805)
(-2.00788e-15 -0.12793 8.42713)
(-5.20432e-16 -0.361817 8.80795)
(3.63418e-15 -0.550458 9.45874)
(1.88414e-16 -0.674504 10.2837)
(-8.23858e-15 -0.742642 11.1952)
(-1.12894e-14 -0.775323 12.1286)
(-1.35378e-14 -0.793627 13.0531)
(-1.1317e-14 -0.811071 13.9675)
(-1.05202e-14 -0.832048 14.8847)
(-9.47404e-15 -0.852989 15.8146)
(-8.60671e-15 -0.862574 16.7536)
(-7.57418e-15 -0.846497 17.6783)
(-6.01979e-15 -0.796697 18.5495)
(-4.76245e-15 -0.717537 19.3281)
(-4.9194e-15 -0.621652 19.9908)
(-4.2906e-15 -0.51853 20.5335)
(-3.95114e-15 -0.410409 20.9605)
(-2.00835e-15 -0.296875 21.2746)
(-2.56366e-15 -0.177449 21.4765)
(-1.637e-15 -0.0500382 21.5649)
(-2.44496e-15 0.0870375 21.537)
(-2.07313e-15 0.23268 21.3879)
(-3.78123e-15 0.382215 21.1024)
(-4.49385e-15 0.516632 20.6818)
(-5.02131e-15 0.612904 20.1508)
(-5.12775e-15 0.661032 19.5564)
(-6.08593e-15 0.665738 18.9461)
(-5.96083e-15 0.638278 18.355)
(-5.50705e-15 0.589889 17.8043)
(-5.23631e-15 0.529222 17.3047)
(-4.86121e-15 0.461942 16.8605)
(-4.84518e-15 0.391179 16.4724)
(-4.09329e-15 0.318182 16.1402)
(-3.54356e-15 0.242968 15.8635)
(-2.59493e-15 0.164986 15.6438)
(-2.29824e-15 0.084341 15.4846)
(-9.4811e-16 0.00280423 15.39)
(7.22884e-16 -0.0759562 15.3628)
(2.10474e-15 -0.146349 15.402)
(3.38473e-15 -0.201155 15.5007)
(4.12774e-15 -0.232032 15.6437)
(4.59202e-15 -0.230786 15.8051)
(5.31052e-15 -0.194392 15.9472)
(6.58588e-15 -0.128949 16.026)
(8.86842e-15 -0.0506399 16.0026)
(1.08019e-14 0.0154787 15.8578)
(1.29911e-14 0.0477079 15.603)
(1.4137e-14 0.0369929 15.2785)
(1.52837e-14 -0.00649214 14.942)
(1.54146e-14 -0.0531135 14.6513)
(1.56419e-14 -0.0624973 14.4464)
(1.42968e-14 0.00106207 14.3334)
(1.24259e-14 0.15079 14.2729)
(1.0339e-14 0.355428 14.1905)
(8.38155e-15 0.553602 14.0226)
(6.94763e-15 0.700902 13.7553)
(5.75339e-15 0.782638 13.4064)
(4.96287e-15 0.811584 13.0236)
(4.07413e-15 0.790676 12.596)
(3.57431e-15 0.77964 12.2719)
(2.23054e-15 0.659609 11.7155)
(7.56301e-15 0.00422874 -1.05068)
(1.37489e-14 -0.144888 -0.870164)
(8.99261e-15 -0.287195 -0.273611)
(6.14821e-15 -0.407369 0.538088)
(4.30713e-15 -0.493387 1.47206)
(-5.86734e-15 -0.576272 2.53156)
(2.2794e-15 -0.657451 3.70255)
(2.29778e-15 -0.741301 4.96791)
(2.05647e-15 -0.825983 6.3174)
(-1.1803e-15 -0.911318 7.74053)
(-2.86074e-15 -0.993206 9.22426)
(-1.95218e-16 -1.06391 10.7456)
(-4.26387e-16 -1.12245 12.2789)
(6.01652e-16 -1.16518 13.797)
(-1.0387e-15 -1.19514 15.2852)
(-1.34777e-15 -1.20387 16.7333)
(-7.75178e-16 -1.18688 18.117)
(-1.40491e-15 -1.14391 19.4194)
(-1.34038e-15 -1.07444 20.6297)
(-1.51436e-15 -0.964329 21.7023)
(-1.38407e-15 -0.76065 22.5754)
(-2.26949e-15 -0.401612 23.2517)
(-3.70839e-15 0.170449 23.6435)
(-3.38773e-15 0.84626 23.3099)
(-3.13952e-15 1.28513 22.1638)
(-2.31384e-15 1.45678 20.6125)
(-1.65318e-15 1.47256 18.9736)
(-8.39272e-16 1.42001 17.385)
(-1.16864e-15 1.34257 15.8964)
(-8.16428e-16 1.25691 14.5236)
(-4.95982e-16 1.16751 13.271)
(-8.74784e-16 1.07397 12.1408)
(-1.35003e-15 0.974151 11.1363)
(4.65572e-15 0.86511 10.2623)
(-2.81683e-15 0.743512 9.52617)
(-1.10874e-15 0.607193 8.9362)
(1.02178e-16 0.45772 8.50087)
(2.05098e-15 0.300394 8.21452)
(3.39968e-15 0.0983989 8.0788)
(4.18742e-15 -0.184659 8.15706)
(1.9128e-15 -0.48347 8.54374)
(-4.72978e-15 -0.723145 9.18572)
(-1.4427e-14 -0.877874 9.98877)
(-1.63306e-14 -0.958672 10.8693)
(-1.64988e-14 -0.994089 11.772)
(-1.45312e-14 -1.01398 12.6767)
(-1.206e-14 -1.03633 13.5877)
(-9.62188e-15 -1.06545 14.5136)
(-7.28496e-15 -1.09473 15.456)
(-6.05171e-15 -1.10787 16.4027)
(-3.97026e-15 -1.08567 17.3246)
(-2.67255e-15 -1.0182 18.1808)
(-1.87018e-15 -0.912615 18.9334)
(-1.948e-15 -0.786898 19.5636)
(-1.70323e-15 -0.653835 20.0728)
(-2.78523e-15 -0.515989 20.4691)
(-3.02772e-15 -0.372555 20.7568)
(-3.31125e-15 -0.222789 20.937)
(-1.58993e-15 -0.0638851 21.0084)
(-1.53279e-15 0.107116 20.9689)
(5.2976e-16 0.290271 20.8115)
(3.38703e-16 0.480817 20.5142)
(1.31402e-15 0.653373 20.0768)
(1.58471e-15 0.776737 19.5269)
(8.41629e-16 0.837717 18.9161)
(2.3809e-15 0.84314 18.2943)
(1.23994e-15 0.808162 17.6956)
(1.76653e-15 0.747482 17.1386)
(1.81752e-15 0.672137 16.6312)
(2.72461e-15 0.589159 16.1758)
(3.19363e-15 0.50226 15.7721)
(4.09406e-15 0.41275 15.4195)
(5.10382e-15 0.320275 15.1179)
(6.72264e-15 0.223626 14.8689)
(8.19203e-15 0.12207 14.6775)
(9.95681e-15 0.0173105 14.5509)
(1.13194e-14 -0.0861435 14.4961)
(1.29148e-14 -0.180878 14.5169)
(1.43047e-14 -0.256941 14.6099)
(1.51678e-14 -0.302135 14.7633)
(1.60801e-14 -0.302994 14.9526)
(1.71729e-14 -0.251917 15.1374)
(1.74634e-14 -0.153546 15.2652)
(1.78751e-14 -0.0281994 15.2826)
(1.80331e-14 0.0877236 15.1556)
(1.7489e-14 0.160224 14.8861)
(1.65077e-14 0.170004 14.5121)
(1.56812e-14 0.122328 14.0955)
(1.53126e-14 0.0491689 13.7045)
(1.45507e-14 0.000678351 13.3942)
(1.43134e-14 0.0289641 13.189)
(1.30995e-14 0.164706 13.0669)
(1.15001e-14 0.384273 12.966)
(9.31988e-15 0.615552 12.8194)
(7.47046e-15 0.797398 12.601)
(5.977e-15 0.904319 12.3167)
(4.86604e-15 0.947277 12.0042)
(3.99883e-15 0.928842 11.6527)
(3.32665e-15 0.917815 11.3889)
(1.9647e-15 0.781515 10.9311)
(6.84971e-15 0.00233883 -1.08555)
(8.06997e-15 -0.180055 -0.98205)
(1.18341e-14 -0.353532 -0.449983)
(9.98789e-15 -0.493512 0.28546)
(7.71498e-16 -0.596954 1.19001)
(-2.9584e-15 -0.696949 2.23283)
(2.41535e-15 -0.793355 3.38722)
(3.51938e-15 -0.891405 4.62954)
(-2.42277e-16 -0.989457 5.94654)
(-3.84752e-15 -1.08738 7.32704)
(-1.29064e-15 -1.18038 8.75883)
(1.70939e-15 -1.25926 10.2186)
(5.64286e-16 -1.32314 11.6797)
(-2.94547e-16 -1.36846 13.1143)
(-1.03952e-15 -1.39976 14.5088)
(-1.36771e-15 -1.40709 15.8542)
(-2.00323e-15 -1.38633 17.1274)
(-2.56075e-15 -1.33704 18.3158)
(-1.61845e-15 -1.25581 19.4079)
(-2.69702e-15 -1.12718 20.3518)
(-5.11436e-15 -0.899769 21.085)
(-4.42305e-15 -0.507521 21.6352)
(-5.19641e-15 0.134991 21.9755)
(-6.05887e-15 0.940641 21.686)
(-4.37178e-15 1.48001 20.6317)
(-2.55143e-15 1.69764 19.1967)
(-2.08008e-15 1.72402 17.6836)
(-1.7933e-15 1.66582 16.2189)
(-1.11181e-15 1.57627 14.8475)
(-2.10581e-15 1.47577 13.5839)
(-8.40448e-16 1.36992 12.4331)
(-4.58783e-15 1.25843 11.3981)
(-3.07118e-15 1.13894 10.4822)
(-2.06645e-15 1.00809 9.69042)
(3.51034e-15 0.862183 9.02922)
(5.8888e-15 0.699139 8.50463)
(3.73543e-15 0.521337 8.12405)
(4.15598e-15 0.335888 7.88056)
(3.09166e-15 0.0966815 7.76903)
(3.15513e-15 -0.243884 7.84917)
(-9.84441e-15 -0.603324 8.20875)
(-1.53108e-14 -0.889809 8.81263)
(-1.57184e-14 -1.07445 9.59902)
(-1.74303e-14 -1.17147 10.4924)
(-1.29218e-14 -1.21566 11.4279)
(-9.50987e-15 -1.24242 12.3711)
(-6.8386e-15 -1.27153 13.3116)
(-4.83907e-15 -1.30676 14.2471)
(-3.06876e-15 -1.33999 15.1751)
(-1.55507e-15 -1.35182 16.087)
(-6.74501e-16 -1.31948 16.9617)
(-7.41285e-16 -1.23168 17.7654)
(-1.33404e-15 -1.09863 18.4655)
(-2.18255e-15 -0.943768 19.0486)
(-2.95705e-15 -0.782581 19.5209)
(-3.64905e-15 -0.617056 19.8929)
(-4.13314e-15 -0.445519 20.1677)
(-5.27443e-15 -0.266871 20.3443)
(-4.98288e-15 -0.0777155 20.4193)
(-4.61212e-15 0.126774 20.3889)
(-4.43491e-15 0.348741 20.2408)
(-5.4139e-15 0.583169 19.9406)
(-4.25809e-15 0.796316 19.4838)
(-2.72838e-15 0.947118 18.9024)
(3.03733e-16 1.01941 18.2583)
(2.94593e-15 1.02343 17.6081)
(4.26566e-15 0.979285 16.9871)
(6.15518e-15 0.90553 16.4121)
(6.6634e-15 0.815576 15.8884)
(7.93735e-15 0.71761 15.4162)
(7.97487e-15 0.615673 14.9935)
(8.99627e-15 0.510891 14.6189)
(9.69938e-15 0.402408 14.2922)
(1.02106e-14 0.28824 14.0148)
(1.07612e-14 0.166292 13.7918)
(1.10117e-14 0.0375935 13.6326)
(1.04478e-14 -0.0928834 13.5482)
(9.72984e-15 -0.215918 13.5471)
(9.08182e-15 -0.318671 13.6311)
(8.89714e-15 -0.384917 13.7923)
(9.2747e-15 -0.395078 14.0095)
(9.61847e-15 -0.335222 14.2426)
(9.59722e-15 -0.205743 14.4333)
(8.5505e-15 -0.0289801 14.5143)
(8.79248e-15 0.146361 14.4352)
(9.70397e-15 0.272462 14.1861)
(1.02409e-14 0.316868 13.7992)
(1.12557e-14 0.278223 13.3402)
(1.19271e-14 0.188356 12.8827)
(1.24227e-14 0.104651 12.4909)
(1.18792e-14 0.0936933 12.2019)
(1.16704e-14 0.202988 12.009)
(1.09891e-14 0.419949 11.8669)
(9.42095e-15 0.668655 11.7153)
(7.3539e-15 0.874128 11.5212)
(5.80479e-15 0.999804 11.2815)
(4.76182e-15 1.05339 11.0234)
(3.81959e-15 1.03657 10.7362)
(3.14653e-15 1.02475 10.5239)
(1.9651e-15 0.875786 10.1569)
(8.7421e-15 0.000891574 -1.20827)
(3.12328e-15 -0.211049 -1.15681)
(1.51139e-14 -0.415398 -0.656381)
(9.0997e-15 -0.577039 0.0243665)
(-2.59573e-15 -0.700192 0.913274)
(-6.31412e-15 -0.81722 1.94179)
(8.53282e-16 -0.928075 3.07341)
(1.19787e-15 -1.03944 4.28356)
(-1.93217e-15 -1.15004 5.56146)
(-8.6835e-16 -1.25981 6.89821)
(3.09176e-15 -1.36312 8.28315)
(1.27537e-15 -1.44912 9.69208)
(3.32442e-16 -1.51698 11.0966)
(-4.08038e-16 -1.56338 12.4674)
(-7.35944e-16 -1.59449 13.7914)
(-1.90579e-15 -1.59877 15.0595)
(-1.55192e-15 -1.57285 16.2476)
(-1.558e-15 -1.51593 17.3449)
(-1.54532e-15 -1.42099 18.3361)
(-7.83525e-16 -1.2717 19.1638)
(-1.55532e-15 -1.02068 19.7668)
(-1.45219e-15 -0.601283 20.1935)
(-7.94422e-16 0.0994345 20.4622)
(-2.19084e-15 1.02424 20.1745)
(-2.65556e-15 1.65631 19.176)
(-3.24217e-15 1.91539 17.837)
(-3.25589e-15 1.95071 16.4404)
(-3.02065e-15 1.88715 15.0958)
(-1.72677e-15 1.78661 13.8397)
(-3.7802e-15 1.67264 12.684)
(-1.91348e-15 1.55168 11.6332)
(-2.13682e-15 1.42353 10.6907)
(-2.64598e-15 1.28567 9.85975)
(-2.74563e-15 1.13445 9.14501)
(-1.67466e-15 0.966014 8.55154)
(-3.323e-16 0.778293 8.08341)
(1.41895e-15 0.574533 7.74771)
(2.19432e-15 0.364148 7.53589)
(2.19384e-15 0.0923947 7.43902)
(1.03063e-15 -0.29916 7.49222)
(-1.09782e-14 -0.715178 7.79566)
(-1.23235e-14 -1.05485 8.39551)
(-1.5493e-14 -1.28028 9.24455)
(-1.16313e-14 -1.39948 10.2177)
(-8.4817e-15 -1.45136 11.2105)
(-6.14726e-15 -1.4789 12.173)
(-4.78898e-15 -1.50646 13.0924)
(-2.84012e-15 -1.54004 13.9716)
(-1.40227e-15 -1.57202 14.8197)
(2.65394e-16 -1.58055 15.6425)
(2.30825e-16 -1.53864 16.4309)
(-9.47267e-16 -1.43248 17.1572)
(-1.75111e-15 -1.27489 17.791)
(-2.03213e-15 -1.09494 18.3208)
(-2.2423e-15 -0.910261 18.757)
(-2.64906e-15 -0.721378 19.112)
(-2.42375e-15 -0.525286 19.3877)
(-4.30197e-15 -0.320423 19.5805)
(-4.29899e-15 -0.102888 19.685)
(-4.02615e-15 0.134921 19.6949)
(-5.63185e-15 0.398681 19.5918)
(-7.36908e-15 0.683362 19.3241)
(-8.21899e-15 0.943844 18.8735)
(-9.8745e-15 1.12584 18.2736)
(-8.56543e-15 1.20976 17.5992)
(-8.05945e-15 1.21087 16.9183)
(-5.94795e-15 1.15576 16.2709)
(-3.0105e-15 1.06766 15.6736)
(-2.42798e-15 0.962552 15.1301)
(-1.6866e-15 0.849691 14.6385)
(-1.98473e-15 0.733268 14.1957)
(-2.00331e-15 0.614022 13.7989)
(-2.88542e-15 0.490465 13.4478)
(-3.80834e-15 0.359778 13.144)
(-5.08173e-15 0.218418 12.8917)
(-6.40163e-15 0.0658344 12.7012)
(-7.05685e-15 -0.0931713 12.5864)
(-6.88544e-15 -0.247905 12.5608)
(-6.60688e-15 -0.382605 12.6316)
(-6.1724e-15 -0.476765 12.7965)
(-5.3233e-15 -0.50386 13.0383)
(-4.60631e-15 -0.44217 13.3186)
(-4.09244e-15 -0.284953 13.5751)
(-3.38692e-15 -0.0541763 13.727)
(-1.43647e-15 0.187876 13.7078)
(1.92561e-15 0.377982 13.494)
(6.0888e-15 0.467248 13.1115)
(1.02832e-14 0.446114 12.6343)
(1.25296e-14 0.34688 12.1415)
(1.40009e-14 0.232406 11.6954)
(1.37181e-14 0.182389 11.3365)
(1.22742e-14 0.260615 11.0721)
(1.09129e-14 0.464896 10.8759)
(9.24667e-15 0.719115 10.7008)
(7.72518e-15 0.938075 10.5129)
(5.99935e-15 1.07545 10.3022)
(4.91878e-15 1.13526 10.0861)
(3.83671e-15 1.11807 9.85392)
(3.20445e-15 1.10411 9.68584)
(2.094e-15 0.944499 9.40268)
(1.60715e-14 0.00214064 -1.3809)
(3.47296e-15 -0.239886 -1.33709)
(1.05857e-14 -0.47477 -0.836265)
(5.18082e-15 -0.657891 -0.201289)
(-3.95097e-15 -0.801974 0.664209)
(-4.46843e-16 -0.93551 1.66764)
(2.65684e-15 -1.06001 2.76425)
(6.5895e-16 -1.18418 3.93229)
(2.50056e-15 -1.30712 5.16517)
(3.18794e-15 -1.42868 6.45602)
(2.24014e-15 -1.54216 7.79505)
(6.83574e-16 -1.63486 9.1569)
(1.58422e-17 -1.70599 10.5116)
(-5.13888e-17 -1.75258 11.8291)
(-1.01912e-16 -1.7825 13.0973)
(1.9733e-16 -1.78243 14.3066)
(-1.11765e-15 -1.74995 15.4305)
(-4.72503e-16 -1.68362 16.4575)
(1.27323e-15 -1.57224 17.3674)
(2.2035e-15 -1.39924 18.0958)
(1.9667e-15 -1.12368 18.5826)
(1.58828e-15 -0.681142 18.8933)
(-6.19444e-17 0.0690002 19.0793)
(-3.73811e-15 1.10297 18.7624)
(-4.86897e-15 1.81837 17.7951)
(-4.11115e-15 2.11258 16.539)
(-3.55682e-15 2.15415 15.2529)
(-2.22987e-15 2.08503 14.0252)
(-3.35813e-15 1.9745 12.882)
(-2.64626e-15 1.84842 11.8315)
(-1.61665e-15 1.71378 10.8775)
(-7.43204e-16 1.57041 10.023)
(-7.11034e-16 1.4157 9.27128)
(-8.047e-16 1.24584 8.62625)
(-1.32477e-15 1.05694 8.09141)
(2.17418e-15 0.846785 7.66965)
(-5.80424e-16 0.619546 7.367)
(1.19349e-15 0.387268 7.17738)
(1.30882e-15 0.0902766 7.08317)
(-3.33343e-15 -0.345468 7.07435)
(-1.33628e-14 -0.826313 7.34806)
(-1.34031e-14 -1.23721 8.03806)
(-1.26108e-14 -1.50923 9.00694)
(-9.40699e-15 -1.64259 10.0477)
(-7.34856e-15 -1.68974 11.0443)
(-5.72526e-15 -1.70701 11.9596)
(-4.31968e-15 -1.72493 12.7953)
(-2.8733e-15 -1.75225 13.5677)
(-8.21102e-16 -1.78199 14.2998)
(1.77315e-16 -1.78916 15.0115)
(-1.17239e-17 -1.74114 15.7029)
(2.78629e-17 -1.62018 16.3484)
(-2.07876e-16 -1.44164 16.9146)
(-1.93735e-16 -1.24113 17.3898)
(-5.7712e-17 -1.03838 17.7879)
(-4.65706e-16 -0.831675 18.1239)
(9.92776e-16 -0.61635 18.3997)
(3.96753e-16 -0.390205 18.611)
(-5.20464e-17 -0.148804 18.7527)
(-1.61004e-15 0.11919 18.8182)
(-2.12476e-15 0.425266 18.7877)
(-3.30341e-15 0.766949 18.5922)
(-5.33049e-15 1.08484 18.1877)
(-7.66875e-15 1.30587 17.5993)
(-9.36102e-15 1.40494 16.914)
(-1.06072e-14 1.40369 16.2141)
(-9.87913e-15 1.33695 15.5466)
(-9.24249e-15 1.23374 14.9305)
(-9.20748e-15 1.11308 14.3692)
(-9.21599e-15 0.985359 13.8598)
(-9.76162e-15 0.854841 13.3981)
(-9.58338e-15 0.721733 12.9806)
(-9.86491e-15 0.583736 12.6066)
(-1.01915e-14 0.437075 12.2782)
(-9.52461e-15 0.277172 11.9992)
(-8.3738e-15 0.101136 11.7793)
(-6.4666e-15 -0.0872206 11.6346)
(-3.87456e-15 -0.276364 11.5828)
(-1.34125e-15 -0.447929 11.6376)
(7.13141e-16 -0.577002 11.8031)
(1.73865e-15 -0.62925 12.0674)
(2.35579e-15 -0.573915 12.3942)
(2.55918e-15 -0.393823 12.7179)
(4.50505e-15 -0.107766 12.943)
(6.40358e-15 0.207113 12.9872)
(1.00564e-14 0.471569 12.8119)
(1.41578e-14 0.615538 12.4382)
(1.80683e-14 0.618368 11.9513)
(2.12053e-14 0.517167 11.4412)
(2.16702e-14 0.381821 10.9641)
(2.0365e-14 0.299309 10.5523)
(1.72315e-14 0.34489 10.2228)
(1.37302e-14 0.527414 9.9693)
(1.03214e-14 0.774769 9.76091)
(7.85797e-15 0.995895 9.56754)
(6.09368e-15 1.13668 9.37533)
(4.78521e-15 1.19721 9.19195)
(3.90354e-15 1.17673 9.00741)
(3.21099e-15 1.15872 8.87787)
(2.26907e-15 0.989299 8.67299)
(1.11394e-14 0.00495933 -1.56674)
(3.08438e-15 -0.269106 -1.49557)
(2.81944e-15 -0.532155 -0.988663)
(1.3267e-15 -0.735352 -0.402126)
(-5.13889e-15 -0.901237 0.426045)
(1.21822e-15 -1.05093 1.39302)
(4.84629e-15 -1.18852 2.44715)
(2.75478e-15 -1.32527 3.56958)
(2.96183e-15 -1.46051 4.7562)
(4.04083e-15 -1.59393 6.00031)
(9.1046e-16 -1.71762 7.29242)
(-1.66414e-16 -1.81691 8.60643)
(-3.07491e-16 -1.89108 9.91204)
(-1.54867e-16 -1.93764 11.1798)
(1.86685e-16 -1.96615 12.4001)
(1.12108e-16 -1.96102 13.563)
(-4.51638e-16 -1.92097 14.6386)
(3.85793e-17 -1.84365 15.6139)
(2.71666e-15 -1.71299 16.4632)
(4.10542e-15 -1.51299 17.1126)
(3.07723e-15 -1.2111 17.5015)
(2.99725e-15 -0.747163 17.7084)
(1.33609e-15 0.0475704 17.8085)
(-2.21687e-15 1.18133 17.438)
(-1.71668e-15 1.96914 16.4847)
(-2.36769e-15 2.29089 15.3043)
(-2.49286e-15 2.33543 14.1251)
(-3.7777e-15 2.26041 13.0116)
(-2.47463e-15 2.14091 11.9783)
(-1.92602e-15 2.00417 11.0292)
(-4.11886e-15 1.85744 10.167)
(-1.8624e-15 1.70051 9.39442)
(-4.99371e-15 1.53069 8.71444)
(-3.79409e-15 1.34415 8.13001)
(-5.58086e-15 1.13703 7.64355)
(-2.97787e-15 0.906903 7.25696)
(7.02359e-16 0.658342 6.97504)
(2.18144e-15 0.407638 6.80091)
(-3.813e-15 0.0948599 6.69024)
(-1.06452e-14 -0.386514 6.60568)
(-1.20822e-14 -0.954381 6.93522)
(-8.25628e-15 -1.44888 7.78367)
(-9.48103e-15 -1.7559 8.84568)
(-7.35929e-15 -1.88612 9.88831)
(-6.18027e-15 -1.91626 10.8296)
(-4.29279e-15 -1.91586 11.6547)
(-2.19301e-15 -1.91981 12.3765)
(-3.41903e-16 -1.93922 13.021)
(7.02231e-16 -1.968 13.6232)
(9.40557e-16 -1.97751 14.2164)
(5.15136e-16 -1.92798 14.8103)
(1.28168e-16 -1.79597 15.3797)
(-3.15426e-16 -1.59946 15.8851)
(-2.16689e-16 -1.38203 16.3109)
(2.29174e-16 -1.16566 16.6733)
(5.09717e-16 -0.945888 16.9889)
(2.95117e-15 -0.716503 17.2588)
(3.84448e-15 -0.474748 17.4793)
(5.30871e-15 -0.215841 17.6481)
(6.45823e-15 0.0756432 17.7617)
(8.45412e-15 0.419477 17.8069)
(7.1375e-15 0.821113 17.7077)
(4.18203e-15 1.20664 17.3843)
(6.91343e-16 1.47704 16.8409)
(-8.15277e-16 1.59764 16.1713)
(-3.87396e-15 1.59693 15.4715)
(-4.93067e-15 1.51963 14.7976)
(-5.84787e-15 1.40171 14.1721)
(-6.76686e-15 1.26584 13.5996)
(-7.05366e-15 1.12376 13.077)
(-6.89573e-15 0.979828 12.5998)
(-6.44787e-15 0.833672 12.1645)
(-5.44069e-15 0.682062 11.7698)
(-3.86893e-15 0.520212 11.4183)
(-2.62789e-15 0.342657 11.1145)
(-1.29627e-17 0.143897 10.867)
(5.22477e-15 -0.0741044 10.6931)
(9.6526e-15 -0.299827 10.6145)
(1.32639e-14 -0.51299 10.6514)
(1.57207e-14 -0.684189 10.8162)
(1.66235e-14 -0.770088 11.1035)
(1.70359e-14 -0.729607 11.4796)
(1.8001e-14 -0.531199 11.8754)
(1.86253e-14 -0.187809 12.1762)
(2.11707e-14 0.206234 12.284)
(2.38665e-14 0.555658 12.1454)
(2.59002e-14 0.763018 11.7775)
(2.78972e-14 0.793336 11.2795)
(2.93906e-14 0.691818 10.7535)
(2.94792e-14 0.540545 10.2538)
(2.70164e-14 0.4328 9.80505)
(2.25914e-14 0.448991 9.42556)
(1.72688e-14 0.606088 9.1218)
(1.24017e-14 0.837646 8.87924)
(9.43905e-15 1.05091 8.67539)
(6.86853e-15 1.18693 8.49533)
(5.37947e-15 1.24236 8.33841)
(4.21521e-15 1.21518 8.19606)
(3.49422e-15 1.19079 8.10067)
(2.59137e-15 1.01164 7.96963)
(3.43236e-15 0.00740933 -1.74502)
(2.4173e-15 -0.299869 -1.63818)
(-1.95331e-16 -0.586869 -1.142)
(-2.06484e-15 -0.8087 -0.607075)
(-3.49836e-15 -0.997512 0.176465)
(2.33853e-15 -1.16341 1.09833)
(4.22875e-16 -1.31393 2.10849)
(2.46975e-15 -1.46312 3.18754)
(2.94242e-15 -1.61053 4.33031)
(2.06411e-15 -1.75567 5.52812)
(1.03944e-15 -1.88948 6.77174)
(5.67654e-17 -1.9953 8.0352)
(-8.1151e-16 -2.07255 9.28928)
(5.76116e-16 -2.1194 10.5067)
(-7.42809e-17 -2.14695 11.6821)
(1.82207e-16 -2.13677 12.8057)
(-7.25696e-17 -2.08881 13.8444)
(8.23708e-17 -1.99942 14.7843)
(1.75656e-15 -1.84683 15.5935)