/*--------------------------------*- C++ -*----------------------------------*\
| =========                 |                                                 |
| \\      /  F ield         | OpenFOAM: The Open Source CFD Toolbox           |
|  \\    /   O peration     | Version:  4.1                                   |
|   \\  /    A nd           | Web:      www.OpenFOAM.org                      |
|    \\/     M anipulation  |                                                 |
\*---------------------------------------------------------------------------*/
FoamFile
{
    version     2.0;
    format      ascii;
    class       volScalarField;
    location    "100";
    object      p;
}
// * * * * * * * * * * * * * * * * * * * * * * * * * * * * * * * * * * * * * //

dimensions      [0 2 -2 0 0 0 0];

internalField   nonuniform List<scalar> 
6820
(
-9.38656
-9.61323
-9.68971
-9.70106
-9.71953
-9.74051
-9.75575
-9.76706
-9.77644
-9.784
-9.78963
-9.79343
-9.79549
-9.79582
-9.79435
-9.791
-9.78564
-9.77809
-9.76811
-9.75542
-9.73962
-9.7202
-9.69648
-9.66754
-9.63208
-9.58819
-9.53281
-9.46145
-9.36378
-9.22954
-8.99401
-8.70435
-7.59399
-9.45857
-9.59942
-9.66258
-9.68224
-9.70514
-9.72799
-9.74462
-9.75691
-9.76693
-9.77494
-9.78093
-9.78503
-9.78734
-9.78788
-9.78658
-9.78336
-9.77811
-9.77064
-9.76074
-9.7481
-9.73236
-9.71301
-9.68942
-9.66072
-9.62572
-9.58279
-9.52941
-9.46246
-9.37539
-9.26563
-9.11027
-8.95688
-8.82786
-9.51604
-9.6039
-9.66357
-9.68788
-9.70938
-9.73052
-9.74668
-9.75883
-9.76871
-9.77665
-9.78262
-9.78674
-9.7891
-9.7897
-9.7885
-9.78542
-9.78034
-9.77309
-9.76347
-9.75119
-9.73591
-9.71718
-9.69443
-9.6669
-9.6336
-9.59323
-9.54401
-9.484
-9.40998
-9.32338
-9.2202
-9.1467
-9.11288
-9.55488
-9.61309
-9.66686
-9.69256
-9.71256
-9.7323
-9.74813
-9.76018
-9.76994
-9.7778
-9.78375
-9.78789
-9.79031
-9.791
-9.78993
-9.78702
-9.78216
-9.7752
-9.76595
-9.75415
-9.7395
-9.72161
-9.7
-9.67406
-9.64306
-9.60611
-9.56218
-9.51053
-9.45048
-9.38555
-9.31927
-9.2818
-9.28241
-9.58614
-9.6258
-9.67125
-9.69682
-9.71584
-9.73436
-9.74974
-9.76165
-9.77127
-9.77906
-9.78502
-9.78922
-9.79174
-9.79258
-9.7917
-9.78905
-9.78451
-9.77796
-9.76922
-9.75808
-9.74428
-9.72752
-9.70742
-9.68356
-9.65546
-9.62266
-9.58482
-9.54217
-9.4957
-9.44977
-9.4105
-9.39788
-9.42444
-9.61242
-9.63976
-9.67709
-9.70169
-9.71986
-9.7371
-9.75187
-9.76356
-9.77304
-9.78075
-9.78672
-9.79099
-9.79364
-9.79467
-9.79404
-9.79171
-9.78758
-9.78154
-9.77345
-9.76314
-9.75041
-9.73502
-9.71674
-9.69532
-9.67053
-9.64231
-9.61086
-9.57707
-9.54284
-9.51257
-9.49263
-9.49622
-9.53352
-9.63478
-9.65392
-9.68422
-9.70718
-9.72442
-9.74043
-9.75449
-9.76591
-9.77522
-9.78284
-9.78882
-9.79319
-9.796
-9.79725
-9.79693
-9.79499
-9.79135
-9.78593
-9.77862
-9.76928
-9.75779
-9.74399
-9.72777
-9.70904
-9.68782
-9.66433
-9.63916
-9.6136
-9.58986
-9.57196
-9.5654
-9.5787
-9.61886
-9.65413
-9.66783
-9.69229
-9.71318
-9.72941
-9.74427
-9.75759
-9.76867
-9.7778
-9.78534
-9.79133
-9.79581
-9.79881
-9.80033
-9.80037
-9.79889
-9.79582
-9.79111
-9.78468
-9.77646
-9.76635
-9.75431
-9.74032
-9.72443
-9.70686
-9.68804
-9.66879
-9.65053
-9.63549
-9.62703
-9.62951
-9.64833
-9.68797
-9.67119
-9.68125
-9.70097
-9.71964
-9.7348
-9.7486
-9.76115
-9.77185
-9.78079
-9.78824
-9.79426
-9.79887
-9.80208
-9.80392
-9.80437
-9.8034
-9.80098
-9.79707
-9.79163
-9.78462
-9.77602
-9.76585
-9.75418
-9.74119
-9.72722
-9.71284
-9.69896
-9.687
-9.67896
-9.67755
-9.68598
-9.70763
-9.74517
-9.68647
-9.69404
-9.71
-9.72649
-9.74053
-9.75334
-9.76515
-9.77545
-9.78419
-9.79156
-9.79762
-9.80237
-9.80583
-9.80802
-9.80892
-9.80853
-9.80682
-9.80378
-9.79941
-9.7937
-9.78669
-9.77845
-9.76915
-9.75903
-9.74851
-9.73823
-9.72911
-9.72244
-9.71993
-9.72364
-9.73587
-9.75865
-9.79342
-9.70034
-9.7062
-9.7192
-9.73364
-9.74657
-9.75847
-9.76956
-9.77944
-9.78798
-9.79528
-9.8014
-9.80632
-9.81006
-9.81263
-9.81403
-9.81427
-9.81333
-9.81123
-9.80798
-9.80363
-9.79826
-9.79198
-9.78501
-9.77766
-9.77038
-9.76381
-9.75881
-9.75651
-9.75828
-9.76566
-9.7802
-9.80307
-9.83495
-9.71309
-9.71772
-9.72841
-9.74103
-9.75286
-9.76392
-9.77435
-9.78383
-9.79217
-9.79942
-9.8056
-9.81072
-9.81476
-9.81775
-9.8197
-9.8206
-9.82048
-9.81936
-9.81729
-9.81434
-9.81062
-9.80629
-9.80159
-9.79686
-9.79256
-9.78928
-9.7878
-9.78905
-9.79411
-9.80406
-9.81992
-9.8423
-9.87142
-9.7249
-9.72866
-9.73754
-9.74857
-9.75937
-9.76966
-9.77948
-9.78857
-9.79673
-9.80395
-9.81022
-9.81555
-9.81993
-9.82338
-9.82589
-9.82751
-9.82824
-9.82815
-9.82728
-9.82574
-9.82366
-9.82123
-9.81871
-9.81642
-9.81481
-9.81442
-9.81591
-9.82003
-9.82758
-9.83932
-9.85587
-9.87747
-9.90412
-9.73595
-9.73905
-9.74653
-9.7562
-9.76605
-9.77563
-9.78492
-9.79366
-9.80166
-9.80885
-9.81524
-9.82081
-9.82556
-9.82948
-9.83261
-9.83496
-9.83658
-9.83753
-9.83788
-9.83775
-9.83728
-9.83668
-9.8362
-9.83616
-9.83697
-9.83909
-9.84307
-9.84949
-9.85894
-9.87191
-9.88876
-9.90952
-9.93404
-9.74632
-9.74894
-9.75533
-9.76386
-9.77286
-9.78181
-9.79062
-9.79905
-9.80691
-9.81412
-9.82065
-9.82649
-9.83162
-9.83605
-9.83981
-9.84292
-9.84545
-9.84745
-9.84902
-9.85027
-9.85137
-9.85251
-9.85394
-9.85595
-9.8589
-9.8632
-9.86926
-9.87754
-9.88843
-9.90226
-9.91919
-9.93915
-9.96191
-9.75612
-9.75838
-9.76391
-9.7715
-9.77976
-9.78816
-9.79655
-9.80472
-9.81248
-9.81973
-9.82642
-9.83255
-9.83809
-9.84305
-9.84746
-9.85136
-9.8548
-9.85785
-9.86062
-9.86323
-9.86582
-9.8686
-9.8718
-9.87567
-9.88052
-9.88669
-9.8945
-9.90428
-9.9163
-9.93074
-9.94767
-9.96694
-9.98832
-9.76541
-9.76738
-9.77225
-9.77907
-9.78669
-9.79462
-9.80266
-9.81062
-9.81832
-9.82564
-9.83253
-9.83897
-9.84494
-9.85045
-9.85554
-9.86022
-9.86458
-9.86868
-9.87262
-9.87652
-9.88055
-9.88486
-9.88968
-9.89523
-9.90176
-9.90955
-9.91883
-9.92984
-9.94276
-9.95769
-9.97459
-9.99333
-10.0137
-9.77422
-9.77598
-9.78033
-9.78654
-9.79363
-9.80116
-9.80893
-9.81673
-9.8244
-9.83182
-9.83894
-9.84571
-9.85214
-9.85822
-9.86398
-9.86946
-9.87473
-9.87985
-9.88493
-9.89008
-9.89545
-9.9012
-9.9075
-9.91456
-9.92258
-9.93177
-9.94231
-9.95436
-9.96803
-9.98335
-10.0003
-10.0186
-10.0382
-9.78259
-9.78418
-9.78814
-9.79386
-9.80053
-9.80774
-9.81529
-9.823
-9.83068
-9.83824
-9.84561
-9.85275
-9.85964
-9.8663
-9.87275
-9.87903
-9.88519
-9.89131
-9.89749
-9.90383
-9.91046
-9.91753
-9.9252
-9.93361
-9.94295
-9.95336
-9.96499
-9.97793
-9.99224
-10.0079
-10.0249
-10.0431
-10.0622
-9.79054
-9.792
-9.79566
-9.80101
-9.80735
-9.81432
-9.82172
-9.82938
-9.83713
-9.84486
-9.8525
-9.86003
-9.86741
-9.87466
-9.88179
-9.88885
-9.89589
-9.90298
-9.91021
-9.91768
-9.9255
-9.93379
-9.94269
-9.95233
-9.96284
-9.97434
-9.98692
-10.0006
-10.0155
-10.0316
-10.0487
-10.0668
-10.0857
-9.79806
-9.79944
-9.80287
-9.80795
-9.81405
-9.82085
-9.82817
-9.83583
-9.84369
-9.85162
-9.85958
-9.8675
-9.87539
-9.88323
-9.89105
-9.89888
-9.90678
-9.9148
-9.92303
-9.93156
-9.94048
-9.94991
-9.95994
-9.97069
-9.98225
-9.99471
-10.0081
-10.0226
-10.038
-10.0544
-10.0718
-10.0899
-10.1087
-9.80515
-9.80647
-9.80975
-9.81464
-9.82058
-9.82728
-9.83458
-9.8423
-9.85031
-9.85849
-9.86678
-9.87513
-9.88352
-9.89196
-9.90046
-9.90905
-9.91777
-9.9267
-9.93588
-9.94541
-9.95536
-9.96583
-9.97689
-9.98864
-10.0012
-10.0145
-10.0287
-10.0438
-10.0597
-10.0765
-10.0941
-10.1124
-10.1312
-9.8118
-9.81308
-9.81626
-9.82104
-9.8269
-9.83357
-9.8409
-9.84874
-9.85694
-9.8654
-9.87405
-9.88284
-9.89176
-9.9008
-9.90997
-9.91929
-9.92882
-9.9386
-9.94869
-9.95915
-9.97006
-9.98148
-9.9935
-10.0062
-10.0195
-10.0337
-10.0486
-10.0642
-10.0807
-10.0979
-10.1158
-10.1343
-10.1533
-9.81797
-9.81923
-9.82237
-9.8271
-9.83295
-9.83966
-9.84709
-9.85509
-9.86353
-9.8723
-9.88133
-9.89059
-9.90003
-9.90967
-9.9195
-9.92955
-9.93985
-9.95044
-9.96138
-9.97272
-9.98452
-9.99683
-10.0097
-10.0232
-10.0374
-10.0522
-10.0678
-10.084
-10.101
-10.1186
-10.1368
-10.1555
-10.1748
-9.82363
-9.82489
-9.82803
-9.83278
-9.83868
-9.84549
-9.85308
-9.8613
-9.87001
-9.87913
-9.88858
-9.8983
-9.90829
-9.91852
-9.92899
-9.93974
-9.95078
-9.96216
-9.9739
-9.98606
-9.99868
-10.0118
-10.0255
-10.0397
-10.0546
-10.0701
-10.0863
-10.1031
-10.1205
-10.1385
-10.157
-10.1761
-10.1956
-9.82871
-9.82999
-9.83318
-9.838
-9.84402
-9.851
-9.8588
-9.86729
-9.87633
-9.88583
-9.89571
-9.90593
-9.91645
-9.92727
-9.93838
-9.94981
-9.96156
-9.97367
-9.98617
-9.99909
-10.0125
-10.0264
-10.0408
-10.0557
-10.0713
-10.0874
-10.1041
-10.1214
-10.1392
-10.1576
-10.1765
-10.1958
-10.2156
-9.83315
-9.83446
-9.83774
-9.84271
-9.84892
-9.85613
-9.8642
-9.87301
-9.88242
-9.89233
-9.90267
-9.91339
-9.92446
-9.93586
-9.9476
-9.95968
-9.97211
-9.98492
-9.99812
-10.0118
-10.0259
-10.0404
-10.0555
-10.0711
-10.0873
-10.1039
-10.1212
-10.1389
-10.1571
-10.1759
-10.1951
-10.2148
-10.2348
-9.83686
-9.83823
-9.84165
-9.84683
-9.85329
-9.8608
-9.86921
-9.87839
-9.88821
-9.89857
-9.90939
-9.92062
-9.93224
-9.94423
-9.95657
-9.96928
-9.98236
-9.99582
-10.0097
-10.024
-10.0388
-10.054
-10.0697
-10.0859
-10.1025
-10.1197
-10.1374
-10.1556
-10.1742
-10.1933
-10.2128
-10.2327
-10.253
-9.83973
-9.84118
-9.84479
-9.85025
-9.85705
-9.86493
-9.87374
-9.88336
-9.89363
-9.90447
-9.9158
-9.92756
-9.93974
-9.95229
-9.96523
-9.97854
-9.99224
-10.0063
-10.0208
-10.0357
-10.0511
-10.0669
-10.0832
-10.0999
-10.1171
-10.1347
-10.1528
-10.1714
-10.1904
-10.2098
-10.2295
-10.2497
-10.2702
-9.84163
-9.84318
-9.84705
-9.85289
-9.86012
-9.86845
-9.87774
-9.88784
-9.89863
-9.90998
-9.92184
-9.93414
-9.94687
-9.95999
-9.9735
-9.9874
-10.0017
-10.0164
-10.0314
-10.0469
-10.0628
-10.0792
-10.096
-10.1132
-10.1308
-10.1489
-10.1674
-10.1863
-10.2055
-10.2252
-10.2452
-10.2656
-10.2862
-9.84238
-9.84408
-9.84829
-9.85462
-9.86239
-9.87127
-9.88111
-9.89178
-9.90312
-9.91503
-9.92744
-9.9403
-9.95359
-9.96727
-9.98133
-9.99578
-10.0106
-10.0258
-10.0415
-10.0575
-10.0739
-10.0907
-10.108
-10.1256
-10.1437
-10.1621
-10.1809
-10.2001
-10.2197
-10.2395
-10.2597
-10.2803
-10.301
-9.84177
-9.84366
-9.84834
-9.85531
-9.86376
-9.87331
-9.8838
-9.89509
-9.90705
-9.91955
-9.93254
-9.94596
-9.9598
-9.97403
-9.98863
-10.0036
-10.019
-10.0347
-10.0508
-10.0673
-10.0842
-10.1015
-10.1192
-10.1372
-10.1556
-10.1744
-10.1935
-10.213
-10.2327
-10.2528
-10.2732
-10.2938
-10.3146
-9.83951
-9.84168
-9.84701
-9.85484
-9.86414
-9.87448
-9.88573
-9.89775
-9.9104
-9.92354
-9.93713
-9.95113
-9.96551
-9.98026
-9.99538
-10.0109
-10.0267
-10.0429
-10.0595
-10.0764
-10.0937
-10.1114
-10.1294
-10.1478
-10.1665
-10.1855
-10.2049
-10.2246
-10.2445
-10.2647
-10.2852
-10.3059
-10.3268
-9.83522
-9.83778
-9.84406
-9.85307
-9.86346
-9.87472
-9.88681
-9.89963
-9.913
-9.92681
-9.94102
-9.95561
-9.97056
-9.98586
-10.0015
-10.0175
-10.0338
-10.0504
-10.0674
-10.0848
-10.1025
-10.1205
-10.1389
-10.1576
-10.1766
-10.1959
-10.2154
-10.2353
-10.2554
-10.2757
-10.2963
-10.317
-10.3379
-9.82836
-9.83153
-9.8392
-9.84986
-9.86166
-9.87413
-9.88731
-9.90108
-9.91524
-9.92971
-9.9445
-9.9596
-9.97502
-9.99074
-10.0068
-10.0231
-10.0398
-10.0568
-10.0742
-10.0918
-10.1098
-10.1282
-10.1468
-10.1657
-10.1849
-10.2044
-10.2242
-10.2442
-10.2644
-10.2848
-10.3054
-10.3262
-10.3471
-9.81806
-9.82235
-9.83238
-9.8451
-9.8582
-9.87177
-9.88615
-9.90106
-9.91622
-9.93158
-9.94718
-9.96301
-9.97908
-9.99539
-10.012
-10.0288
-10.0459
-10.0633
-10.081
-10.099
-10.1173
-10.1359
-10.1548
-10.174
-10.1934
-10.213
-10.2329
-10.253
-10.2733
-10.2937
-10.3143
-10.335
-10.3558
-9.80288
-9.80881
-9.82381
-9.84075
-9.85602
-9.87085
-9.88617
-9.90172
-9.91726
-9.93289
-9.94871
-9.96476
-9.98104
-9.99757
-10.0144
-10.0315
-10.0488
-10.0665
-10.0845
-10.1027
-10.1213
-10.1401
-10.1592
-10.1785
-10.1981
-10.218
-10.238
-10.2582
-10.2786
-10.2992
-10.3198
-10.3406
-10.3615
-9.78198
-9.78887
-9.80776
-9.82809
-9.84664
-9.86499
-9.88345
-9.90143
-9.91885
-9.93598
-9.95299
-9.96994
-9.9869
-10.004
-10.0211
-10.0385
-10.0561
-10.074
-10.0921
-10.1104
-10.129
-10.1479
-10.167
-10.1864
-10.206
-10.2258
-10.2458
-10.266
-10.2863
-10.3067
-10.3272
-10.3478
-10.3684
-9.74929
-9.78438
-9.81381
-9.83002
-9.8443
-9.86105
-9.87848
-9.89538
-9.91206
-9.9289
-9.94594
-9.96311
-9.98042
-9.9979
-10.0156
-10.0335
-10.0516
-10.0699
-10.0885
-10.1073
-10.1264
-10.1457
-10.1652
-10.1849
-10.2049
-10.225
-10.2453
-10.2657
-10.2862
-10.3069
-10.3277
-10.3485
-10.3694
-9.60855
-9.71607
-9.78999
-9.82248
-9.84596
-9.87068
-9.89351
-9.91313
-9.93093
-9.94806
-9.96487
-9.98147
-9.99801
-10.0146
-10.0314
-10.0485
-10.0658
-10.0833
-10.1012
-10.1194
-10.1378
-10.1565
-10.1755
-10.1947
-10.2142
-10.2339
-10.2537
-10.2737
-10.2938
-10.314
-10.3343
-10.3546
-10.375
-8.62386
-8.84331
-9.97831
-10.6989
-10.9611
-11.1102
-11.1545
-11.0154
-10.6733
-10.1478
-9.48575
-8.76149
-8.06601
-7.49264
-7.12542
-7.03767
-7.28999
-7.9096
-8.88271
-10.1572
-11.653
-13.2773
-14.9388
-16.5583
-18.074
-19.4428
-20.637
-21.6412
-22.4477
-23.0514
-23.4529
-23.6471
-23.6276
-23.3891
-22.9272
-22.2399
-21.329
-20.2035
-18.8824
-17.3975
-15.7931
-14.1222
-12.4406
-10.8001
-9.24329
-7.80128
-6.49316
-5.32754
-4.30463
-3.41855
-2.65955
-2.01577
-1.47459
-1.02356
-0.65091
-0.345878
-0.0987509
0.099121
0.255395
0.376802
0.469236
0.537817
0.58696
0.620438
0.641441
0.652637
0.656226
0.654003
0.647407
0.637577
0.625399
0.611548
0.596528
0.580704
0.564344
0.547617
0.530579
0.513245
0.495591
0.477575
0.459148
0.440249
0.420821
0.400811
0.380181
0.358904
0.336971
0.314387
0.29118
0.267384
0.243061
0.218261
0.193125
0.167601
0.142229
0.115974
0.0922801
0.0621677
0.0511537
-0.0129183
-9.29913
-9.57463
-10.1169
-10.5881
-10.8289
-10.9641
-10.9915
-10.851
-10.5267
-10.0385
-9.43066
-8.77068
-8.14125
-7.62775
-7.30753
-7.25053
-7.51214
-8.11679
-9.05172
-10.2698
-11.6985
-13.2526
-14.8469
-16.4065
-17.8718
-19.1995
-20.3613
-21.34
-22.1267
-22.7157
-23.1066
-23.2924
-23.2663
-23.0227
-22.5575
-21.8694
-20.9621
-19.8469
-18.5453
-17.0908
-15.5274
-13.9058
-12.2778
-10.6905
-9.18279
-7.78316
-6.50958
-5.37069
-4.36743
-3.49503
-2.74484
-2.106
-1.56672
-1.11521
-0.740228
-0.43146
-0.179573
0.0237474
0.185868
0.313278
0.411678
0.486044
0.540693
0.579336
0.605134
0.620745
0.628374
0.62983
0.626571
0.619754
0.610286
0.598862
0.586002
0.572091
0.557424
0.542195
0.526472
0.510291
0.493627
0.476448
0.458716
0.440382
0.4214
0.401732
0.381349
0.360235
0.338392
0.315834
0.292592
0.26871
0.244256
0.219285
0.193943
0.168177
0.142558
0.11599
0.0921063
0.0614973
0.0508562
-0.0146182
-9.39088
-9.65652
-10.0392
-10.447
-10.6939
-10.8143
-10.8246
-10.6879
-10.3895
-9.94741
-9.40209
-8.81366
-8.25596
-7.80548
-7.53358
-7.50555
-7.77201
-8.35616
-9.24771
-10.4049
-11.7621
-13.2413
-14.7633
-16.2575
-17.6663
-18.9473
-20.0711
-21.0197
-21.7825
-22.3535
-22.7304
-22.9047
-22.8695
-22.619
-22.1497
-21.4616
-20.5601
-19.4591
-18.1824
-16.7642
-15.2476
-13.6802
-12.1094
-10.5781
-9.12148
-7.76556
-6.52736
-5.41564
-4.43219
-3.57341
-2.83191
-2.19791
-1.66049
-1.20854
-0.83135
-0.519004
-0.262518
-0.05388
0.114009
0.247403
0.351806
0.432037
0.492301
0.536236
0.566961
0.587118
0.598914
0.604169
0.604359
0.600663
0.594009
0.585111
0.574508
0.562606
0.54972
0.536068
0.521738
0.506778
0.491173
0.474897
0.45792
0.440206
0.421721
0.402438
0.382341
0.361425
0.339702
0.317194
0.293942
0.269996
0.245429
0.220302
0.19477
0.168778
0.142921
0.116064
0.0919743
0.0609612
0.0505443
-0.0159544
-9.46432
-9.70707
-10.0214
-10.3542
-10.57
-10.6696
-10.6675
-10.539
-10.2713
-9.87994
-9.40115
-8.88771
-8.40425
-8.01857
-7.79608
-7.79634
-8.06535
-8.62534
-9.46897
-10.5602
-11.8406
-13.2393
-14.6834
-16.1063
-17.4531
-18.6817
-19.7626
-20.6766
-21.4117
-21.9615
-22.3211
-22.4814
-22.4351
-22.1769
-21.7041
-21.0179
-20.126
-19.0442
-17.7978
-16.4214
-14.9561
-13.4465
-11.9357
-10.4625
-9.0585
-7.74757
-6.54577
-5.46193
-4.49871
-3.65376
-2.92097
-2.29174
-1.75614
-1.30377
-0.924464
-0.608693
-0.347785
-0.133993
0.0395411
0.178854
0.289254
0.3754
0.441371
0.490716
0.526498
0.551332
0.567422
0.576597
0.58035
0.579883
0.576145
0.569872
0.561625
0.551827
0.540816
0.528829
0.515975
0.502318
0.487852
0.47256
0.456417
0.439398
0.421482
0.402651
0.382902
0.362242
0.340691
0.318282
0.295065
0.271094
0.246453
0.221207
0.195518
0.169332
0.143265
0.116157
0.0918771
0.0605405
0.0502892
-0.0169699
-9.55704
-9.76417
-10.0174
-10.277
-10.4567
-10.5394
-10.5299
-10.4122
-10.1767
-9.83687
-9.42454
-8.98546
-8.57537
-8.25407
-8.08045
-8.10791
-8.37791
-8.91161
-9.70449
-10.7263
-11.926
-13.2401
-14.6017
-15.9487
-17.2285
-18.4001
-19.4334
-20.3086
-21.0124
-21.5377
-21.8771
-22.0212
-21.963
-21.6974
-21.2228
-20.542
-19.6642
-18.6071
-17.3965
-16.0665
-14.6562
-13.2069
-11.7578
-10.3438
-8.99342
-7.72848
-6.56399
-5.50884
-4.56644
-3.73563
-3.01165
-2.38718
-1.85332
-1.40049
-1.0191
-0.70001
-0.434846
-0.216087
-0.0370774
0.108029
0.224361
0.316419
0.388144
0.442985
0.483933
0.513566
0.534071
0.54728
0.554703
0.557562
0.55683
0.55327
0.547461
0.539852
0.530796
0.520547
0.509242
0.496958
0.483704
0.469466
0.45423
0.437977
0.420697
0.402383
0.383043
0.362694
0.341367
0.319104
0.295963
0.272008
0.247328
0.221995
0.196179
0.169829
0.143577
0.116249
0.0917862
0.0601955
0.0500427
-0.0177383
-9.63735
-9.80704
-10.0101
-10.2138
-10.3615
-10.4295
-10.4154
-10.3095
-10.1057
-9.81569
-9.46682
-9.09836
-8.75828
-8.49891
-8.37218
-8.4253
-8.69514
-9.2015
-9.94229
-10.8928
-12.0093
-13.2356
-14.5112
-15.7785
-16.9873
-18.0978
-19.0798
-19.9127
-20.582
-21.0799
-21.397
-21.5239
-21.4538
-21.1825
-20.7092
-20.0383
-19.1802
-18.1533
-16.9836
-15.7039
-14.3513
-12.9636
-11.5768
-10.2223
-8.92602
-7.70767
-6.58132
-5.55572
-4.63487
-3.81872
-3.10383
-2.48417
-1.952
-1.49862
-1.11509
-0.792725
-0.523418
-0.299858
-0.115555
0.035183
0.157333
0.255245
0.332728
0.393116
0.43932
0.473859
0.498895
0.516254
0.527454
0.533739
0.536106
0.535341
0.53205
0.526706
0.519678
0.511236
0.501547
0.490702
0.478726
0.465612
0.451351
0.435934
0.419357
0.401626
0.382757
0.362777
0.341729
0.319663
0.296644
0.272747
0.248067
0.222682
0.19677
0.170286
0.143871
0.116355
0.0917151
0.059937
0.0498016
-0.0182557
-9.704
-9.84164
-10.0049
-10.1658
-10.285
-10.3395
-10.3233
-10.2299
-10.0563
-9.81263
-9.52228
-9.21894
-8.9438
-8.74211
-8.65909
-8.73589
-9.00482
-9.48393
-10.1729
-11.052
-12.0842
-13.2207
-14.4076
-15.5918
-16.7264
-17.7723
-18.6998
-19.4874
-20.1197
-20.5881
-20.8817
-20.9914
-20.9109
-20.6367
-20.169
-19.5131
-18.6803
-17.6889
-16.5645
-15.3382
-14.0446
-12.7189
-11.3941
-10.0986
-8.85614
-7.68459
-6.59698
-5.60176
-4.70336
-3.9026
-3.19726
-2.58264
-2.05217
-1.59816
-1.2124
-0.886708
-0.613296
-0.385052
-0.195621
-0.0394298
0.0883821
0.192041
0.275232
0.341177
0.392689
0.432223
0.461895
0.483515
0.498603
0.508416
0.513975
0.516091
0.515396
0.512388
0.507458
0.500887
0.492876
0.483529
0.472893
0.460968
0.44775
0.433237
0.417432
0.400351
0.382019
0.362472
0.341762
0.319947
0.297103
0.27331
0.248672
0.223275
0.197302
0.170716
0.144165
0.116493
0.0916809
0.0597808
0.0495693
-0.018498
-9.75963
-9.87134
-10.0025
-10.1299
-10.2249
-10.268
-10.2517
-10.1712
-10.0257
-9.82419
-9.58671
-9.3421
-9.12564
-8.97616
-8.93263
-9.03056
-9.29787
-9.75058
-10.3894
-11.1986
-12.1474
-13.1939
-14.2905
-15.3894
-16.4467
-17.4252
-18.2954
-19.0351
-19.6287
-20.0662
-20.3361
-20.4296
-20.3409
-20.0672
-19.6096
-18.9738
-18.1714
-17.2201
-16.1444
-14.9734
-13.7395
-12.4752
-11.2111
-9.97346
-8.78386
-7.65878
-6.6102
-5.64612
-4.7711
-3.98665
-3.29158
-2.68241
-2.15381
-1.69914
-1.31104
-0.981906
-0.704344
-0.471457
-0.277019
-0.115539
0.0177618
0.12702
0.215819
0.287276
0.344109
0.388692
0.423087
0.449071
0.468153
0.481598
0.490444
0.495528
0.497507
0.496908
0.49414
0.489501
0.483224
0.475431
0.466191
0.455514
0.443402
0.429858
0.414895
0.398532
0.380804
0.361756
0.341445
0.319942
0.297327
0.27369
0.249141
0.223774
0.197779
0.171126
0.144467
0.116673
0.0916949
0.0597362
0.0493396
-0.0184418
-9.80627
-9.89733
-10.0027
-10.1038
-10.1794
-10.2135
-10.1985
-10.131
-10.0112
-9.84759
-9.6572
-9.46471
-9.30021
-9.19687
-9.18803
-9.30406
-9.56883
-9.99626
-10.5875
-11.33
-12.1981
-13.1562
-14.1629
-15.1755
-16.1537
-17.0625
-17.873
-18.563
-19.1165
-19.5223
-19.7687
-19.8474
-19.7529
-19.4832
-19.0397
-18.4283
-17.6604
-16.7527
-15.7279
-14.6132
-13.4386
-12.2345
-11.0293
-9.84761
-8.70943
-7.63001
-6.62036
-5.68794
-4.83721
-4.0701
-3.38623
-2.78318
-2.2568
-1.80157
-1.41105
-1.07834
-0.796508
-0.558933
-0.359532
-0.192886
-0.0542617
0.0604257
0.154691
0.231567
0.293683
0.34333
0.382505
0.412936
0.436112
0.453291
0.465524
0.473665
0.4784
0.480281
0.479739
0.477092
0.472601
0.466412
0.458617
0.449241
0.438292
0.42578
0.411722
0.396145
0.379089
0.360606
0.340761
0.319631
0.297305
0.273879
0.249471
0.224181
0.198204
0.171524
0.144787
0.116905
0.0917653
0.0598097
0.0491008
-0.0180588
-9.84592
-9.92068
-10.0057
-10.0864
-10.1467
-10.1741
-10.1616
-10.1066
-10.0104
-9.88048
-9.73161
-9.58479
-9.46563
-9.40233
-9.42324
-9.55415
-9.8153
-10.2186
-10.7653
-11.4451
-12.2367
-13.1099
-14.029
-14.9562
-15.8551
-16.693
-17.4426
-18.0814
-18.5938
-18.9675
-19.191
-19.2561
-19.1579
-18.8947
-18.4682
-17.8843
-17.1534
-16.2913
-15.3186
-14.2603
-13.1442
-11.9985
-10.8501
-9.72205
-8.63335
-7.59827
-6.62702
-5.72646
-4.9008
-4.15209
-3.48049
-2.88446
-2.3609
-1.9054
-1.51249
-1.17608
-0.889815
-0.647425
-0.443019
-0.271257
-0.127433
-0.00748028
0.0920855
0.174244
0.241555
0.296234
0.340205
0.375142
0.402494
0.423504
0.439221
0.450514
0.458089
0.462525
0.464275
0.463681
0.461026
0.456486
0.450182
0.442153
0.432419
0.420993
0.407901
0.393173
0.376855
0.359005
0.339693
0.319001
0.297026
0.27387
0.249657
0.224493
0.19858
0.171913
0.145131
0.117196
0.0918995
0.0600062
0.0488371
-0.0173171
-9.88036
-9.94233
-10.0114
-10.0765
-10.1252
-10.1479
-10.1387
-10.0958
-10.0209
-9.92081
-9.80825
-9.70108
-9.62101
-9.59194
-9.63783
-9.78045
-10.0368
-10.4171
-10.9222
-11.5439
-12.2641
-13.0573
-13.8927
-14.7372
-15.5583
-16.3259
-17.0142
-17.6014
-18.0722
-18.4137
-18.6146
-18.667
-18.5663
-18.3111
-17.9032
-17.3482
-16.6557
-15.8398
-14.9193
-13.9168
-12.8578
-11.7687
-10.6746
-9.59777
-8.55628
-7.56382
-6.62998
-5.7611
-4.96102
-4.23168
-3.57351
-2.98559
-2.4657
-2.01043
-1.61534
-1.27521
-0.98435
-0.736962
-0.52742
-0.350502
-0.201535
-0.076444
0.0282586
0.115538
0.187913
0.24754
0.296279
0.335741
0.367327
0.392249
0.411543
0.426081
0.436586
0.443656
0.447769
0.44929
0.448522
0.445677
0.440903
0.434263
0.425786
0.415497
0.403424
0.389604
0.374087
0.356935
0.338222
0.318035
0.296476
0.273651
0.24969
0.224707
0.198906
0.172295
0.145503
0.117552
0.0921017
0.0603283
0.0485296
-0.0161823
-9.91102
-9.96302
-10.0198
-10.0731
-10.1133
-10.1331
-10.1279
-10.0964
-10.0406
-9.96674
-9.88571
-9.81266
-9.76595
-9.76573
-9.83217
-9.98354
-10.2341
-10.5922
-11.0588
-11.6268
-12.281
-12.9998
-13.7567
-14.5227
-15.2689
-15.968
-16.596
-17.132
-17.5614
-17.8708
-18.0494
-18.0895
-17.9868
-17.74
-17.351
-16.825
-16.1707
-15.4007
-14.5316
-13.5838
-12.5804
-11.5459
-10.5038
-9.4757
-8.47903
-7.52716
-6.62935
-5.79156
-5.0172
-4.30799
-3.66437
-3.08576
-2.5706
-2.11634
-1.7195
-1.37576
-1.08022
-0.827639
-0.612762
-0.430557
-0.276412
-0.146245
-0.0365359
0.0557007
0.132981
0.197431
0.250858
0.294819
0.33066
0.35955
0.382501
0.400375
0.413899
0.423688
0.430239
0.43394
0.435113
0.434012
0.430808
0.425592
0.41841
0.409298
0.398292
0.385433
0.370775
0.354382
0.336333
0.316717
0.295638
0.273208
0.24956
0.224813
0.199175
0.172668
0.145903
0.117972
0.0923725
0.0607747
0.0481562
-0.0146228
-9.93902
-9.98334
-10.0309
-10.0753
-10.1095
-10.1279
-10.1271
-10.1063
-10.0676
-10.0167
-9.96279
-9.91885
-9.90031
-9.92407
-10.007
-10.1644
-10.4082
-10.7451
-11.1759
-11.6945
-12.2881
-12.9383
-13.6222
-14.3146
-14.99
-15.6236
-16.1932
-16.6795
-17.0682
-17.3461
-17.5028
-17.5307
-17.4259
-17.1872
-16.8164
-16.3184
-15.7011
-14.9756
-14.1565
-13.2619
-12.3124
-11.3305
-10.3384
-9.35665
-8.40242
-7.48897
-6.62551
-5.81777
-5.0689
-4.38027
-3.75216
-3.18407
-2.67484
-2.22259
-1.82468
-1.47767
-1.17749
-0.919579
-0.699146
-0.511446
-0.351992
-0.216721
-0.102074
-0.00501325
0.07701
0.146126
0.20412
0.252506
0.292577
0.325458
0.35212
0.373406
0.390036
0.402628
0.411697
0.417649
0.420829
0.421522
0.419927
0.416169
0.410316
0.402416
0.392515
0.380662
0.366913
0.351337
0.334012
0.31503
0.294496
0.272524
0.249251
0.2248
0.199379
0.173024
0.146326
0.118454
0.0927082
0.0613399
0.0476942
-0.0126116
-9.96519
-10.0037
-10.0443
-10.0824
-10.1127
-10.131
-10.1348
-10.1238
-10.1003
-10.0692
-10.0385
-10.0192
-10.0241
-10.0675
-10.1634
-10.3244
-10.5604
-10.8769
-11.2744
-11.7477
-12.2858
-12.873
-13.4896
-14.1137
-14.7226
-15.2943
-15.8083
-16.2469
-16.5963
-16.8436
-16.9788
-16.9947
-16.8874
-16.656
-16.3022
-15.8306
-15.2484
-14.5653
-13.7942
-12.9509
-12.0536
-11.1226
-10.1786
-9.24118
-8.32722
-7.45005
-6.61905
-5.84001
-5.11595
-4.44796
-3.83605
-3.27959
-2.77756
-2.3285
-1.93043
-1.58074
-1.27617
-1.01289
-0.786709
-0.593268
-0.428293
-0.287792
-0.168186
-0.0663757
0.020253
0.0938729
0.156281
0.208972
0.253203
0.290051
0.320447
0.345199
0.365008
0.380486
0.392154
0.400435
0.40569
0.408232
0.40829
0.406026
0.401532
0.394875
0.386112
0.375302
0.362506
0.347795
0.331249
0.31296
0.293033
0.271583
0.248746
0.22465
0.199502
0.173349
0.146761
0.118987
0.0930995
0.062013
0.04712
-0.0101339
-9.99016
-10.0243
-10.06
-10.0937
-10.1216
-10.1407
-10.1492
-10.1473
-10.137
-10.123
-10.112
-10.1132
-10.1375
-10.1966
-10.3022
-10.4647
-10.6921
-10.9891
-11.3556
-11.7872
-12.2746
-12.804
-13.3587
-13.9196
-14.4668
-14.9805
-15.4421
-15.8354
-16.1471
-16.3651
-16.4795
-16.4835
-16.3735
-16.1484
-15.8101
-15.3629
-14.8133
-14.1703
-13.4448
-12.6506
-11.8036
-10.9219
-10.0244
-9.12961
-8.25405
-7.41117
-6.61071
-5.85878
-5.15849
-4.51079
-3.9154
-3.37145
-2.87781
-2.43322
-2.03612
-1.68458
-1.37609
-1.10761
-0.875586
-0.676172
-0.505412
-0.359466
-0.234782
-0.12821
-0.0370565
0.0409271
0.107586
0.164431
0.212706
0.253452
0.28756
0.315798
0.338838
0.357272
0.371618
0.382307
0.389709
0.394164
0.395927
0.395196
0.392093
0.386706
0.379109
0.369372
0.357564
0.34376
0.32804
0.310496
0.291233
0.270364
0.248024
0.224342
0.199523
0.173627
0.147191
0.119557
0.0935322
0.0627781
0.0464137
-0.00718942
-10.0144
-10.0455
-10.0777
-10.1086
-10.1353
-10.1557
-10.1689
-10.1752
-10.1766
-10.1771
-10.1826
-10.2007
-10.2407
-10.3121
-10.4246
-10.5867
-10.805
-11.083
-11.4207
-11.8139
-12.2548
-12.7315
-13.2294
-13.7321
-14.222
-14.6816
-15.094
-15.4446
-15.7207
-15.9107
-16.0053
-15.9979
-15.8848
-15.6651
-15.3408
-14.9158
-14.3964
-13.7906
-13.108
-12.3605
-11.5619
-10.7279
-9.87549
-9.02197
-8.1833
-7.373
-6.60129
-5.87478
-5.19693
-4.56877
-3.98982
-3.45892
-2.9747
-2.53582
-2.14095
-1.78861
-1.47695
-1.20364
-0.965851
-0.760314
-0.583504
-0.431836
-0.30186
-0.190415
-0.0947341
-0.0124742
0.0582926
0.119129
0.171297
0.215827
0.253579
0.285282
0.311571
0.333011
0.3501
0.36327
0.372897
0.379332
0.382858
0.383708
0.382032
0.377944
0.371538
0.362899
0.352107
0.339241
0.324386
0.307633
0.289083
0.26885
0.247064
0.223854
0.199419
0.173831
0.147593
0.12014
0.0939861
0.0636128
0.0455596
-0.00380053
-10.0382
-10.0671
-10.097
-10.1263
-10.1527
-10.1751
-10.1927
-10.2063
-10.2177
-10.2304
-10.2496
-10.2816
-10.334
-10.4147
-10.5316
-10.6917
-10.9003
-11.16
-11.4707
-11.8287
-12.227
-12.6554
-13.1015
-13.5507
-13.9877
-14.3971
-14.7636
-15.0741
-15.3166
-15.4801
-15.5558
-15.5375
-15.4213
-15.2064
-14.8945
-14.4897
-13.9979
-13.4263
-12.7838
-12.0804
-11.3279
-10.5399
-9.73136
-8.91803
-8.11511
-7.33606
-6.59152
-5.88879
-5.23189
-4.62219
-4.0592
-3.54151
-3.06743
-2.63538
-2.24402
-1.89209
-1.57823
-1.30073
-1.05746
-0.845799
-0.662738
-0.505058
-0.369505
-0.252978
-0.152668
-0.0661382
0.00864203
0.0733227
0.129221
0.177387
0.218669
0.253768
0.283284
0.307745
0.327623
0.343338
0.355261
0.363745
0.3691
0.371583
0.371377
0.368621
0.363432
0.355914
0.34616
0.334258
0.320298
0.304371
0.286578
0.267027
0.245846
0.223161
0.199164
0.173935
0.14794
0.120708
0.0944366
0.0644903
0.0445507
-1.33257e-05
-10.0617
-10.0893
-10.1178
-10.1463
-10.1731
-10.1976
-10.2194
-10.2394
-10.2594
-10.2824
-10.3127
-10.3557
-10.4177
-10.5051
-10.6243
-10.7811
-10.9795
-11.2216
-11.507
-11.8324
-12.1917
-12.5761
-12.9747
-13.3749
-13.7632
-14.126
-14.4498
-14.7229
-14.9337
-15.0724
-15.1304
-15.1016
-14.9824
-14.7717
-14.4712
-14.0846
-13.6178
-13.0777
-12.4721
-11.81
-11.1012
-10.3574
-9.59142
-8.81735
-8.04936
-7.30059
-6.58199
-5.90158
-5.26414
-4.67161
-4.12372
-3.61898
-3.15539
-2.73105
-2.34439
-1.99415
-1.67924
-1.39844
-1.15023
-0.932636
-0.743251
-0.579313
-0.437873
-0.315976
-0.210833
-0.119942
-0.0411647
0.0272599
0.0867383
0.138375
0.183038
0.221421
0.254095
0.281552
0.304232
0.322532
0.336809
0.34741
0.354661
0.358836
0.360149
0.358765
0.354824
0.348451
0.339755
0.328837
0.315795
0.300722
0.283717
0.264887
0.244354
0.222241
0.19873
0.173908
0.1482
0.121231
0.094855
0.0653785
0.0433888
0.00409639
-10.085
-10.1118
-10.1397
-10.168
-10.1957
-10.2224
-10.2481
-10.2737
-10.3008
-10.3322
-10.3715
-10.4231
-10.4921
-10.584
-10.7038
-10.856
-11.0439
-11.269
-11.5307
-11.8261
-12.1497
-12.4938
-12.8491
-13.2044
-13.548
-13.8678
-14.1521
-14.3901
-14.5713
-14.6866
-14.728
-14.6895
-14.5675
-14.3606
-14.0704
-13.7004
-13.2564
-12.7448
-12.1731
-11.5491
-10.8815
-10.1798
-9.45504
-8.71938
-7.98571
-7.26658
-6.57308
-5.91382
-5.29447
-4.71772
-4.18382
-3.69139
-3.23826
-2.82215
-2.44116
-2.09384
-1.77914
-1.49612
-1.24376
-1.02068
-0.825088
-0.65476
-0.507151
-0.379558
-0.269295
-0.173849
-0.0909936
-0.0188511
0.0441
0.0990544
0.146934
0.18845
0.224167
0.254549
0.280003
0.300897
0.317566
0.330339
0.339546
0.345475
0.348363
0.348398
0.345742
0.340541
0.332925
0.32301
0.310903
0.296703
0.28051
0.26243
0.242579
0.221076
0.198093
0.173722
0.14834
0.121673
0.0952111
0.0662428
0.0420888
0.00842651
-10.1081
-10.1347
-10.1624
-10.191
-10.2198
-10.2486
-10.2778
-10.3081
-10.3412
-10.3794
-10.4257
-10.4837
-10.5578
-10.6522
-10.771
-10.9177
-11.0949
-11.3036
-11.5431
-11.8107
-12.1015
-12.4089
-12.7246
-13.0389
-13.3415
-13.6218
-13.8695
-14.0749
-14.2285
-14.3219
-14.3477