/*--------------------------------*- C++ -*----------------------------------*\
| =========                 |                                                 |
| \\      /  F ield         | OpenFOAM: The Open Source CFD Toolbox           |
|  \\    /   O peration     | Version:  4.1                                   |
|   \\  /    A nd           | Web:      www.OpenFOAM.org                      |
|    \\/     M anipulation  |                                                 |
\*---------------------------------------------------------------------------*/
FoamFile
{
    version     2.0;
    format      ascii;
    class       surfaceScalarField;
    location    "100";
    object      phi;
}
// * * * * * * * * * * * * * * * * * * * * * * * * * * * * * * * * * * * * * //

dimensions      [0 3 -1 0 0 0 0];

internalField   nonuniform List<scalar> 
13452
(
5.98809e-05
3.87551e-07
5.95244e-05
3.56473e-07
5.9268e-05
2.56409e-07
5.90589e-05
2.0917e-07
5.88752e-05
1.83628e-07
5.87109e-05
1.64291e-07
5.85611e-05
1.49811e-07
5.84222e-05
1.38968e-07
5.82919e-05
1.30254e-07
5.81689e-05
1.22953e-07
5.80521e-05
1.1681e-07
5.79405e-05
1.11659e-07
5.78331e-05
1.07361e-07
5.77293e-05
1.0382e-07
5.76283e-05
1.00975e-07
5.75295e-05
9.87898e-08
5.74323e-05
9.72539e-08
5.73359e-05
9.6381e-08
5.72397e-05
9.62132e-08
5.71429e-05
9.68285e-08
5.70445e-05
9.83533e-08
5.69435e-05
1.00985e-07
5.68385e-05
1.05031e-07
5.67275e-05
1.10983e-07
5.66078e-05
1.19655e-07
5.64754e-05
1.32463e-07
5.63233e-05
1.52092e-07
5.61396e-05
1.83656e-07
5.58999e-05
2.39705e-07
5.55577e-05
3.42214e-07
5.49788e-05
5.78919e-07
5.38518e-05
1.12695e-06
1.66866e-06
5.21832e-05
6.20748e-05
3.03048e-07
6.19983e-05
4.32973e-07
6.18507e-05
4.0409e-07
6.16866e-05
3.73255e-07
6.15263e-05
3.43916e-07
6.13754e-05
3.15203e-07
6.12341e-05
2.91069e-07
6.11014e-05
2.71661e-07
6.09761e-05
2.55597e-07
6.0857e-05
2.4202e-07
6.07433e-05
2.30505e-07
6.06342e-05
2.20747e-07
6.05291e-05
2.12513e-07
6.04272e-05
2.05645e-07
6.03282e-05
2.00042e-07
6.02313e-05
1.95644e-07
6.01361e-05
1.92434e-07
6.00421e-05
1.90432e-07
5.99486e-05
1.89707e-07
5.9855e-05
1.90383e-07
5.97607e-05
1.92661e-07
5.96649e-05
1.96853e-07
5.95665e-05
2.03429e-07
5.94643e-05
2.1312e-07
5.93569e-05
2.27091e-07
5.92421e-05
2.4722e-07
5.91173e-05
2.76911e-07
5.89793e-05
3.21649e-07
5.88244e-05
3.94647e-07
5.8655e-05
5.11559e-07
5.84928e-05
7.41188e-07
5.85026e-05
1.11715e-06
1.81641e-06
5.83548e-05
6.38372e-05
2.2725e-07
6.3868e-05
4.02218e-07
6.38433e-05
4.28763e-07
6.3783e-05
4.33569e-07
6.37015e-05
4.25412e-07
6.36095e-05
4.0722e-07
6.35133e-05
3.87211e-07
6.34163e-05
3.68718e-07
6.33198e-05
3.52026e-07
6.32247e-05
3.37114e-07
6.31312e-05
3.24001e-07
6.30394e-05
3.12616e-07
6.2949e-05
3.02858e-07
6.286e-05
2.94653e-07
6.27721e-05
2.87959e-07
6.2685e-05
2.82767e-07
6.25983e-05
2.79104e-07
6.25117e-05
2.77041e-07
6.24247e-05
2.76703e-07
6.23368e-05
2.78289e-07
6.22474e-05
2.82094e-07
6.21557e-05
2.88556e-07
6.20608e-05
2.9832e-07
6.19615e-05
3.1235e-07
6.18565e-05
3.32129e-07
6.17438e-05
3.5994e-07
6.16211e-05
3.99627e-07
6.14858e-05
4.56941e-07
6.13368e-05
5.43619e-07
6.11762e-05
6.72109e-07
6.10348e-05
8.8262e-07
6.09798e-05
1.1722e-06
1.66732e-06
6.11289e-05
6.56369e-05
1.7345e-07
6.56884e-05
3.50721e-07
6.5711e-05
4.0615e-07
6.57105e-05
4.34073e-07
6.56897e-05
4.46184e-07
6.5653e-05
4.43889e-07
6.56053e-05
4.34929e-07
6.55501e-05
4.23902e-07
6.54899e-05
4.12247e-07
6.54263e-05
4.00728e-07
6.53604e-05
3.89928e-07
6.52928e-05
3.80172e-07
6.5224e-05
3.71627e-07
6.51543e-05
3.64408e-07
6.50836e-05
3.58612e-07
6.50121e-05
3.54341e-07
6.49395e-05
3.51712e-07
6.48656e-05
3.5088e-07
6.47903e-05
3.52055e-07
6.4713e-05
3.55523e-07
6.46334e-05
3.6168e-07
6.45509e-05
3.71083e-07
6.44647e-05
3.8452e-07
6.43739e-05
4.03126e-07
6.42775e-05
4.28571e-07
6.41741e-05
4.63306e-07
6.40626e-05
5.11141e-07
6.39421e-05
5.77415e-07
6.38144e-05
6.71313e-07
6.36847e-05
8.01833e-07
6.35771e-05
9.90235e-07
6.35206e-05
1.22871e-06
1.55859e-06
6.36293e-05
6.74944e-05
1.35808e-07
6.75426e-05
3.02569e-07
6.75766e-05
3.72084e-07
6.7599e-05
4.11671e-07
6.76091e-05
4.36128e-07
6.76068e-05
4.46203e-07
6.75939e-05
4.47795e-07
6.75724e-05
4.45386e-07
6.75439e-05
4.4074e-07
6.75098e-05
4.3489e-07
6.7471e-05
4.28693e-07
6.74284e-05
4.2274e-07
6.73827e-05
4.17416e-07
6.73341e-05
4.13008e-07
6.72829e-05
4.09757e-07
6.72294e-05
4.07883e-07
6.71735e-05
4.07607e-07
6.71152e-05
4.09176e-07
6.70543e-05
4.12888e-07
6.69908e-05
4.19115e-07
6.69241e-05
4.28345e-07
6.68539e-05
4.41225e-07
6.67798e-05
4.58639e-07
6.67011e-05
4.81804e-07
6.66173e-05
5.12428e-07
6.65277e-05
5.52883e-07
6.64323e-05
6.0657e-07
6.63318e-05
6.77914e-07
6.62297e-05
7.7338e-07
6.61329e-05
8.98608e-07
6.60601e-05
1.0631e-06
6.60304e-05
1.25834e-06
1.48849e-06
6.61005e-05
6.94107e-05
1.09164e-07
6.94514e-05
2.6187e-07
6.94853e-05
3.38153e-07
6.95132e-05
3.83777e-07
6.95345e-05
4.14826e-07
6.9548e-05
4.32686e-07
6.9554e-05
4.41805e-07
6.95531e-05
4.46247e-07
6.95461e-05
4.4782e-07
6.95334e-05
4.47553e-07
6.95158e-05
4.46328e-07
6.94937e-05
4.4482e-07
6.94676e-05
4.43509e-07
6.94378e-05
4.42776e-07
6.94046e-05
4.42949e-07
6.93682e-05
4.44333e-07
6.93286e-05
4.47228e-07
6.92858e-05
4.51952e-07
6.92398e-05
4.58874e-07
6.91905e-05
4.68433e-07
6.91376e-05
4.81178e-07
6.90811e-05
4.97811e-07
6.90204e-05
5.19251e-07
6.89555e-05
5.46706e-07
6.88862e-05
5.81788e-07
6.88125e-05
6.26606e-07
6.87351e-05
6.83934e-07
6.86559e-05
7.57076e-07
6.85792e-05
8.50092e-07
6.8512e-05
9.65807e-07
6.84682e-05
1.10694e-06
6.84611e-05
1.26537e-06
1.43337e-06
6.85163e-05
7.13855e-05
8.99925e-08
7.14192e-05
2.28199e-07
7.14502e-05
3.07161e-07
7.14776e-05
3.5634e-07
7.15014e-05
3.91071e-07
7.15203e-05
4.13729e-07
7.15343e-05
4.27842e-07
7.15435e-05
4.37071e-07
7.1548e-05
4.43272e-07
7.15481e-05
4.47459e-07
7.15439e-05
4.50475e-07
7.15358e-05
4.52992e-07
7.15238e-05
4.55513e-07
7.15081e-05
4.58448e-07
7.14889e-05
4.62161e-07
7.14662e-05
4.66995e-07
7.14402e-05
4.73292e-07
7.14107e-05
4.81413e-07
7.13778e-05
4.91765e-07
7.13414e-05
5.04823e-07
7.13014e-05
5.21161e-07
7.12578e-05
5.41491e-07
7.12103e-05
5.66706e-07
7.11591e-05
5.97929e-07
7.11043e-05
6.36574e-07
7.10465e-05
6.84375e-07
7.0987e-05
7.43406e-07
7.09283e-05
8.15869e-07
7.08744e-05
9.03927e-07
7.08319e-05
1.00835e-06
7.08105e-05
1.12835e-06
7.08193e-05
1.25658e-06
1.38309e-06
7.08695e-05
7.34194e-05
7.59113e-08
7.34471e-05
2.00451e-07
7.34748e-05
2.7947e-07
7.35003e-05
3.3084e-07
7.35235e-05
3.67881e-07
7.35435e-05
3.93741e-07
7.356e-05
4.11353e-07
7.3573e-05
4.23982e-07
7.35828e-05
4.33533e-07
7.35892e-05
4.41056e-07
7.35923e-05
4.47374e-07
7.35921e-05
4.53153e-07
7.35887e-05
4.58905e-07
7.35821e-05
4.65044e-07
7.35724e-05
4.71946e-07
7.35594e-05
4.79966e-07
7.35432e-05
4.8946e-07
7.35238e-05
5.00805e-07
7.35012e-05
5.1442e-07
7.34752e-05
5.30782e-07
7.34459e-05
5.50459e-07
7.34133e-05
5.74127e-07
7.33774e-05
6.02602e-07
7.33384e-05
6.36864e-07
7.32969e-05
6.78073e-07
7.32538e-05
7.2754e-07
7.32105e-05
7.86669e-07
7.31697e-05
8.56708e-07
7.31351e-05
9.38454e-07
7.31121e-05
1.03135e-06
7.31075e-05
1.13302e-06
7.3127e-05
1.23709e-06
1.33466e-06
7.31754e-05
7.55131e-05
6.53269e-08
7.5536e-05
1.77548e-07
7.55605e-05
2.54884e-07
7.55839e-05
3.07442e-07
7.56058e-05
3.46039e-07
7.56253e-05
3.74211e-07
7.56422e-05
3.94497e-07
7.56564e-05
4.09755e-07
7.5668e-05
4.21888e-07
7.56771e-05
4.31996e-07
7.56836e-05
4.40907e-07
7.56874e-05
4.49292e-07
7.56886e-05
4.57673e-07
7.56872e-05
4.66476e-07
7.56831e-05
4.7608e-07
7.56762e-05
4.86845e-07
7.56665e-05
4.99129e-07
7.5654e-05
5.13308e-07
7.56387e-05
5.29792e-07
7.56204e-05
5.49041e-07
7.55993e-05
5.71582e-07
7.55754e-05
5.98029e-07
7.55489e-05
6.29084e-07
7.55202e-05
6.6555e-07
7.549e-05
7.08307e-07
7.54593e-05
7.5826e-07
7.54297e-05
8.16225e-07
7.54037e-05
8.82705e-07
7.53846e-05
9.57589e-07
7.53763e-05
1.03957e-06
7.53836e-05
1.12576e-06
7.54099e-05
1.21083e-06
1.28773e-06
7.54568e-05
7.76677e-05
5.71739e-08
7.76867e-05
1.58552e-07
7.77085e-05
2.33105e-07
7.77299e-05
2.86016e-07
7.77503e-05
3.25633e-07
7.7769e-05
3.55527e-07
7.77856e-05
3.77961e-07
7.77999e-05
3.95404e-07
7.78121e-05
4.09688e-07
7.78222e-05
4.21946e-07
7.783e-05
4.33012e-07
7.78358e-05
4.43563e-07
7.78393e-05
4.54137e-07
7.78406e-05
4.65169e-07
7.78397e-05
4.77048e-07
7.78364e-05
4.90133e-07
7.78307e-05
5.04781e-07
7.78227e-05
5.21355e-07
7.78122e-05
5.40247e-07
7.77994e-05
5.61881e-07
7.77842e-05
5.86732e-07
7.77669e-05
6.15323e-07
7.77478e-05
6.4823e-07
7.77273e-05
6.86065e-07
7.77061e-05
7.29438e-07
7.76855e-05
7.78889e-07
7.7667e-05
8.34769e-07
7.76526e-05
8.97043e-07
7.76452e-05
9.65052e-07
7.76476e-05
1.03716e-06
7.76628e-05
1.11052e-06
7.76928e-05
1.18081e-06
1.24276e-06
7.77378e-05
7.98848e-05
5.0737e-08
7.99006e-05
1.42676e-07
7.99199e-05
2.13814e-07
7.99395e-05
2.66386e-07
7.99586e-05
3.06574e-07
7.99764e-05
3.37731e-07
7.99925e-05
3.61903e-07
8.00066e-05
3.81213e-07
8.0019e-05
3.97371e-07
8.00294e-05
4.11511e-07
8.00379e-05
4.24465e-07
8.00446e-05
4.36909e-07
8.00493e-05
4.49388e-07
8.00522e-05
4.62348e-07
8.0053e-05
4.76181e-07
8.00519e-05
4.91246e-07
8.00488e-05
5.07891e-07
8.00437e-05
5.26465e-07
8.00366e-05
5.47329e-07
8.00276e-05
5.70866e-07
8.00169e-05
5.97483e-07
8.00046e-05
6.27609e-07
7.99911e-05
6.61686e-07
7.99771e-05
7.00143e-07
7.99632e-05
7.43349e-07
7.99505e-05
7.91545e-07
7.99405e-05
8.44734e-07
7.9935e-05
9.02534e-07
7.99361e-05
9.64001e-07
7.99458e-05
1.02744e-06
7.9966e-05
1.09031e-06
7.99976e-05
1.14919e-06
1.20029e-06
8.00401e-05
8.21657e-05
4.55301e-08
8.2179e-05
1.29276e-07
8.21962e-05
1.967e-07
8.22142e-05
2.48378e-07
8.2232e-05
2.88742e-07
8.2249e-05
3.20769e-07
8.22645e-05
3.4632e-07
8.22785e-05
3.67219e-07
8.22909e-05
3.85025e-07
8.23016e-05
4.00844e-07
8.23105e-05
4.15493e-07
8.23178e-05
4.29637e-07
8.23234e-05
4.43821e-07
8.23272e-05
4.58493e-07
8.23294e-05
4.74042e-07
8.23298e-05
4.90821e-07
8.23285e-05
5.09167e-07
8.23256e-05
5.29406e-07
8.2321e-05
5.51866e-07
8.2315e-05
5.76878e-07
8.23077e-05
6.04781e-07
8.22994e-05
6.35907e-07
8.22905e-05
6.70569e-07
8.22816e-05
7.09033e-07
8.22735e-05
7.5147e-07
8.22672e-05
7.97891e-07
8.22638e-05
8.48063e-07
8.2265e-05
9.01402e-07
8.22721e-05
9.56865e-07
8.22867e-05
1.01287e-06
8.23098e-05
1.06725e-06
8.23416e-05
1.11739e-06
1.16061e-06
8.23812e-05
8.45121e-05
4.12207e-08
8.45235e-05
1.17836e-07
8.45388e-05
1.8146e-07
8.45553e-05
2.3182e-07
8.45721e-05
2.72009e-07
8.45883e-05
3.04564e-07
8.46034e-05
3.31165e-07
8.46172e-05
3.53386e-07
8.46296e-05
3.72625e-07
8.46406e-05
3.89934e-07
8.46499e-05
4.06107e-07
8.46578e-05
4.21788e-07
8.46641e-05
4.37508e-07
8.46689e-05
4.53712e-07
8.46721e-05
4.7078e-07
8.46739e-05
4.89054e-07
8.46742e-05
5.08851e-07
8.46732e-05
5.30469e-07
8.46708e-05
5.54199e-07
8.46674e-05
5.8032e-07
8.46631e-05
6.09098e-07
8.46582e-05
6.40776e-07
8.46532e-05
6.75551e-07
8.46487e-05
7.13552e-07
8.46454e-05
7.54793e-07
8.46441e-05
7.99126e-07
8.4646e-05
8.46172e-07
8.46522e-05
8.95259e-07
8.46637e-05
9.45361e-07
8.46815e-05
9.95077e-07
8.47061e-05
1.04266e-06
8.47373e-05
1.08612e-06
1.12366e-06
8.47743e-05
8.69258e-05
3.75756e-08
8.69357e-05
1.07942e-07
8.69494e-05
1.6781e-07
8.69646e-05
2.16539e-07
8.69804e-05
2.56246e-07
8.69959e-05
2.89025e-07
8.70107e-05
3.16374e-07
8.70245e-05
3.39656e-07
8.7037e-05
3.60112e-07
8.70482e-05
3.78724e-07
8.7058e-05
3.96248e-07
8.70665e-05
4.13301e-07
8.70736e-05
4.30397e-07
8.70794e-05
4.47963e-07
8.70838e-05
4.66367e-07
8.70869e-05
4.85933e-07
8.70888e-05
5.06953e-07
8.70896e-05
5.29695e-07
8.70894e-05
5.54408e-07
8.70884e-05
5.81319e-07
8.70868e-05
6.10625e-07
8.70851e-05
6.42487e-07
8.70837e-05
6.77005e-07
8.7083e-05
7.142e-07
8.70839e-05
7.53971e-07
8.70869e-05
7.96067e-07
8.70931e-05
8.40037e-07
8.71031e-05
8.85196e-07
8.71179e-05
9.30605e-07
8.71379e-05
9.7508e-07
8.71633e-05
1.01725e-06
8.71938e-05
1.05563e-06
1.08906e-06
8.72284e-05
8.94087e-05
3.44299e-08
8.94174e-05
9.92643e-08
8.94297e-05
1.5549e-07
8.94439e-05
2.02367e-07
8.94588e-05
2.41325e-07
8.94737e-05
2.74055e-07
8.94882e-05
3.01873e-07
8.95019e-05
3.25963e-07
8.95146e-05
3.47418e-07
8.95262e-05
3.67137e-07
8.95366e-05
3.85834e-07
8.95458e-05
4.0409e-07
8.95538e-05
4.22393e-07
8.95607e-05
4.4115e-07
8.95663e-05
4.60707e-07
8.95709e-05
4.81367e-07
8.95744e-05
5.03394e-07
8.95771e-05
5.27022e-07
8.95791e-05
5.52458e-07
8.95805e-05
5.79877e-07
8.95817e-05
6.09416e-07
8.9583e-05
6.41164e-07
8.95849e-05
6.75143e-07
8.95878e-05
7.1129e-07
8.95923e-05
7.49434e-07
8.95991e-05
7.89262e-07
8.96089e-05
8.30304e-07
8.96222e-05
8.71914e-07
8.96395e-05
9.13272e-07
8.96612e-05
9.53408e-07
8.96871e-05
9.91268e-07
8.9717e-05
1.02579e-06
1.05624e-06
8.97498e-05
9.19626e-05
3.16617e-08
9.19703e-05
9.15397e-08
9.19816e-05
1.44264e-07
9.19948e-05
1.89133e-07
9.2009e-05
2.27113e-07
9.20235e-05
2.59549e-07
9.20378e-05
2.87579e-07
9.20515e-05
3.12233e-07
9.20645e-05
3.34467e-07
9.20765e-05
3.55095e-07
9.20876e-05
3.74779e-07
9.20976e-05
3.94061e-07
9.21066e-05
4.13395e-07
9.21146e-05
4.33164e-07
9.21216e-05
4.5369e-07
9.21277e-05
4.75246e-07
9.21331e-05
4.98069e-07
9.21377e-05
5.22357e-07
9.21419e-05
5.48277e-07
9.21458e-05
5.75954e-07
9.21498e-05
6.05474e-07
9.21541e-05
6.36866e-07
9.21591e-05
6.70093e-07
9.21654e-05
7.05036e-07
9.21733e-05
7.41476e-07
9.21835e-05
7.79083e-07
9.21964e-05
8.174e-07
9.22125e-05
8.55847e-07
9.2232e-05
8.9373e-07
9.22552e-05
9.30282e-07
9.22817e-05
9.64708e-07
9.23112e-05
9.9625e-07
1.0245e-06
9.2343e-05
9.45896e-05
2.91805e-08
9.45966e-05
8.45561e-08
9.4607e-05
1.33919e-07
9.46194e-05
1.76672e-07
9.46331e-05
2.13477e-07
9.46472e-05
2.45395e-07
9.46614e-05
2.73399e-07
9.46752e-05
2.98382e-07
9.46885e-05
3.21178e-07
9.47011e-05
3.42514e-07
9.47129e-05
3.62994e-07
9.47238e-05
3.83117e-07
9.47339e-05
4.03302e-07
9.47432e-05
4.239e-07
9.47517e-05
4.45206e-07
9.47595e-05
4.67463e-07
9.47667e-05
4.90876e-07
9.47734e-05
5.1561e-07
9.47799e-05
5.41792e-07
9.47863e-05
5.69507e-07
9.4793e-05
5.98794e-07
9.48002e-05
6.29636e-07
9.48084e-05
6.61954e-07
9.48178e-05
6.95592e-07
9.4829e-05
7.30315e-07
9.48423e-05
7.65792e-07
9.48581e-05
8.01604e-07
9.48767e-05
8.37248e-07
9.48983e-05
8.72156e-07
9.49228e-05
9.05729e-07
9.49501e-05
9.37386e-07
9.49798e-05
9.66595e-07
9.93167e-07
9.50111e-05
9.72918e-05
2.69154e-08
9.72982e-05
7.81394e-08
9.73079e-05
1.24265e-07
9.73197e-05
1.64823e-07
9.73329e-05
2.00281e-07
9.73468e-05
2.31475e-07
9.7361e-05
2.59232e-07
9.7375e-05
2.84319e-07
9.73888e-05
3.07462e-07
9.7402e-05
3.29303e-07
9.74146e-05
3.50385e-07
9.74265e-05
3.71162e-07
9.74378e-05
3.92012e-07
9.74485e-05
4.13255e-07
9.74585e-05
4.35151e-07
9.74681e-05
4.57915e-07
9.74772e-05
4.81721e-07
9.74861e-05
5.067e-07
9.7495e-05
5.32943e-07
9.7504e-05
5.605e-07
9.75134e-05
5.89373e-07
9.75235e-05
6.19511e-07
9.75347e-05
6.50806e-07
9.75472e-05
6.83086e-07
9.75614e-05
7.1611e-07
9.75776e-05
7.4957e-07
9.75961e-05
7.83093e-07
9.76171e-05
8.16254e-07
9.76407e-05
8.48599e-07
9.76667e-05
8.79669e-07
9.76951e-05
9.09046e-07
9.77253e-05
9.36364e-07
9.61579e-07
9.77569e-05
0.000100071
2.48104e-08
0.000100077
7.21454e-08
0.000100086
1.15133e-07
0.000100098
1.53431e-07
0.000100111
1.87388e-07
0.000100124
2.17669e-07
0.000100139
2.44968e-07
0.000100153
2.69945e-07
0.000100167
2.93225e-07
0.000100181
3.15369e-07
0.000100195
3.36859e-07
0.000100208
3.58099e-07
0.00010022
3.79428e-07
0.000100233
4.01128e-07
0.000100244
4.23428e-07
0.000100256
4.46512e-07
0.000100267
4.70522e-07
0.000100278
4.95557e-07
0.000100289
5.2168e-07
0.000100301
5.48907e-07
0.000100313
5.77214e-07
0.000100326
6.06527e-07
0.00010034
6.3672e-07
0.000100356
6.67616e-07
0.000100373
6.98984e-07
0.000100392
7.30544e-07
0.000100413
7.61974e-07
0.000100436
7.92923e-07
0.000100462
8.23033e-07
0.000100489
8.51961e-07
0.000100519
8.79406e-07
0.00010055
9.05122e-07
9.29156e-07
0.000100583
0.00010293
2.28186e-08
0.000102936
6.64511e-08
0.000102945
1.06367e-07
0.000102956
1.42343e-07
0.000102968
1.74659e-07
0.000102982
2.03849e-07
0.000102997
2.30492e-07
0.000103011
2.55152e-07
0.000103026
2.78363e-07
0.000103041
3.00611e-07
0.000103056
3.22315e-07
0.00010307
3.4383e-07
0.000103084
3.65452e-07
0.000103098
3.87426e-07
0.000103111
4.09948e-07
0.000103124
4.3317e-07
0.000103138
4.57205e-07
0.000103151
4.82124e-07
0.000103165
5.07962e-07
0.000103179
5.34712e-07
0.000103194
5.62328e-07
0.00010321
5.9072e-07
0.000103227
6.19757e-07
0.000103245
6.49264e-07
0.000103265
6.79026e-07
0.000103287
7.08798e-07
0.00010331
7.38305e-07
0.000103336
7.67263e-07
0.000103364
7.95393e-07
0.000103393
8.22438e-07
0.000103424
8.48189e-07
0.000103457
8.72479e-07
8.95407e-07
0.000103491
0.000105871
2.09011e-08
0.000105876
6.095e-08
0.000105885
9.78264e-08
0.000105896
1.31414e-07
0.000105908
1.61954e-07
0.000105922
1.89882e-07
0.000105937
2.1568e-07
0.000105952
2.39825e-07
0.000105968
2.62769e-07
0.000105984
2.84925e-07
0.000105999
3.06652e-07
0.000106015
3.28256e-07
0.00010603
3.49989e-07
0.000106046
3.72057e-07
0.000106061
3.94624e-07
0.000106076
4.17812e-07
0.000106092
4.41705e-07
0.000106108
4.6635e-07
0.000106124
4.91758e-07
0.000106141
5.17903e-07
0.000106158
5.44723e-07
0.000106177
5.72122e-07
0.000106197
5.99966e-07
0.000106218
6.28089e-07
0.000106241
6.563e-07
0.000106265
6.84382e-07
0.000106291
7.12109e-07
0.000106319
7.39249e-07
0.000106349
7.65589e-07
0.000106381
7.90936e-07
0.000106414
8.15145e-07
0.000106448
8.38102e-07
8.59931e-07
0.000106483
0.000108895
1.90224e-08
0.000108901
5.55462e-08
0.000108909
8.93798e-08
0.00010892
1.20501e-07
0.000108933
1.49132e-07
0.000108947
1.75633e-07
0.000108962
2.00404e-07
0.000108978
2.23843e-07
0.000108995
2.46327e-07
0.000109012
2.68201e-07
0.000109028
2.89766e-07
0.000109045
3.11276e-07
0.000109062
3.32942e-07
0.00010908
3.54933e-07
0.000109097
3.77377e-07
0.000109114
4.00369e-07
0.000109132
4.23967e-07
0.00010915
4.48194e-07
0.000109169
4.73043e-07
0.000109188
4.98472e-07
0.000109209
5.24411e-07
0.00010923
5.50759e-07
0.000109253
5.77386e-07
0.000109276
6.0414e-07
0.000109302
6.30848e-07
0.000109329
6.57326e-07
0.000109358
6.83385e-07
0.000109388
7.08842e-07
0.00010942
7.33528e-07
0.000109454
7.57302e-07
0.000109489
7.80059e-07
0.000109525
8.01722e-07
8.22419e-07
0.000109563
0.000112006
1.71516e-08
0.000112012
5.01518e-08
0.00011202
8.0902e-08
0.000112031
1.09463e-07
0.000112044
1.36047e-07
0.000112059
1.60959e-07
0.000112075
1.84526e-07
0.000112092
2.07076e-07
0.000112109
2.28915e-07
0.000112127
2.50325e-07
0.000112145
2.71548e-07
0.000112164
2.9279e-07
0.000112182
3.14219e-07
0.000112201
3.35966e-07
0.000112221
3.5813e-07
0.00011224
3.80776e-07
0.00011226
4.03937e-07
0.000112281
4.27618e-07
0.000112302
4.51794e-07
0.000112324
4.76415e-07
0.000112347
5.01402e-07
0.000112371
5.26654e-07
0.000112397
5.5205e-07
0.000112423
5.77448e-07
0.000112451
6.02698e-07
0.000112481
6.27642e-07
0.000112512
6.52124e-07
0.000112545
6.75996e-07
0.00011258
6.99126e-07
0.000112615
7.21407e-07
0.000112653
7.42763e-07
0.000112691
7.63135e-07
7.8265e-07
0.000112731
0.000115206
1.52582e-08
0.000115212
4.46825e-08
0.00011522
7.22704e-08
0.000115232
9.81556e-08
0.000115245
1.22551e-07
0.000115261
1.45711e-07
0.000115277
1.67903e-07
0.000115295
1.89387e-07
0.000115313
2.10404e-07
0.000115332
2.31174e-07
0.000115352
2.51885e-07
0.000115372
2.72693e-07
0.000115393
2.93725e-07
0.000115414
3.15075e-07
0.000115435
3.36811e-07
0.000115457
3.58971e-07
0.000115479
3.81568e-07
0.000115502
4.04589e-07
0.000115526
4.27995e-07
0.000115551
4.51727e-07
0.000115576
4.75704e-07
0.000115603
4.99827e-07
0.000115631
5.2398e-07
0.000115661
5.48038e-07
0.000115691
5.71869e-07
0.000115724
5.95336e-07
0.000115758
6.1831e-07
0.000115793
6.4067e-07
0.00011583
6.62312e-07
0.000115868
6.83152e-07
0.000115908
7.03132e-07
0.000115949
7.22204e-07
7.40483e-07
0.000115991
0.000118498
1.33131e-08
0.000118503
3.90546e-08
0.000118512
6.33614e-08
0.000118524
8.64339e-08
0.000118538
1.08487e-07
0.000118554
1.29733e-07
0.000118572
1.50382e-07
0.00011859
1.7063e-07
0.00011861
1.90659e-07
0.000118631
2.10625e-07
0.000118652
2.30662e-07
0.000118674
2.50881e-07
0.000118696
2.71365e-07
0.000118719
2.92176e-07
0.000118742
3.13349e-07
0.000118767
3.34899e-07
0.000118791
3.56818e-07
0.000118817
3.79077e-07
0.000118843
4.01628e-07
0.00011887
4.24405e-07
0.000118899
4.47325e-07
0.000118928
4.70292e-07
0.000118959
4.93198e-07
0.000118991
5.15932e-07
0.000119025
5.38374e-07
0.00011906
5.60411e-07
0.000119096
5.81931e-07
0.000119134
6.02836e-07
0.000119173
6.23039e-07
0.000119214
6.42474e-07
0.000119256
6.6109e-07
0.000119299
6.78849e-07
6.95846e-07
0.000119344
0.000121883
1.12854e-08
0.000121889
3.31813e-08
0.000121899
5.40454e-08
0.000121911
7.41419e-08
0.000121926
9.36874e-08
0.000121942
1.12856e-07
0.000121961
1.31799e-07
0.000121981
1.50652e-07
0.000122002
1.69533e-07
0.000122024
1.88542e-07
0.000122047
2.07759e-07
0.000122071
2.27246e-07
0.000122095
2.47046e-07
0.00012212
2.67187e-07
0.000122146
2.87676e-07
0.000122172
3.08504e-07
0.000122199
3.29645e-07
0.000122227
3.51056e-07
0.000122256
3.7268e-07
0.000122286
3.94446e-07
0.000122317
4.16271e-07
0.00012235
4.38062e-07
0.000122383
4.59722e-07
0.000122418
4.81145e-07
0.000122454
5.0223e-07
0.000122491
5.22875e-07
0.00012253
5.42987e-07
0.000122571
5.6248e-07
0.000122613
5.81285e-07
0.000122656
5.99341e-07
0.0001227
6.16608e-07
0.000122746
6.33045e-07
6.48734e-07
0.000122793
0.000125366
9.14241e-09
0.000125372
2.69681e-08
0.000125382
4.41812e-08
0.000125395
6.11097e-08
0.00012541
7.79709e-08
0.000125428
9.48954e-08
0.000125448
1.11975e-07
0.00012547
1.29283e-07
0.000125492
1.46874e-07
0.000125516
1.64788e-07
0.000125541
1.8305e-07
0.000125566
2.01677e-07
0.000125593
2.20672e-07
0.00012562
2.40028e-07
0.000125648
2.59726e-07
0.000125677
2.79734e-07
0.000125706
3.00011e-07
0.000125737
3.205e-07
0.000125768
3.41138e-07
0.000125801
3.61849e-07
0.000125835
3.8255e-07
0.000125869
4.03154e-07
0.000125906
4.23568e-07
0.000125943
4.43698e-07
0.000125982
4.63452e-07
0.000126022
4.82741e-07
0.000126063
5.01484e-07
0.000126106
5.19608e-07
0.000126151
5.37049e-07
0.000126196
5.53757e-07
0.000126243
5.69692e-07
0.000126291
5.84816e-07
5.9919e-07
0.000126341
0.000128947
6.84584e-09
0.000128954
2.03066e-08
0.000128965
3.36072e-08
0.000128979
4.71448e-08
0.000128995
6.11322e-08
0.000129015
7.56476e-08
0.000129036
9.07157e-08
0.000129059
1.06341e-07
0.000129083
1.22514e-07
0.000129109
1.39211e-07
0.000129135
1.56403e-07
0.000129163
1.74059e-07
0.000129192
1.92144e-07
0.000129221
2.10617e-07
0.000129251
2.29433e-07
0.000129283
2.4854e-07
0.000129315
2.6788e-07
0.000129348
2.87387e-07
0.000129382
3.06991e-07
0.000129417
3.26613e-07
0.000129454
3.46171e-07
0.000129491
3.65582e-07
0.00012953
3.84757e-07
0.00012957
4.03613e-07
0.000129611
4.22064e-07
0.000129654
4.40033e-07
0.000129698
4.57446e-07
0.000129743
4.7424e-07
0.00012979
4.90358e-07
0.000129838
5.05752e-07
0.000129887
5.20386e-07
0.000129938
5.3422e-07
5.47301e-07
0.00012999
0.000132632
4.35013e-09
0.000132639
1.30658e-08
0.00013265
2.21304e-08
0.000132665
3.20208e-08
0.000132684
4.2935e-08
0.000132704
5.48804e-08
0.000132727
6.78005e-08
0.000132752
8.16248e-08
0.000132778
9.62717e-08
0.000132806
1.11652e-07
0.000132835
1.2768e-07
0.000132864
1.44275e-07
0.000132895
1.61364e-07
0.000132927
1.78873e-07
0.00013296
1.96733e-07
0.000132993
2.14872e-07
0.000133028
2.33218e-07
0.000133064
2.51697e-07
0.0001331
2.70231e-07
0.000133138
2.88741e-07
0.000133177
3.07145e-07
0.000133217
3.25363e-07
0.000133259
3.43312e-07
0.000133302
3.60915e-07
0.000133346
3.78095e-07
0.000133391
3.9478e-07
0.000133437
4.10908e-07
0.000133485
4.26417e-07
0.000133534
4.41257e-07
0.000133585
4.55383e-07
0.000133636
4.6876e-07
0.000133689
4.81348e-07
4.93181e-07
0.000133743
0.000136421
1.59618e-09
0.000136429
5.07799e-09
0.000136442
9.50823e-09
0.000136458
1.5461e-08
0.000136478
2.30983e-08
0.000136501
3.23237e-08
0.000136525
4.29791e-08
0.000136552
5.4908e-08
0.00013658
6.7949e-08
0.00013661
8.19405e-08
0.000136641
9.67344e-08
0.000136673
1.12202e-07
0.000136706
1.28229e-07
0.00013674
1.44714e-07
0.000136776
1.61562e-07
0.000136812
1.78683e-07
0.000136849
1.95994e-07
0.000136887
2.1341e-07
0.000136927
2.30851e-07
0.000136967
2.48235e-07
0.000137009
2.65483e-07
0.000137052
2.82515e-07
0.000137096
2.99257e-07
0.000137141
3.15634e-07
0.000137188
3.31578e-07
0.000137235
3.47024e-07
0.000137284
3.61911e-07
0.000137335
3.76188e-07
0.000137386
3.89806e-07
0.000137439
4.02723e-07
0.000137493
4.14904e-07
0.000137548
4.26312e-07
4.36967e-07
0.000137604
0.000140319
-1.49549e-09
0.000140328
-3.88316e-09
0.000140342
-4.57872e-09
0.00014036
-2.88487e-09
0.000140382
1.27952e-09
0.000140407
7.65765e-09
0.000140434
1.59612e-08
0.000140463
2.59344e-08
0.000140493
3.73242e-08
0.000140525
4.98865e-08
0.000140559
6.34074e-08
0.000140593
7.77085e-08
0.000140629
9.26364e-08
0.000140665
1.08059e-07
0.000140703
1.23859e-07
0.000140742
1.39931e-07
0.000140782
1.56179e-07
0.000140823
1.72514e-07
0.000140865
1.88849e-07
0.000140908
2.05104e-07
0.000140952
2.212e-07
0.000140997
2.37064e-07
0.000141044
2.52621e-07
0.000141092
2.67807e-07
0.000141141
2.82555e-07
0.000141191
2.96808e-07
0.000141243
3.1051e-07
0.000141295
3.23614e-07
0.000141349
3.36074e-07
0.000141404
3.47852e-07
0.00014146
3.58912e-07
0.000141517
3.69221e-07
3.78787e-07
0.000141575
0.000144328
-5.0401e-09
0.000144338
-1.41417e-08
0.000144354
-2.05697e-08
0.000144375
-2.34739e-08
0.000144399
-2.29502e-08
0.000144426
-1.95057e-08
0.000144456
-1.35928e-08
0.000144487
-5.58352e-09
0.000144521
4.15785e-09
0.000144555
1.52915e-08
0.000144591
2.75352e-08
0.000144628
4.06597e-08
0.000144666
5.44753e-08
0.000144706
6.88195e-08
0.000144746
8.35554e-08
0.000144787
9.85627e-08
0.00014483
1.13737e-07
0.000144873
1.28983e-07
0.000144918
1.44213e-07
0.000144964
1.59346e-07
0.00014501
1.74307e-07
0.000145058
1.89023e-07
0.000145108
2.03429e-07
0.000145158
2.17461e-07
0.00014521
2.31061e-07
0.000145262
2.44175e-07
0.000145316
2.56755e-07
0.000145371
2.68754e-07
0.000145427
2.80133e-07
0.000145484
2.90855e-07
0.000145542
3.00888e-07
0.000145601
3.10201e-07
3.18797e-07
0.000145661
0.000148452
-9.21341e-09
0.000148464
-2.61916e-08
0.000148483
-3.90939e-08
0.000148506
-4.69093e-08
0.000148533
-5.01309e-08
0.000148563
-4.96523e-08
0.000148596
-4.61076e-08
0.00014863
-4.00003e-08
0.000148666
-3.18366e-08
0.000148704
-2.20698e-08
0.000148742
-1.10563e-08
0.000148782
9.26037e-10
0.000148823
1.365e-08
0.000148865
2.69275e-08
0.000148908
4.06035e-08
0.000148952
5.45477e-08
0.000148997
6.86488e-08
0.000149043
8.28088e-08
0.00014909
9.69404e-08
0.000149139
1.10964e-07
0.000149188
1.24808e-07
0.000149239
1.38405e-07
0.000149291
1.51694e-07
0.000149343
1.64616e-07
0.000149397
1.77119e-07
0.000149452
1.89155e-07
0.000149508
2.00679e-07
0.000149566
2.1165e-07
0.000149624
2.22031e-07
0.000149683
2.3179e-07
0.000149743
2.40895e-07
0.000149804
2.49318e-07
2.57053e-07
0.000149865
0.000152694
-1.42977e-08
0.000152709
-4.08323e-08
0.000152731
-6.11109e-08
0.000152758
-7.40169e-08
0.000152789
-8.09247e-08
0.000152822
-8.33232e-08
0.000152858
-8.20271e-08
0.000152896
-7.76871e-08
0.000152935
-7.09826e-08
0.000152976
-6.24873e-08
0.000153017
-5.26264e-08
0.00015306
-4.17235e-08
0.000153104
-3.00422e-08
0.000153148
-1.77933e-08
0.000153194
-5.14726e-09
0.000153241
7.75916e-09
0.000153289
2.081e-08
0.000153338
3.39077e-08
0.000153387
4.69662e-08
0.000153439
5.99108e-08
0.000153491
7.26729e-08
0.000153544
8.5192e-08
0.000153598
9.74114e-08
0.000153654
1.0928e-07
0.00015371
1.20751e-07
0.000153767
1.31782e-07
0.000153826
1.42332e-07
0.000153885
1.52366e-07
0.000153945
1.61853e-07
0.000154006
1.70762e-07
0.000154068
1.79068e-07
0.00015413
1.86748e-07
1.93796e-07
0.000154194
0.000157058
-2.08128e-08
0.000157077
-5.9366e-08
0.000157103
-8.80434e-08
0.000157135
-1.06046e-07
0.000157171
-1.16449e-07
0.000157209
-1.21448e-07
0.000157249
-1.22027e-07
0.000157291
-1.19098e-07
0.000157333
-1.13582e-07
0.000157377
-1.06172e-07
0.000157422
-9.73349e-08
0.000157467
-8.74288e-08
0.000157514
-7.67371e-08
0.000157562
-6.5485e-08
0.00015761
-5.38441e-08
0.00015766
-4.19546e-08
0.000157711
-2.99283e-08
0.000157763
-1.78619e-08
0.000157815
-5.8351e-09
0.000157869
6.08013e-09
0.000157924
1.78231e-08
0.00015798
2.93365e-08
0.000158037
4.05716e-08
0.000158095
5.14812e-08
0.000158153
6.20253e-08
0.000158213
7.21645e-08
0.000158273
8.18654e-08
0.000158335
9.10952e-08
0.000158397
9.98262e-08
0.000158459
1.08031e-07
0.000158523
1.15685e-07
0.000158587
1.22764e-07
1.29259e-07
0.000158651
0.000161548
-2.99802e-08
0.000161573
-8.44432e-08
0.000161606
-1.21582e-07
0.000161644
-1.43948e-07
0.000161685
-1.57755e-07
0.000161729
-1.6532e-07
0.000161775
-1.67541e-07
0.000161821
-1.65719e-07
0.000161869
-1.611e-07
0.000161917
-1.54488e-07
0.000161966
-1.46398e-07
0.000162016
-1.37223e-07
0.000162067
-1.27273e-07
0.000162118
-1.16778e-07
0.00016217
-1.05913e-07
0.000162223
-9.48126e-08
0.000162277
-8.35872e-08
0.000162331
-7.23258e-08
0.000162386
-6.1105e-08
0.000162442
-4.99885e-08
0.000162499
-3.9034e-08
0.000162557
-2.82906e-08
0.000162615
-1.78045e-08
0.000162674
-7.61523e-09
0.000162734
2.23916e-09
0.000162795
1.17269e-08
0.000162856
2.08173e-08
0.000162917
2.94849e-08
0.000162979
3.77048e-08
0.000163042
4.54577e-08
0.000163105
5.27257e-08
0.000163168
5.94968e-08
6.576e-08
0.000163232
0.000166167
-4.30577e-08
0.000166206
-1.2361e-07
0.000166252
-1.6779e-07
0.0001663
-1.92138e-07
0.000166351
-2.081e-07
0.000166402
-2.17237e-07
0.000166455
-2.20299e-07
0.000166509
-2.19027e-07
0.000166562
-2.14827e-07
0.000166616
-2.08487e-07
0.00016667
-2.00529e-07
0.000166725
-1.91389e-07
0.000166779
-1.81414e-07
0.000166833
-1.70862e-07
0.000166887
-1.59927e-07
0.000166941
-1.48765e-07
0.000166995
-1.37498e-07
0.000167049
-1.26224e-07
0.000167102
-1.15026e-07
0.000167156
-1.03968e-07
0.000167211
-9.31082e-08
0.000167265
-8.24921e-08
0.000167319
-7.21607e-08
0.000167374
-6.21484e-08
0.000167428
-5.24856e-08
0.000167483
-4.31986e-08
0.000167538
-3.43105e-08
0.000167594
-2.58415e-08
0.000167649
-1.78097e-08
0.000167705
-1.02318e-08
0.000167761
-3.12425e-09
0.000167817
3.49498e-09