/*--------------------------------*- C++ -*----------------------------------*\
| =========                 |                                                 |
| \\      /  F ield         | OpenFOAM: The Open Source CFD Toolbox           |
|  \\    /   O peration     | Version:  4.1                                   |
|   \\  /    A nd           | Web:      www.OpenFOAM.org                      |
|    \\/     M anipulation  |                                                 |
\*---------------------------------------------------------------------------*/
FoamFile
{
    version     2.0;
    format      ascii;
    class       volVectorField;
    location    "100";
    object      U;
}
// * * * * * * * * * * * * * * * * * * * * * * * * * * * * * * * * * * * * * //

dimensions      [0 1 -1 0 0 0 0];

internalField   nonuniform List<vector> 
6820
(
(7.30075 0.0105838 0)
(7.26061 0.014556 0)
(7.22705 0.011638 0)
(7.19792 0.00892838 0)
(7.17386 0.0073438 0)
(7.15308 0.00640079 0)
(7.13416 0.00580809 0)
(7.11662 0.00541919 0)
(7.10027 0.00514142 0)
(7.0849 0.00492655 0)
(7.07035 0.00475541 0)
(7.05647 0.00462022 0)
(7.04317 0.00451657 0)
(7.03034 0.00444166 0)
(7.0179 0.00439403 0)
(7.00576 0.00437337 0)
(6.99386 0.00438042 0)
(6.9821 0.00441711 0)
(6.9704 0.00448681 0)
(6.95869 0.0045948 0)
(6.94684 0.00474896 0)
(6.93476 0.0049611 0)
(6.92227 0.00524919 0)
(6.9092 0.00564141 0)
(6.89527 0.00618387 0)
(6.88008 0.00695698 0)
(6.86303 0.00810917 0)
(6.84293 0.00993715 0)
(6.81842 0.0131096 0)
(6.78289 0.0190862 0)
(6.73908 0.0314182 0)
(6.61472 0.0745612 0)
(6.58946 -0.021647 0)
(7.3396 0.0129577 0)
(7.34152 0.016847 0)
(7.32724 0.0138812 0)
(7.30699 0.0120496 0)
(7.28728 0.011029 0)
(7.26898 0.0101956 0)
(7.25175 0.00953798 0)
(7.23555 0.00904508 0)
(7.22031 0.00865983 0)
(7.20588 0.00834971 0)
(7.19214 0.00810257 0)
(7.17898 0.00791073 0)
(7.16632 0.00776805 0)
(7.15409 0.00767078 0)
(7.14223 0.00761736 0)
(7.13065 0.00760801 0)
(7.11931 0.00764464 0)
(7.10813 0.00773113 0)
(7.09706 0.00787372 0)
(7.08601 0.00808184 0)
(7.07493 0.0083693 0)
(7.06371 0.00875646 0)
(7.05225 0.0092739 0)
(7.04043 0.00996877 0)
(7.02809 0.0109174 0)
(7.01501 0.0122473 0)
(7.00095 0.0141961 0)
(6.98542 0.017181 0)
(6.96846 0.0222488 0)
(6.94826 0.0308738 0)
(6.93046 0.0501204 0)
(6.90935 0.0842471 0)
(6.94656 0.182751 0)
(7.33613 0.0108882 0)
(7.34459 0.0173626 0)
(7.3457 0.0179416 0)
(7.33994 0.0179806 0)
(7.33117 0.017558 0)
(7.32104 0.0167723 0)
(7.31014 0.0159972 0)
(7.29895 0.0153563 0)
(7.28778 0.0148307 0)
(7.27676 0.0143994 0)
(7.26591 0.0140533 0)
(7.25525 0.0137846 0)
(7.24478 0.013587 0)
(7.23447 0.0134575 0)
(7.2243 0.0133955 0)
(7.21425 0.0134031 0)
(7.20426 0.0134843 0)
(7.19431 0.0136462 0)
(7.18434 0.0138992 0)
(7.1743 0.0142587 0)
(7.16413 0.0147464 0)
(7.15374 0.0153936 0)
(7.14304 0.0162461 0)
(7.13192 0.0173724 0)
(7.12022 0.0188791 0)
(7.10776 0.0209336 0)
(7.09432 0.0238281 0)
(7.07954 0.0280226 0)
(7.06338 0.0345305 0)
(7.04519 0.0445697 0)
(7.02796 0.0625004 0)
(7.01172 0.0898125 0)
(7.02169 0.141669 0)
(7.33465 0.00790188 0)
(7.34187 0.0151668 0)
(7.34703 0.017541 0)
(7.34809 0.0188272 0)
(7.34655 0.0194028 0)
(7.34324 0.0193836 0)
(7.33846 0.0191284 0)
(7.33261 0.0188249 0)
(7.3261 0.0185218 0)
(7.31914 0.0182436 0)
(7.31188 0.0180106 0)
(7.3044 0.0178335 0)
(7.29677 0.017718 0)
(7.28902 0.0176689 0)
(7.28117 0.0176921 0)
(7.27322 0.0177944 0)
(7.26517 0.0179848 0)
(7.25699 0.0182752 0)
(7.24866 0.0186817 0)
(7.24014 0.0192259 0)
(7.23139 0.0199376 0)
(7.22235 0.0208585 0)
(7.21294 0.0220476 0)
(7.20308 0.0235909 0)
(7.19265 0.0256171 0)
(7.18153 0.0283203 0)
(7.16957 0.0320148 0)
(7.15663 0.0371657 0)
(7.14279 0.044636 0)
(7.12812 0.0553819 0)
(7.1146 0.0718556 0)
(7.1035 0.0937784 0)
(7.10512 0.12638 0)
(7.334 0.00604905 0)
(7.33935 0.0131197 0)
(7.3446 0.016153 0)
(7.34774 0.0180297 0)
(7.34932 0.0192898 0)
(7.34972 0.0199486 0)
(7.34889 0.0202587 0)
(7.34697 0.0204092 0)
(7.34421 0.0204733 0)
(7.34077 0.020495 0)
(7.33679 0.0205116 0)
(7.33235 0.0205489 0)
(7.32754 0.0206245 0)
(7.3224 0.0207527 0)
(7.31697 0.0209468 0)
(7.31128 0.0212201 0)
(7.30534 0.0215877 0)
(7.29913 0.022067 0)
(7.29266 0.0226802 0)
(7.28591 0.0234553 0)
(7.27884 0.0244297 0)
(7.27142 0.0256535 0)
(7.2636 0.027196 0)
(7.25532 0.0291544 0)
(7.24651 0.0316687 0)
(7.23711 0.03494 0)
(7.22707 0.0392701 0)
(7.21641 0.0450774 0)
(7.20535 0.0530231 0)
(7.1943 0.0637827 0)
(7.18474 0.0786116 0)
(7.17825 0.0970419 0)
(7.17932 0.120496 0)
(7.33365 0.00481147 0)
(7.33755 0.0113492 0)
(7.34206 0.0146817 0)
(7.34546 0.0168546 0)
(7.34795 0.0184702 0)
(7.34979 0.019541 0)
(7.35084 0.0202508 0)
(7.3511 0.0207707 0)
(7.35066 0.0211741 0)
(7.3496 0.0215039 0)
(7.34799 0.0217992 0)
(7.34588 0.0220911 0)
(7.34332 0.0224031 0)
(7.34037 0.022755 0)
(7.33704 0.0231655 0)
(7.33335 0.0236533 0)
(7.32933 0.0242381 0)
(7.32498 0.0249426 0)
(7.3203 0.025794 0)
(7.31527 0.0268257 0)
(7.30988 0.0280808 0)
(7.30411 0.0296156 0)
(7.29793 0.031505 0)
(7.29131 0.0338508 0)
(7.28422 0.0367927 0)
(7.27667 0.0405216 0)
(7.26868 0.0453024 0)
(7.26036 0.0514761 0)
(7.25203 0.0595055 0)
(7.24422 0.0698088 0)
(7.23803 0.0829275 0)
(7.23484 0.0983561 0)
(7.23674 0.115844 0)
(7.33343 0.00392427 0)
(7.33631 0.00986231 0)
(7.34004 0.0133278 0)
(7.34319 0.015658 0)
(7.34576 0.0174472 0)
(7.34794 0.0187508 0)
(7.34966 0.0197114 0)
(7.35085 0.0204813 0)
(7.35155 0.0211334 0)
(7.35178 0.0217078 0)
(7.35157 0.0222412 0)
(7.35093 0.0227644 0)
(7.34989 0.023302 0)
(7.34847 0.0238758 0)
(7.34668 0.0245069 0)
(7.34453 0.0252166 0)
(7.34202 0.0260279 0)
(7.33917 0.0269668 0)
(7.33597 0.0280638 0)
(7.33242 0.0293561 0)
(7.3285 0.0308899 0)
(7.32421 0.0327244 0)
(7.31954 0.0349358 0)
(7.31447 0.0376238 0)
(7.30902 0.0409187 0)
(7.30323 0.0449888 0)
(7.29718 0.05005 0)
(7.29105 0.0563566 0)
(7.28516 0.0642027 0)
(7.28003 0.0738018 0)
(7.27649 0.0852916 0)
(7.27555 0.0981612 0)
(7.2782 0.111682 0)
(7.33329 0.00327522 0)
(7.33544 0.0086344 0)
(7.3385 0.0121159 0)
(7.34132 0.0145326 0)
(7.34372 0.0164166 0)
(7.34586 0.0178626 0)
(7.3477 0.0189852 0)
(7.34919 0.0199193 0)
(7.35032 0.0207404 0)
(7.35113 0.0214897 0)
(7.35161 0.0222022 0)
(7.35175 0.0229082 0)
(7.35158 0.0236324 0)
(7.35108 0.0243971 0)
(7.35026 0.025224 0)
(7.34913 0.0261358 0)
(7.34767 0.027157 0)
(7.3459 0.028315 0)
(7.3438 0.0296423 0)
(7.34138 0.0311774 0)
(7.33862 0.0329676 0)
(7.33553 0.0350717 0)
(7.33211 0.0375631 0)
(7.32837 0.0405338 0)
(7.32435 0.0440985 0)
(7.3201 0.0483962 0)
(7.31574 0.0535906 0)
(7.31148 0.059855 0)
(7.30761 0.0673528 0)
(7.3046 0.0761527 0)
(7.30302 0.0861853 0)
(7.30359 0.0969739 0)
(7.30674 0.107774 0)
(7.33321 0.00279244 0)
(7.33484 0.007622 0)
(7.33735 0.0110384 0)
(7.33983 0.0134975 0)
(7.34203 0.0154393 0)
(7.34402 0.0169811 0)
(7.3458 0.0182186 0)
(7.34732 0.0192697 0)
(7.34857 0.0202112 0)
(7.34958 0.0210869 0)
(7.35033 0.0219319 0)
(7.35083 0.0227767 0)
(7.35108 0.0236469 0)
(7.35108 0.0245651 0)
(7.35081 0.0255539 0)
(7.35028 0.0266363 0)
(7.34948 0.0278376 0)
(7.3484 0.0291859 0)
(7.34705 0.0307139 0)
(7.34542 0.03246 0)
(7.34351 0.0344703 0)
(7.34132 0.0368007 0)
(7.33887 0.0395185 0)
(7.33619 0.0427045 0)
(7.33331 0.046454 0)
(7.33033 0.050875 0)
(7.32736 0.0560823 0)
(7.3246 0.0621809 0)
(7.32232 0.0692405 0)
(7.32087 0.0772378 0)
(7.32069 0.0860108 0)
(7.32221 0.0951392 0)
(7.3256 0.103995 0)
(7.33315 0.00242498 0)
(7.33441 0.00678366 0)
(7.33648 0.0100832 0)
(7.33865 0.01255 0)
(7.34064 0.0145255 0)
(7.34248 0.0161346 0)
(7.34415 0.0174603 0)
(7.34562 0.0186037 0)
(7.34687 0.0196396 0)
(7.34792 0.020614 0)
(7.34877 0.0215628 0)
(7.34941 0.0225171 0)
(7.34985 0.0235032 0)
(7.35008 0.024545 0)
(7.3501 0.0256655 0)
(7.3499 0.0268884 0)
(7.34948 0.0282391 0)
(7.34884 0.0297459 0)
(7.34797 0.0314407 0)
(7.34687 0.0333608 0)
(7.34555 0.0355496 0)
(7.34401 0.038058 0)
(7.34228 0.0409451 0)
(7.3404 0.0442786 0)
(7.33842 0.0481336 0)
(7.33642 0.0525883 0)
(7.33453 0.0577158 0)
(7.33292 0.063568 0)
(7.33181 0.0701523 0)
(7.33149 0.0773935 0)
(7.33222 0.0851006 0)
(7.33429 0.0929178 0)
(7.33772 0.100356 0)
(7.33312 0.00213827 0)
(7.33411 0.00608501 0)
(7.33582 0.0092373 0)
(7.33772 0.0116826 0)
(7.33952 0.0136727 0)
(7.34121 0.0153282 0)
(7.34277 0.016723 0)
(7.34417 0.017943 0)
(7.34538 0.0190585 0)
(7.34643 0.0201162 0)
(7.3473 0.0211523 0)
(7.348 0.0221983 0)
(7.34852 0.0232814 0)
(7.34887 0.0244262 0)
(7.34904 0.0256563 0)
(7.34903 0.0269958 0)
(7.34884 0.0284702 0)
(7.34846 0.0301071 0)
(7.3479 0.0319374 0)
(7.34717 0.0339962 0)
(7.34626 0.0363229 0)
(7.34519 0.0389626 0)
(7.344 0.0419651 0)
(7.34273 0.0453847 0)
(7.34142 0.0492769 0)
(7.34018 0.0536939 0)
(7.3391 0.0586755 0)
(7.33834 0.0642356 0)
(7.33807 0.0703434 0)
(7.3385 0.0768999 0)
(7.3398 0.0837182 0)
(7.34214 0.0905071 0)
(7.34546 0.0969018 0)
(7.33309 0.00190903 0)
(7.33388 0.00549775 0)
(7.33531 0.00848758 0)
(7.33697 0.0108877 0)
(7.3386 0.0128756 0)
(7.34016 0.0145602 0)
(7.34162 0.0160081 0)
(7.34294 0.0172919 0)
(7.34412 0.018476 0)
(7.34515 0.0196065 0)
(7.34603 0.0207193 0)
(7.34675 0.0218457 0)
(7.34733 0.0230134 0)
(7.34775 0.0242473 0)
(7.34801 0.0255714 0)
(7.34813 0.0270097 0)
(7.34809 0.0285873 0)
(7.3479 0.030331 0)
(7.34757 0.03227 0)
(7.3471 0.0344364 0)
(7.3465 0.0368653 0)
(7.34579 0.0395951 0)
(7.34502 0.0426663 0)
(7.34421 0.0461201 0)
(7.34343 0.049995 0)
(7.34276 0.0543218 0)
(7.34229 0.0591155 0)
(7.34215 0.0643645 0)
(7.34247 0.0700177 0)
(7.34339 0.0759707 0)
(7.34502 0.0820562 0)
(7.34744 0.0880424 0)
(7.35057 0.0936647 0)
(7.33307 0.00172138 0)
(7.33372 0.00499888 0)
(7.33492 0.00782123 0)
(7.33637 0.0101579 0)
(7.33785 0.0121289 0)
(7.33929 0.0138276 0)
(7.34065 0.0153139 0)
(7.34192 0.0166495 0)
(7.34306 0.0178922 0)
(7.34407 0.0190864 0)
(7.34496 0.020267 0)
(7.3457 0.021465 0)
(7.34632 0.0227076 0)
(7.3468 0.0240199 0)
(7.34715 0.0254256 0)
(7.34737 0.0269485 0)
(7.34746 0.0286129 0)
(7.34742 0.0304441 0)
(7.34727 0.032469 0)
(7.34702 0.0347165 0)
(7.34668 0.037217 0)
(7.34627 0.040002 0)
(7.34583 0.0431032 0)
(7.3454 0.0465501 0)
(7.34504 0.0503671 0)
(7.34482 0.0545683 0)
(7.34482 0.0591515 0)
(7.34513 0.0640898 0)
(7.34586 0.0693242 0)
(7.34709 0.0747553 0)
(7.3489 0.0802416 0)
(7.35131 0.0856027 0)
(7.35421 0.0906518 0)
(7.33306 0.00156433 0)
(7.3336 0.00456991 0)
(7.33462 0.00722611 0)
(7.3359 0.00948578 0)
(7.33724 0.0114271 0)
(7.33857 0.0131265 0)
(7.33985 0.0146377 0)
(7.34106 0.0160134 0)
(7.34218 0.0173047 0)
(7.34318 0.0185533 0)
(7.34407 0.0197933 0)
(7.34484 0.0210542 0)
(7.3455 0.0223628 0)
(7.34604 0.0237437 0)
(7.34647 0.0252202 0)
(7.34679 0.0268151 0)
(7.347 0.0285514 0)
(7.34711 0.0304529 0)
(7.34713 0.0325438 0)
(7.34708 0.0348494 0)
(7.34696 0.0373952 0)
(7.34682 0.0402064 0)
(7.34667 0.0433066 0)
(7.34657 0.0467154 0)
(7.34656 0.0504458 0)
(7.3467 0.0544999 0)
(7.34706 0.0588645 0)
(7.34771 0.0635053 0)
(7.34873 0.0683626 0)
(7.35017 0.0733483 0)
(7.35206 0.0783469 0)
(7.35441 0.0832211 0)
(7.35711 0.0878427 0)
(7.33305 0.00143014 0)
(7.3335 0.0041961 0)
(7.33438 0.006691 0)
(7.33552 0.00886415 0)
(7.33674 0.0107644 0)
(7.33797 0.0124529 0)
(7.33919 0.0139764 0)
(7.34035 0.0153806 0)
(7.34144 0.0167102 0)
(7.34244 0.0180041 0)
(7.34334 0.0192943 0)
(7.34415 0.0206093 0)
(7.34485 0.0219747 0)
(7.34546 0.0234144 0)
(7.34597 0.0249506 0)
(7.34639 0.0266052 0)
(7.34672 0.0283996 0)
(7.34697 0.0303553 0)
(7.34716 0.032494 0)
(7.34729 0.0348372 0)
(7.3474 0.0374056 0)
(7.34749 0.0402188 0)
(7.34761 0.0432931 0)
(7.34779 0.0466404 0)
(7.34808 0.0502649 0)
(7.34853 0.0541609 0)
(7.34918 0.0583086 0)
(7.3501 0.0626718 0)
(7.35134 0.0671948 0)
(7.35292 0.0718029 0)
(7.35485 0.0764046 0)
(7.35714 0.0808974 0)
(7.35968 0.0851967 0)
(7.33304 0.0013132 0)
(7.33343 0.00386565 0)
(7.3342 0.00620565 0)
(7.33521 0.00828575 0)
(7.33633 0.0101354 0)
(7.33749 0.0118021 0)
(7.33864 0.0133264 0)
(7.33977 0.0147478 0)
(7.34084 0.0161056 0)
(7.34184 0.0174348 0)
(7.34276 0.0187659 0)
(7.3436 0.0201255 0)
(7.34436 0.0215381 0)
(7.34503 0.0230263 0)
(7.34563 0.0246112 0)
(7.34615 0.0263131 0)
(7.34661 0.0281517 0)
(7.347 0.0301464 0)
(7.34735 0.0323158 0)
(7.34767 0.0346779 0)
(7.34798 0.0372491 0)
(7.3483 0.0400438 0)
(7.34866 0.0430726 0)
(7.34909 0.046341 0)
(7.34965 0.0498474 0)
(7.35035 0.053581 0)
(7.35126 0.0575194 0)
(7.35239 0.0616274 0)
(7.3538 0.0658561 0)
(7.35548 0.070144 0)
(7.35745 0.0744206 0)
(7.35969 0.0786108 0)
(7.3621 0.0826615 0)
(7.33304 0.00120934 0)
(7.33338 0.00356909 0)
(7.33406 0.00576084 0)
(7.33497 0.00774348 0)
(7.33601 0.00953411 0)
(7.33709 0.0111693 0)
(7.3382 0.0126838 0)
(7.33929 0.0141115 0)
(7.34035 0.0154869 0)
(7.34135 0.0168416 0)
(7.3423 0.0182037 0)
(7.34318 0.019598 0)
(7.344 0.0210477 0)
(7.34475 0.0225736 0)
(7.34543 0.0241957 0)
(7.34606 0.0259325 0)
(7.34664 0.0278017 0)
(7.34718 0.0298204 0)
(7.34769 0.0320045 0)
(7.34818 0.0343685 0)
(7.34868 0.0369251 0)
(7.34921 0.0396841 0)
(7.3498 0.0426516 0)
(7.35047 0.0458286 0)
(7.35126 0.0492096 0)
(7.35219 0.0527809 0)
(7.3533 0.0565202 0)
(7.35462 0.0603952 0)
(7.35617 0.0643644 0)
(7.35795 0.0683789 0)
(7.35995 0.0723853 0)
(7.36216 0.0763295 0)
(7.3645 0.0801811 0)
(7.33303 0.0011154 0)
(7.33334 0.0032987 0)
(7.33394 0.00534828 0)
(7.33478 0.0072304 0)
(7.33574 0.00895483 0)
(7.33678 0.0105496 0)
(7.33784 0.0120441 0)
(7.33891 0.0134677 0)
(7.33996 0.0148503 0)
(7.34098 0.0162202 0)
(7.34195 0.0176032 0)
(7.34288 0.0190221 0)
(7.34376 0.0204982 0)
(7.34458 0.0220509 0)
(7.34536 0.0236984 0)
(7.3461 0.0254575 0)
(7.3468 0.027344 0)
(7.34748 0.0293725 0)
(7.34814 0.0315562 0)
(7.34881 0.0339067 0)
(7.3495 0.0364331 0)
(7.35023 0.039142 0)
(7.35102 0.0420357 0)
(7.3519 0.0451121 0)
(7.3529 0.0483634 0)
(7.35403 0.0517751 0)
(7.35533 0.055326 0)
(7.35681 0.0589879 0)
(7.35848 0.0627267 0)
(7.36034 0.0665041 0)
(7.36239 0.0702806 0)
(7.3646 0.074018 0)
(7.36691 0.0777015 0)
(7.33303 0.00102889 0)
(7.3333 0.00304812 0)
(7.33386 0.00496057 0)
(7.33463 0.0067398 0)
(7.33554 0.0083916 0)
(7.33653 0.00993762 0)
(7.33756 0.0114025 0)
(7.33862 0.0128117 0)
(7.33967 0.0141913 0)
(7.3407 0.0155663 0)
(7.34171 0.0169597 0)
(7.34269 0.0183927 0)
(7.34363 0.0198845 0)
(7.34453 0.0214528 0)
(7.3454 0.023114 0)
(7.34625 0.024883 0)
(7.34707 0.0267737 0)
(7.34789 0.0287982 0)
(7.34871 0.0309675 0)
(7.34954 0.0332904 0)
(7.3504 0.0357732 0)
(7.35132 0.0384196 0)
(7.3523 0.0412295 0)
(7.35338 0.0441986 0)
(7.35456 0.047318 0)
(7.35588 0.0505736 0)
(7.35734 0.0539462 0)
(7.35896 0.0574118 0)
(7.36075 0.060943 0)
(7.36269 0.0645105 0)
(7.36479 0.0680855 0)
(7.36703 0.0716411 0)
(7.36935 0.0751735 0)
(7.33303 0.000947759 0)
(7.33328 0.002812 0)
(7.33379 0.00459103 0)
(7.33452 0.00626519 0)
(7.33538 0.00783843 0)
(7.33634 0.00932781 0)
(7.33735 0.010754 0)
(7.3384 0.012139 0)
(7.33946 0.0135053 0)
(7.34052 0.014875 0)
(7.34156 0.0162686 0)
(7.34259 0.0177051 0)
(7.3436 0.0192016 0)
(7.34458 0.0207742 0)
(7.34555 0.0224374 0)
(7.3465 0.0242041 0)
(7.34745 0.0260862 0)
(7.3484 0.028094 0)
(7.34936 0.0302358 0)
(7.35035 0.0325184 0)
(7.35138 0.0349457 0)
(7.35247 0.0375192 0)
(7.35363 0.0402371 0)
(7.35488 0.0430939 0)
(7.35624 0.0460804 0)
(7.35772 0.0491835 0)
(7.35933 0.0523862 0)
(7.36108 0.0556688 0)
(7.36297 0.0590095 0)
(7.36501 0.0623862 0)
(7.36717 0.0657782 0)
(7.36945 0.0691668 0)
(7.37181 0.0725547 0)
(7.33303 0.000870322 0)
(7.33326 0.00258574 0)
(7.33375 0.00423358 0)
(7.33444 0.00580028 0)
(7.33527 0.0072893 0)
(7.3362 0.00871444 0)
(7.3372 0.0100932 0)
(7.33825 0.0114443 0)
(7.33933 0.0127873 0)
(7.34041 0.0141415 0)
(7.3415 0.0155248 0)
(7.34258 0.0169541 0)
(7.34366 0.0184445 0)
(7.34472 0.0200102 0)
(7.34579 0.0216637 0)
(7.34685 0.0234163 0)
(7.34791 0.0252779 0)
(7.34899 0.0272566 0)
(7.3501 0.029359 0)
(7.35123 0.0315898 0)
(7.35242 0.0339511 0)
(7.35367 0.0364428 0)
(7.35499 0.039062 0)
(7.35641 0.0418025 0)
(7.35792 0.0446554 0)
(7.35955 0.0476089 0)
(7.3613 0.0506485 0)
(7.36317 0.0537579 0)
(7.36517 0.0569203 0)
(7.36729 0.0601188 0)
(7.36953 0.0633388 0)
(7.37187 0.0665671 0)
(7.37429 0.0698102 0)
(7.33303 0.000795105 0)
(7.33325 0.00236525 0)
(7.33371 0.00388261 0)
(7.33438 0.00533896 0)
(7.33519 0.00673809 0)
(7.33611 0.00809158 0)
(7.33711 0.00941421 0)
(7.33817 0.0107221 0)
(7.33926 0.0120321 0)
(7.34038 0.0133605 0)
(7.34151 0.0147233 0)
(7.34265 0.0161348 0)
(7.3438 0.0176083 0)
(7.34495 0.019156 0)
(7.34611 0.0207887 0)
(7.34727 0.0225157 0)
(7.34845 0.0243451 0)
(7.34966 0.0262834 0)
(7.3509 0.0283354 0)
(7.35218 0.030504 0)
(7.35351 0.0327901 0)
(7.35491 0.0351923 0)
(7.35639 0.0377069 0)
(7.35795 0.0403278 0)
(7.35961 0.0430465 0)
(7.36137 0.0458525 0)
(7.36325 0.0487336 0)
(7.36524 0.0516768 0)
(7.36734 0.0546686 0)
(7.36955 0.0576964 0)
(7.37187 0.0607496 0)
(7.37428 0.0638188 0)
(7.37677 0.0669124 0)
(7.33302 0.000720792 0)
(7.33324 0.00214684 0)
(7.33369 0.00353283 0)
(7.33434 0.00487522 0)
(7.33514 0.00617862 0)
(7.33606 0.00745306 0)
(7.33706 0.00871116 0)
(7.33814 0.0099667 0)
(7.33926 0.0112339 0)
(7.34042 0.0125267 0)
(7.3416 0.0138587 0)
(7.3428 0.015242 0)
(7.34402 0.0166881 0)
(7.34525 0.0182071 0)
(7.3465 0.019808 0)
(7.34777 0.0214985 0)
(7.34907 0.0232849 0)
(7.3504 0.0251722 0)
(7.35176 0.0271636 0)
(7.35318 0.0292607 0)
(7.35465 0.0314632 0)
(7.35619 0.0337691 0)
(7.3578 0.036174 0)
(7.3595 0.0386722 0)
(7.36129 0.0412558 0)
(7.36318 0.0439155 0)
(7.36518 0.0466412 0)
(7.36728 0.0494222 0)
(7.36948 0.0522478 0)
(7.37178 0.0551084 0)
(7.37418 0.0579962 0)
(7.37666 0.060904 0)
(7.37924 0.0638407 0)
(7.33302 0.00064616 0)
(7.33324 0.00192704 0)
(7.33368 0.00317914 0)
(7.33433 0.0044031 0)
(7.33513 0.00560453 0)
(7.33605 0.00679246 0)
(7.33707 0.00797769 0)
(7.33816 0.00917185 0)
(7.33932 0.0103869 0)
(7.34052 0.0116344 0)
(7.34176 0.0129256 0)
(7.34302 0.0142706 0)
(7.34432 0.015679 0)
(7.34563 0.0171589 0)
(7.34698 0.0187176 0)
(7.34835 0.0203612 0)
(7.34975 0.0220945 0)
(7.35119 0.0239209 0)
(7.35268 0.0258424 0)
(7.35422 0.0278595 0)
(7.35582 0.029971 0)
(7.35749 0.0321744 0)
(7.35924 0.0344652 0)
(7.36106 0.0368377 0)
(7.36298 0.0392849 0)
(7.36498 0.0417986 0)
(7.36709 0.0443703 0)
(7.36929 0.0469911 0)
(7.37158 0.0496524 0)
(7.37398 0.0523467 0)
(7.37646 0.0550677 0)
(7.37902 0.0578099 0)
(7.38168 0.0605814 0)
(7.33302 0.000570026 0)
(7.33324 0.00170247 0)
(7.33369 0.00281648 0)
(7.33433 0.00391648 0)
(7.33514 0.00500923 0)
(7.33608 0.00610303 0)
(7.33712 0.00720708 0)
(7.33824 0.00833108 0)
(7.33944 0.00948474 0)
(7.34069 0.0106775 0)
(7.34198 0.0119183 0)
(7.34331 0.0132154 0)
(7.34468 0.0145761 0)
(7.34608 0.016007 0)
(7.34751 0.0175137 0)
(7.34898 0.0191007 0)
(7.35049 0.0207713 0)
(7.35205 0.0225277 0)
(7.35365 0.0243708 0)
(7.35531 0.0263001 0)
(7.35703 0.028314 0)
(7.35882 0.0304093 0)
(7.36068 0.0325817 0)
(7.36263 0.0348257 0)
(7.36466 0.0371349 0)
(7.36677 0.0395021 0)
(7.36898 0.04192 0)
(7.37128 0.0443811 0)
(7.37366 0.0468783 0)
(7.37614 0.0494053 0)
(7.3787 0.051957 0)
(7.38134 0.0545285 0)
(7.38408 0.0571267 0)
(7.33302 0.000491197 0)
(7.33324 0.00146969 0)
(7.3337 0.00243963 0)
(7.33436 0.00340901 0)
(7.33518 0.00438577 0)
(7.33614 0.00537758 0)
(7.33721 0.0063922 0)
(7.33837 0.00743743 0)
(7.33961 0.00852091 0)
(7.34091 0.0096499 0)
(7.34227 0.0108312 0)
(7.34367 0.0120709 0)
(7.34511 0.0133746 0)
(7.3466 0.0147472 0)
(7.34812 0.0161926 0)
(7.34969 0.0177137 0)
(7.3513 0.0193128 0)
(7.35295 0.0209909 0)
(7.35467 0.0227478 0)
(7.35644 0.0245825 0)
(7.35827 0.0264926 0)
(7.36017 0.0284748 0)
(7.36215 0.0305248 0)
(7.3642 0.0326374 0)
(7.36633 0.0348067 0)
(7.36855 0.0370264 0)
(7.37085 0.0392899 0)
(7.37324 0.0415908 0)
(7.37571 0.0439231 0)
(7.37826 0.0462811 0)
(7.3809 0.0486603 0)
(7.38362 0.051056 0)
(7.38643 0.0534739 0)
(7.33303 0.000408407 0)
(7.33325 0.00122505 0)
(7.33372 0.00204304 0)
(7.3344 0.00287388 0)
(7.33525 0.00372664 0)
(7.33624 0.00460837 0)
(7.33734 0.00552534 0)
(7.33855 0.00648347 0)
(7.33984 0.00748831 0)
(7.3412 0.00854492 0)
(7.34262 0.00965797 0)
(7.34409 0.0108317 0)
(7.34561 0.0120697 0)
(7.34718 0.0133752 0)
(7.34879 0.0147505 0)
(7.35045 0.0161975 0)
(7.35216 0.017717 0)
(7.35392 0.0193091 0)
(7.35573 0.0209728 0)
(7.35761 0.0227064 0)
(7.35954 0.0245072 0)
(7.36155 0.0263717 0)
(7.36363 0.0282957 0)
(7.36578 0.0302741 0)
(7.36801 0.0323015 0)
(7.37032 0.0343722 0)
(7.3727 0.0364804 0)
(7.37517 0.0386202 0)
(7.37772 0.0407862 0)
(7.38035 0.0429733 0)
(7.38306 0.0451772 0)
(7.38584 0.0473932 0)
(7.38872 0.0496253 0)
(7.33303 0.000320242 0)
(7.33326 0.00096448 0)
(7.33375 0.00162051 0)
(7.33445 0.00230349 0)
(7.33534 0.00302354 0)
(7.33637 0.00378688 0)
(7.33753 0.0045981 0)
(7.33879 0.00546114 0)
(7.34014 0.00637937 0)
(7.34156 0.00735563 0)
(7.34305 0.00839244 0)
(7.34459 0.009492 0)
(7.34619 0.0106562 0)
(7.34783 0.0118866 0)
(7.34953 0.0131841 0)
(7.35128 0.0145492 0)
(7.35308 0.0159818 0)
(7.35493 0.0174809 0)
(7.35685 0.0190451 0)
(7.35882 0.0206719 0)
(7.36085 0.0223585 0)
(7.36295 0.0241011 0)
(7.36513 0.0258956 0)
(7.36737 0.0277371 0)
(7.36969 0.0296206 0)
(7.37208 0.0315409 0)
(7.37455 0.0334924 0)
(7.37709 0.03547 0)
(7.37971 0.0374685 0)
(7.3824 0.0394832 0)
(7.38517 0.0415096 0)
(7.38801 0.043543 0)
(7.39094 0.045586 0)
(7.33303 0.000225033 0)
(7.33328 0.000683192 0)
(7.33379 0.00116482 0)
(7.33453 0.00168909 0)
(7.33547 0.00226703 0)
(7.33655 0.00290354 0)
(7.33776 0.00360115 0)
(7.33908 0.0043616 0)
(7.34049 0.00518591 0)
(7.34198 0.0060746 0)
(7.34354 0.0070279 0)
(7.34516 0.00804604 0)
(7.34684 0.00912913 0)
(7.34856 0.0102771 0)
(7.35035 0.0114896 0)
(7.35218 0.0127659 0)
(7.35407 0.0141049 0)
(7.35601 0.0155049 0)
(7.35801 0.0169638 0)
(7.36008 0.0184789 0)
(7.3622 0.0200468 0)
(7.36439 0.0216639 0)
(7.36665 0.0233259 0)
(7.36898 0.0250283 0)
(7.37137 0.0267662 0)
(7.37384 0.0285348 0)
(7.37638 0.0303289 0)
(7.37899 0.0321436 0)
(7.38167 0.0339741 0)
(7.38442 0.0358155 0)
(7.38724 0.0376636 0)
(7.39013 0.0395135 0)
(7.39311 0.0413663 0)
(7.33303 0.000120697 0)
(7.3333 0.000375238 0)
(7.33384 0.000667109 0)
(7.33464 0.00102023 0)
(7.33563 0.00144607 0)
(7.33678 0.00194736 0)
(7.33806 0.00252395 0)
(7.33945 0.003175 0)
(7.34093 0.00389897 0)
(7.34249 0.0046938 0)
(7.34412 0.00555739 0)
(7.34582 0.0064879 0)
(7.34757 0.00748366 0)
(7.34938 0.00854303 0)
(7.35124 0.00966437 0)
(7.35316 0.0108458 0)
(7.35513 0.0120855 0)
(7.35716 0.0133809 0)
(7.35925 0.0147294 0)
(7.3614 0.016128 0)
(7.3636 0.0175732 0)
(7.36588 0.0190611 0)
(7.36821 0.0205878 0)
(7.37061 0.0221486 0)
(7.37308 0.0237392 0)
(7.37562 0.0253547 0)
(7.37822 0.0269904 0)
(7.38088 0.0286416 0)
(7.38362 0.0303035 0)
(7.38642 0.0319716 0)
(7.38928 0.0336414 0)
(7.39221 0.035308 0)
(7.39522 0.0369713 0)
(7.33303 4.47523e-06 0)
(7.33332 3.28196e-05 0)
(7.33392 0.000116064 0)
(7.33478 0.000283917 0)
(7.33585 0.000547358 0)
(7.33707 0.000905459 0)
(7.33842 0.00135447 0)
(7.33989 0.00189044 0)
(7.34145 0.00250872 0)
(7.34309 0.00320433 0)
(7.3448 0.00397268 0)
(7.34658 0.0048099 0)
(7.34841 0.00571261 0)
(7.3503 0.00667777 0)
(7.35224 0.00770247 0)
(7.35424 0.00878397 0)
(7.35629 0.00991942 0)
(7.3584 0.0111059 0)
(7.36056 0.0123403 0)
(7.36279 0.0136192 0)
(7.36507 0.014939 0)
(7.36742 0.0162958 0)
(7.36982 0.0176857 0)
(7.37229 0.0191042 0)
(7.37482 0.0205471 0)
(7.37742 0.0220098 0)
(7.38008 0.0234878 0)
(7.38279 0.0249765 0)
(7.38557 0.0264714 0)
(7.38841 0.0279679 0)
(7.39131 0.0294617 0)
(7.39427 0.0309478 0)
(7.39729 0.032425 0)
(7.33304 -0.000127506 0)
(7.33336 -0.00035489 0)
(7.33402 -0.000503474 0)
(7.33497 -0.000536391 0)
(7.33613 -0.00044552 0)
(7.33744 -0.000237929 0)
(7.33889 7.81713e-05 0)
(7.34044 0.000495369 0)
(7.34209 0.00100533 0)
(7.34381 0.00159942 0)
(7.3456 0.00227007 0)
(7.34746 0.00301108 0)
(7.34937 0.00381723 0)
(7.35134 0.00468399 0)
(7.35336 0.00560735 0)
(7.35543 0.0065837 0)
(7.35756 0.0076096 0)
(7.35975 0.00868167 0)
(7.36199 0.00979649 0)
(7.36428 0.0109506 0)
(7.36664 0.0121402 0)
(7.36905 0.0133617 0)
(7.37152 0.0146111 0)
(7.37405 0.0158842 0)
(7.37664 0.017177 0)
(7.37928 0.0184851 0)
(7.38198 0.0198043 0)
(7.38475 0.0211302 0)
(7.38756 0.0224584 0)
(7.39043 0.0237845 0)
(7.39336 0.0251043 0)
(7.39633 0.026413 0)
(7.39937 0.0277087 0)
(7.33304 -0.000281 0)
(7.33341 -0.000803849 0)
(7.33416 -0.001213 0)
(7.33523 -0.00146243 0)
(7.3365 -0.00155211 0)
(7.33792 -0.00150045 0)
(7.33947 -0.00132222 0)
(7.34113 -0.00102877 0)
(7.34287 -0.000632217 0)
(7.34469 -0.00014452 0)
(7.34657 0.000424211 0)
(7.3485 0.00106572 0)
(7.35049 0.00177303 0)
(7.35254 0.00254008 0)
(7.35463 0.00336164 0)
(7.35678 0.00423309 0)
(7.35898 0.00515026 0)
(7.36123 0.0061092 0)
(7.36354 0.00710615 0)
(7.3659 0.00813736 0)
(7.36832 0.00919913 0)
(7.3708 0.0102877 0)
(7.37332 0.0113992 0)
(7.37591 0.0125298 0)
(7.37855 0.0136755 0)
(7.38124 0.0148323 0)
(7.38398 0.0159963 0)
(7.38678 0.0171632 0)
(7.38963 0.018329 0)
(7.39252 0.0194895 0)
(7.39546 0.0206406 0)
(7.39845 0.0217775 0)
(7.40149 0.022898 0)
(7.33305 -0.00046513 0)
(7.33349 -0.00133812 0)
(7.33437 -0.00204374 0)
(7.33558 -0.0025267 0)
(7.337 -0.00280194 0)
(7.33856 -0.00290251 0)
(7.34023 -0.0028519 0)
(7.342 -0.00266987 0)
(7.34385 -0.0023767 0)
(7.34577 -0.0019899 0)
(7.34774 -0.00152255 0)
(7.34976 -0.000984543 0)
(7.35183 -0.000383958 0)
(7.35396 0.000272571 0)
(7.35613 0.000979521 0)
(7.35835 0.0017322 0)
(7.36062 0.00252641 0)
(7.36295 0.00335827 0)
(7.36532 0.00422407 0)
(7.36775 0.00512021 0)
(7.37022 0.0060431 0)
(7.37275 0.00698917 0)
(7.37534 0.00795479 0)
(7.37797 0.0089363 0)
(7.38065 0.00992999 0)
(7.38338 0.0109321 0)
(7.38616 0.0119389 0)
(7.38899 0.0129465 0)
(7.39186 0.0139511 0)
(7.39477 0.0149487 0)
(7.39772 0.0159355 0)
(7.40071 0.0169074 0)
(7.40374 0.0178618 0)
(7.33306 -0.000696811 0)
(7.3336 -0.00199773 0)
(7.33467 -0.00303233 0)
(7.3361 -0.00376037 0)
(7.33771 -0.00424255 0)
(7.33944 -0.00452547 0)
(7.34126 -0.00462778 0)
(7.34317 -0.00457086 0)
(7.34514 -0.00438276 0)
(7.34715 -0.00408808 0)
(7.34922 -0.00370495 0)
(7.35133 -0.00324749 0)
(7.35348 -0.00272729 0)
(7.35569 -0.00215369 0)
(7.35794 -0.00153403 0)
(7.36024 -0.000874209 0)
(7.36258 -0.000179123 0)
(7.36497 0.000547009 0)
(7.36742 0.00130048 0)
(7.3699 0.00207782 0)
(7.37244 0.00287581 0)
(7.37503 0.00369125 0)
(7.37766 0.00452104 0)
(7.38034 0.00536202 0)
(7.38306 0.00621105 0)
(7.38582 0.00706489 0)
(7.38862 0.00792028 0)
(7.39147 0.00877387 0)
(7.39435 0.00962228 0)
(7.39726 0.010462 0)
(7.40021 0.0112895 0)
(7.40318 0.012101 0)
(7.40619 0.0128936 0)
(7.33308 -0.00100463 0)
(7.33381 -0.00288058 0)
(7.33518 -0.00427044 0)
(7.33688 -0.0051643 0)
(7.33871 -0.00574415 0)
(7.34064 -0.00611861 0)
(7.34267 -0.00632128 0)
(7.34477 -0.00637865 0)
(7.34691 -0.00632007 0)
(7.34908 -0.00616699 0)
(7.35129 -0.00593293 0)
(7.35354 -0.00562826 0)
(7.35582 -0.00526196 0)
(7.35813 -0.00484164 0)
(7.36047 -0.00437364 0)
(7.36285 -0.00386343 0)
(7.36527 -0.00331589 0)
(7.36773 -0.00273545 0)
(7.37022 -0.00212619 0)
(7.37274 -0.0014919 0)
(7.37531 -0.000836162 0)
(7.37791 -0.000162447 0)
(7.38054 0.000525896 0)
(7.38321 0.00122558 0)
(7.38591 0.00193337 0)
(7.38864 0.0026461 0)
(7.39139 0.00336061 0)
(7.39418 0.00407373 0)
(7.39699 0.00478235 0)
(7.39982 0.00548332 0)
(7.40267 0.00617355 0)
(7.40553 0.00684996 0)
(7.40842 0.00751006 0)
(7.33311 -0.00139866 0)
(7.33418 -0.00405748 0)
(7.33615 -0.00605986 0)
(7.33838 -0.00740617 0)
(7.34059 -0.00828076 0)
(7.34282 -0.00879185 0)
(7.34512 -0.00901629 0)
(7.34747 -0.00903563 0)
(7.34984 -0.00891571 0)
(7.35222 -0.00869802 0)
(7.35461 -0.00840874 0)
(7.357 -0.00806625 0)
(7.35939 -0.00768336 0)
(7.36178 -0.00726839 0)
(7.36416 -0.00682675 0)
(7.36654 -0.00636213 0)
(7.36892 -0.0058773 0)
(7.3713 -0.00537443 0)
(7.37368 -0.00485543 0)
(7.37606 -0.00432209 0)
(7.37845 -0.00377626 0)
(7.38084 -0.00321979 0)
(7.38323 -0.00265471 0)
(7.38564 -0.00208309 0)
(7.38805 -0.00150717 0)
(7.39047 -0.000929237 0)
(7.3929 -0.000351694 0)
(7.39533 0.000223021 0)
(7.39778 0.000792342 0)
(7.40023 0.00135367 0)
(7.40269 0.00190426 0)
(7.40516 0.00244123 0)
(7.40764 0.00296197 0)
(7.33312 -0.00224852 0)
(7.33488 -0.00510699 0)
(7.33803 -0.0067011 0)
(7.34153 -0.0079985 0)
(7.34494 -0.00921021 0)
(7.34825 -0.0101956 0)
(7.35141 -0.0109123 0)
(7.35433 -0.011407 0)
(7.357 -0.0117198 0)
(7.35943 -0.0118716 0)
(7.36165 -0.0118824 0)
(7.36368 -0.0117747 0)
(7.36553 -0.01157 0)
(7.36723 -0.0112857 0)
(7.36881 -0.0109369 0)
(7.37028 -0.010536 0)
(7.37166 -0.0100936 0)
(7.37298 -0.00961844 0)
(7.37424 -0.00911763 0)
(7.37546 -0.00859723 0)
(7.37666 -0.00806224 0)
(7.37784 -0.00751693 0)
(7.37901 -0.00696492 0)
(7.38018 -0.00640939 0)
(7.38136 -0.00585313 0)
(7.38255 -0.00529869 0)
(7.38375 -0.0047484 0)
(7.38497 -0.00420444 0)
(7.38621 -0.00366888 0)
(7.38748 -0.00314369 0)
(7.38876 -0.0026308 0)
(7.39006 -0.00213203 0)
(7.39139 -0.00164884 0)
(7.3363 -0.00648596 0)
(7.34556 -0.0133949 0)
(7.35343 -0.0155357 0)
(7.35891 -0.0159805 0)
(7.36275 -0.0158845 0)
(7.36536 -0.0154087 0)
(7.3668 -0.0146819 0)
(7.36717 -0.0138697 0)
(7.36667 -0.0130646 0)
(7.36553 -0.0122941 0)
(7.36389 -0.0115646 0)
(7.3619 -0.0108783 0)
(7.35965 -0.0102338 0)
(7.35724 -0.00962707 0)
(7.35474 -0.00905278 0)
(7.35221 -0.0085061 0)
(7.34969 -0.00798285 0)
(7.34721 -0.00747955 0)
(7.34481 -0.00699339 0)
(7.3425 -0.00652219 0)
(7.34029 -0.00606439 0)
(7.33821 -0.00561891 0)
(7.33625 -0.0051851 0)
(7.33442 -0.00476265 0)
(7.33272 -0.00435157 0)
(7.33116 -0.00395208 0)
(7.32974 -0.00356464 0)
(7.32845 -0.00318984 0)
(7.32728 -0.0028284 0)
(7.32625 -0.00248115 0)
(7.32534 -0.00214889 0)
(7.32456 -0.00183251 0)
(7.32391 -0.0015324 0)
(7.32509 -0.00545199 0)
(7.31341 -0.0120699 0)
(7.29945 -0.0149484 0)
(7.28322 -0.0159971 0)
(7.26735 -0.016135 0)
(7.25289 -0.0156566 0)
(7.23973 -0.0147735 0)
(7.22771 -0.0136852 0)
(7.21682 -0.0125268 0)
(7.20701 -0.0113724 0)
(7.19819 -0.0102627 0)
(7.19026 -0.00922041 0)
(7.18313 -0.0082567 0)
(7.17671 -0.00737407 0)
(7.17093 -0.00657007 0)
(7.16574 -0.0058396 0)
(7.16108 -0.00517638 0)
(7.1569 -0.00457373 0)
(7.15315 -0.00402515 0)
(7.1498 -0.00352456 0)
(7.14681 -0.00306655 0)
(7.14417 -0.00264632 0)