/*--------------------------------*- C++ -*----------------------------------*\
| =========                 |                                                 |
| \\      /  F ield         | OpenFOAM: The Open Source CFD Toolbox           |
|  \\    /   O peration     | Version:  4.1                                   |
|   \\  /    A nd           | Web:      www.OpenFOAM.org                      |
|    \\/     M anipulation  |                                                 |
\*---------------------------------------------------------------------------*/
FoamFile
{
    version     2.0;
    format      ascii;
    class       volScalarField;
    location    "1400";
    object      k;
}
// * * * * * * * * * * * * * * * * * * * * * * * * * * * * * * * * * * * * * //

dimensions      [0 2 -2 0 0 0 0];

internalField   nonuniform List<scalar> 
6820
(
0.257082
0.434211
0.59852
0.709382
0.778145
0.818049
0.838548
0.845896
0.844371
0.836964
0.825768
0.812248
0.797427
0.782016
0.7665
0.751203
0.736339
0.722039
0.708382
0.695405
0.68312
0.671521
0.66059
0.650301
0.640625
0.631528
0.622975
0.614936
0.607353
0.600312
0.593209
0.588713
0.574504
0.811277
1.44613
1.51874
1.38792
1.22323
1.07762
0.95922
0.864569
0.788642
0.727157
0.676842
0.635256
0.600578
0.571431
0.546763
0.525757
0.507776
0.49231
0.478953
0.467376
0.457309
0.44853
0.440857
0.434136
0.428238
0.423055
0.418497
0.414488
0.410961
0.40788
0.40515
0.402937
0.400681
0.368869
0.66416
0.797428
0.829397
0.816589
0.786285
0.750411
0.713991
0.679044
0.646311
0.616001
0.588103
0.562514
0.539088
0.517663
0.498077
0.480173
0.463799
0.44882
0.435107
0.422543
0.411025
0.400457
0.390751
0.381831
0.373626
0.366073
0.359115
0.352701
0.346787
0.341327
0.336302
0.331651
0.240027
0.336287
0.412169
0.460222
0.487105
0.500012
0.504036
0.502508
0.497533
0.490423
0.482012
0.472846
0.463295
0.45361
0.443967
0.434483
0.425241
0.416294
0.407675
0.399404
0.391489
0.383932
0.37673
0.369874
0.363355
0.357161
0.351278
0.345693
0.340392
0.335363
0.330591
0.326065
0.321765
0.214145
0.250649
0.284542
0.31208
0.332947
0.348027
0.358469
0.365345
0.369528
0.371681
0.372296
0.371744
0.370308
0.368202
0.365595
0.362616
0.359368
0.355933
0.352374
0.348742
0.345077
0.341411
0.337769
0.33417
0.330629
0.327157
0.323764
0.320455
0.317236
0.314109
0.311076
0.308139
0.305297
0.20564
0.221937
0.238617
0.25366
0.26644
0.276904
0.285273
0.29185
0.296934
0.300784
0.303614
0.305602
0.306896
0.307615
0.307861
0.307715
0.307246
0.306513
0.305564
0.304438
0.303171
0.301792
0.300324
0.298789
0.297203
0.295582
0.293938
0.292282
0.290622
0.288965
0.28732
0.285689
0.284081
0.202357
0.210378
0.219404
0.228106
0.235957
0.242783
0.248605
0.253514
0.257621
0.261026
0.263824
0.266096
0.267914
0.269339
0.270425
0.271218
0.271758
0.272079
0.272212
0.272182
0.272013
0.271724
0.271333
0.270855
0.270303
0.269689
0.269023
0.268314
0.267571
0.266799
0.266006
0.265196
0.264376
0.201008
0.2051
0.210232
0.215526
0.22054
0.225078
0.229098
0.232621
0.235689
0.238346
0.240635
0.242597
0.244268
0.245681
0.246865
0.247846
0.248647
0.249289
0.249788
0.250162
0.250425
0.25059
0.250667
0.250668
0.250602
0.250476
0.250298
0.250074
0.249811
0.249513
0.249187
0.248835
0.248464
0.200424
0.202508
0.205459
0.208754
0.21204
0.21513
0.217953
0.220495
0.222768
0.224789
0.226579
0.228159
0.229548
0.230765
0.231826
0.232746
0.23354
0.23422
0.234797
0.235281
0.235681
0.236006
0.236262
0.236458
0.236599
0.236691
0.236738
0.236746
0.236719
0.23666
0.236574
0.236463
0.236331
0.200163
0.201193
0.202864
0.204904
0.207067
0.20919
0.211193
0.213044
0.214736
0.216272
0.217659
0.218908
0.220029
0.221031
0.221926
0.222722
0.223428
0.224051
0.224599
0.225079
0.225496
0.225856
0.226164
0.226425
0.226643
0.226822
0.226965
0.227076
0.227157
0.227213
0.227244
0.227255
0.227246
0.200044
0.20052
0.201431
0.202661
0.20406
0.205505
0.206921
0.208268
0.209528
0.210694
0.211766
0.212747
0.213641
0.214454
0.215192
0.215858
0.21646
0.217002
0.217488
0.217924
0.218312
0.218657
0.218963
0.219231
0.219467
0.219671
0.219848
0.219999
0.220126
0.220232
0.220318
0.220386
0.220439
0.199989
0.200177
0.20064
0.201347
0.20222
0.203178
0.204159
0.205125
0.206054
0.206932
0.207754
0.208519
0.209226
0.209879
0.210478
0.211028
0.21153
0.211989
0.212406
0.212786
0.21313
0.213441
0.213722
0.213974
0.214201
0.214404
0.214584
0.214744
0.214885
0.215008
0.215116
0.21521
0.215291
0.199965
0.200004
0.200209
0.200585
0.201099
0.201706
0.202361
0.203034
0.203702
0.204351
0.204971
0.205558
0.206111
0.206627
0.207107
0.207553
0.207966
0.208347
0.208698
0.209021
0.209317
0.209589
0.209837
0.210063
0.21027
0.210457
0.210627
0.210781
0.21092
0.211045
0.211158
0.211259
0.211349
0.199954
0.199918
0.199979
0.20015
0.200426
0.200783
0.201198
0.201645
0.202107
0.20257
0.203025
0.203465
0.203886
0.204286
0.204664
0.205019
0.205352
0.205662
0.205951
0.20622
0.206469
0.2067
0.206913
0.20711
0.207291
0.207458
0.207611
0.207752
0.207881
0.207999
0.208107
0.208206
0.208296
0.199949
0.199877
0.199858
0.199907
0.20003
0.200217
0.200456
0.200733
0.201034
0.201348
0.201667
0.201984
0.202294
0.202594
0.202883
0.203158
0.203419
0.203665
0.203898
0.204116
0.204321
0.204512
0.20469
0.204857
0.205011
0.205155
0.205289
0.205413
0.205528
0.205634
0.205733
0.205824
0.205908
0.199947
0.199857
0.199796
0.199776
0.199803
0.199877
0.199994
0.200145
0.200323
0.20052
0.200729
0.200944
0.20116
0.201375
0.201586
0.201791
0.201988
0.202178
0.202358
0.20253
0.202693
0.202846
0.202991
0.203127
0.203256
0.203376
0.203488
0.203594
0.203693
0.203785
0.203872
0.203953
0.204028
0.199947
0.199847
0.199764
0.199706
0.199676
0.199679
0.199713
0.199776
0.199863
0.19997
0.200092
0.200224
0.200363
0.200506
0.200651
0.200794
0.200936
0.201074
0.201208
0.201337
0.201461
0.201579
0.201692
0.2018
0.201902
0.201999
0.202091
0.202177
0.202259
0.202337
0.20241
0.202479
0.202544
0.199946
0.199843
0.199749
0.199669
0.199608
0.199567
0.199548
0.19955
0.199573
0.199614
0.199669
0.199737
0.199814
0.199898
0.199986
0.200078
0.20017
0.200264
0.200356
0.200447
0.200536
0.200622
0.200705
0.200786
0.200863
0.200938
0.201009
0.201077
0.201142
0.201205
0.201264
0.201321
0.201375
0.199946
0.199841
0.199742
0.199651
0.199571
0.199505
0.199453
0.199417
0.199396
0.199389
0.199396
0.199415
0.199443
0.19948
0.199523
0.199572
0.199624
0.199678
0.199735
0.199792
0.199849
0.199907
0.199964
0.20002
0.200074
0.200128
0.20018
0.20023
0.200279
0.200326
0.200372
0.200416
0.200459
0.199946
0.19984
0.199739
0.199642
0.199553
0.199471
0.1994
0.19934
0.19929
0.199252
0.199225
0.199209
0.199201
0.199202
0.199209
0.199223
0.199242
0.199265
0.199291
0.19932
0.199351
0.199383
0.199416
0.19945
0.199485
0.199519
0.199554
0.199588
0.199622
0.199655
0.199688
0.199721
0.199753
0.199946
0.19984
0.199737
0.199638
0.199543
0.199454
0.199372
0.199297
0.19923
0.199172
0.199122
0.199081
0.199048
0.199022
0.199003
0.198991
0.198984
0.198982
0.198984
0.198989
0.198998
0.19901
0.199023
0.199039
0.199056
0.199074
0.199093
0.199113
0.199134
0.199155
0.199177
0.199199
0.199221
0.199946
0.19984
0.199736
0.199635
0.199538
0.199445
0.199356
0.199273
0.199196
0.199125
0.199061
0.199004
0.198954
0.198911
0.198873
0.198842
0.198817
0.198796
0.19878
0.198768
0.19876
0.198755
0.198753
0.198754
0.198757
0.198763
0.19877
0.198778
0.198788
0.198799
0.198811
0.198825
0.198839
0.199946
0.19984
0.199736
0.199634
0.199536
0.19944
0.199349
0.199261
0.199178
0.1991
0.199028
0.198962
0.198901
0.198846
0.198798
0.198754
0.198716
0.198683
0.198655
0.198631
0.198611
0.198595
0.198583
0.198573
0.198567
0.198562
0.198561
0.198561
0.198563
0.198567
0.198572
0.198578
0.198586
0.199946
0.19984
0.199735
0.199634
0.199534
0.199438
0.199345
0.199255
0.19917
0.199089
0.199013
0.198942
0.198876
0.198816
0.198761
0.198711
0.198667
0.198628
0.198593
0.198563
0.198537
0.198514
0.198496
0.198481
0.198468
0.198459
0.198452
0.198447
0.198445
0.198444
0.198446
0.198448
0.198452
0.199946
0.19984
0.199735
0.199633
0.199534
0.199437
0.199344
0.199254
0.199168
0.199087
0.19901
0.198939
0.198873
0.198812
0.198756
0.198706
0.198661
0.198621
0.198586
0.198555
0.198528
0.198505
0.198485
0.198469
0.198456
0.198446
0.198438
0.198433
0.198429
0.198428
0.198428
0.19843
0.198433
0.199946
0.19984
0.199735
0.199634
0.199534
0.199438
0.199346
0.199257
0.199174
0.199095
0.199022
0.198954
0.198892
0.198836
0.198785
0.19874
0.1987
0.198665
0.198635
0.198609
0.198587
0.198569
0.198554
0.198542
0.198533
0.198527
0.198523
0.198521
0.19852
0.198522
0.198524
0.198529
0.198534
0.199946
0.19984
0.199736
0.199635
0.199537
0.199442
0.199353
0.199269
0.19919
0.199118
0.199053
0.198995
0.198943
0.198898
0.198858
0.198825
0.198797
0.198774
0.198756
0.198741
0.19873
0.198723
0.198718
0.198716
0.198716
0.198718
0.198722
0.198728
0.198734
0.198742
0.19875
0.19876
0.19877
0.199946
0.19984
0.199737
0.199637
0.199542
0.199453
0.19937
0.199295
0.199228
0.19917
0.199121
0.199079
0.199046
0.19902
0.199001
0.198988
0.19898
0.198977
0.198978
0.198982
0.198989
0.198998
0.19901
0.199023
0.199037
0.199052
0.199068
0.199085
0.199102
0.199119
0.199136
0.199153
0.199171
0.199946
0.199841
0.19974
0.199645
0.199557
0.199478
0.19941
0.199354
0.199309
0.199277
0.199255
0.199244
0.199241
0.199247
0.199259
0.199277
0.199299
0.199325
0.199353
0.199384
0.199416
0.199448
0.199481
0.199514
0.199547
0.199579
0.199611
0.199642
0.199672
0.199701
0.199729
0.199756
0.199782
0.199947
0.199844
0.199749
0.199664
0.199592
0.199537
0.199499
0.19948
0.199477
0.19949
0.199516
0.199553
0.199599
0.199652
0.19971
0.199772
0.199836
0.199901
0.199965
0.20003
0.200092
0.200154
0.200213
0.20027
0.200324
0.200376
0.200426
0.200473
0.200518
0.20056
0.200599
0.200637
0.200672
0.199948
0.199852
0.19977
0.199711
0.199677
0.199673
0.199697
0.199746
0.199818
0.199907
0.20001
0.200122
0.200239
0.20036
0.200481
0.2006
0.200717
0.20083
0.200939
0.201043
0.201141
0.201234
0.201322
0.201405
0.201482
0.201554
0.201622
0.201685
0.201743
0.201797
0.201848
0.201894
0.201937
0.199951
0.199872
0.199828
0.199831
0.199884
0.199985
0.200128
0.200302
0.2005
0.200711
0.200928
0.201146
0.201361
0.201569
0.201768
0.201958
0.202136
0.202304
0.20246
0.202606
0.20274
0.202865
0.202981
0.203087
0.203184
0.203274
0.203356
0.203431
0.2035
0.203563
0.203619
0.203671
0.203718
0.19996
0.199932
0.199988
0.200141
0.200383
0.200695
0.201055
0.20144
0.201833
0.202222
0.202597
0.202954
0.203288
0.203598
0.203885
0.204149
0.20439
0.204611
0.204811
0.204994
0.205159
0.205309
0.205445
0.205567
0.205677
0.205777
0.205866
0.205946
0.206017
0.20608
0.206137
0.206186
0.20623
0.19999
0.200113
0.200438
0.200945
0.201582
0.202288
0.203012
0.20372
0.20439
0.205011
0.205578
0.206091
0.206552
0.206965
0.207333
0.207661
0.207953
0.208212
0.208442
0.208646
0.208826
0.208985
0.209126
0.209249
0.209357
0.209451
0.209533
0.209603
0.209664
0.209715
0.209757
0.209792
0.209821
0.200097
0.200698
0.201729
0.20303
0.20443
0.205804
0.207078
0.208222
0.20923
0.210107
0.210866
0.211521
0.212084
0.212568
0.212984
0.213341
0.213648
0.213911
0.214135
0.214327
0.21449
0.214628
0.214743
0.214839
0.214917
0.214979
0.215028
0.215064
0.215089
0.215104
0.215111
0.215109
0.2151
0.200521
0.202675
0.205525
0.20847
0.211189
0.21355
0.215527
0.217152
0.218476
0.219552
0.220424
0.221131
0.221704
0.222168
0.222543
0.222845
0.223087
0.223277
0.223425
0.223537
0.223618
0.223672
0.223703
0.223713
0.223707
0.223684
0.223649
0.223601
0.223542
0.223475
0.223398
0.223315
0.223225
0.202177
0.209422
0.217079
0.223316
0.228003
0.231437
0.233925
0.235719
0.237011
0.237936
0.238593
0.239054
0.239367
0.239569
0.239685
0.239733
0.239727
0.239676
0.239588
0.239469
0.239324
0.239157
0.238971
0.238768
0.23855
0.23832
0.23808
0.23783
0.237573
0.237308
0.237039
0.236764
0.236486
0.208503
0.227596
0.245316
0.25869
0.267554
0.272837
0.275658
0.27695
0.277338
0.277195
0.276744
0.276116
0.275385
0.274596
0.273774
0.272932
0.27208
0.271221
0.270359
0.269495
0.268631
0.267768
0.266908
0.266051
0.265198
0.264351
0.263511
0.262678
0.261853
0.261037
0.260232
0.259437
0.258653
0.248308
0.315061
0.348161
0.362157
0.367118
0.367958
0.366701
0.364185
0.360865
0.357053
0.352965
0.348753
0.344525
0.340356
0.336297
0.332382
0.328633
0.32506
0.321669
0.31846
0.315431
0.312577
0.309891
0.307365
0.304994
0.302768
0.30068
0.298722
0.296886
0.295167
0.293555
0.292046
0.290632
0.205354
0.221127
0.238043
0.254121
0.268995
0.282971
0.296258
0.308938
0.321054
0.332632
0.343696
0.354264
0.36435
0.37397
0.38314
0.391874
0.400187
0.408094
0.415611
0.422753
0.429534
0.435971
0.442077
0.447868
0.453358
0.45856
0.463488
0.468155
0.472574
0.476757
0.480715
0.48446
0.488007
0.618001
0.695147
0.817508
0.966592
1.13141
1.29954
1.46232
1.61265
1.74474
1.8546
1.94072
2.00411
2.04774
2.07557
2.09168
2.0996
2.10204
2.10084
2.09712
2.09155
2.08448
2.07618
2.06684
2.05665
2.04575
2.03425
2.02217
2.00952
1.99622
1.98217
1.96724
1.95127
1.93411
1.9156
1.89558
1.87391
1.85046
1.82512
1.79781
1.76848
1.73711
1.70371
1.66832
1.63105
1.59202
1.55139
1.50938
1.46623
1.42222
1.37765
1.33286
1.28818
1.24398
1.20061
1.1584
1.1177
1.07881
1.04201
1.00753
0.975561
0.946263
0.91974
0.896055
0.87523
0.857253
0.84208
0.829638
0.819835
0.812557
0.807675
0.805047
0.804521
0.805935
0.809121
0.813905
0.82011
0.827554
0.836055
0.845428
0.855489
0.866057
0.876951
0.887997
0.899029
0.909887
0.920423
0.930499
0.939992
0.948788
0.956791
0.963917
0.970092
0.975261
0.979369
0.982399
0.984285
0.985127
0.98467
0.983725
0.980481
0.399149
0.404137
0.417433
0.441501
0.477033
0.524507
0.58382
0.654271
0.734556
0.822834
0.916752
1.0135
1.10999
1.20306
1.28984
1.36804
1.43616
1.49357
1.54042
1.57747
1.60585
1.6268
1.64152
1.65107
1.65631
1.6579
1.65637
1.65213
1.64545
1.63658
1.62566
1.61282
1.59812
1.5816
1.56328
1.54318
1.5213
1.49766
1.47227
1.44517
1.41641
1.38608
1.35427
1.32111
1.28676
1.2514
1.21525
1.17854
1.14152
1.10447
1.06766
1.03138
0.995914
0.961528
0.928489
0.897034
0.867379
0.839708
0.814174
0.790893
0.769948
0.751387
0.735229
0.721464
0.710057
0.700956
0.694091
0.68938
0.686728
0.686035
0.687189
0.690074
0.694568
0.700543
0.707867
0.716404
0.726014
0.736551
0.747866
0.75981
0.772226
0.784962
0.797863
0.810778
0.823559
0.836066
0.848165
0.859734
0.870658
0.880835
0.890176
0.8986
0.906043
0.912442
0.91777
0.921955
0.92508
0.926914
0.928087
0.92789
0.326703
0.321604
0.317077
0.313602
0.311902
0.312736
0.316627
0.324221
0.336397
0.354033
0.377959
0.40886
0.447147
0.492819
0.545346
0.603623
0.666018
0.730515
0.794932
0.857171
0.915438
0.968386
1.01518
1.05544
1.08922
1.11679
1.13864
1.15527
1.16721
1.17496
1.17893
1.1795
1.17697
1.17163
1.16368
1.15332
1.14074
1.12607
1.10947
1.09108
1.07105
1.04953
1.02669
1.00268
0.977702
0.95195
0.925633
0.898972
0.872191
0.845522
0.819194
0.793434
0.768458
0.744472
0.721664
0.700203
0.680235
0.661882
0.645239
0.630377
0.617341
0.606153
0.596816
0.589313
0.583616
0.579683
0.577464
0.576903
0.577937
0.580499
0.584515
0.589909
0.596601
0.604504
0.613529
0.62358
0.634557
0.646352
0.658854
0.671943
0.685494
0.69938
0.713467
0.727623
0.741712
0.755606
0.769175
0.782298
0.794862
0.80676
0.817896
0.828184
0.837549
0.845921
0.85326
0.85949
0.864671
0.868597
0.871718
0.874363
0.317033
0.311838
0.306763
0.301844
0.297175
0.292878
0.289097
0.285974
0.283648
0.282359
0.282413
0.284178
0.288079
0.294579
0.304151
0.317227
0.334139
0.35506
0.379939
0.408468
0.440071
0.473943
0.509113
0.544537
0.579198
0.612188
0.642772
0.67041
0.694761
0.715656
0.733064
0.747056
0.757767
0.765374
0.77007
0.772057
0.771537
0.768705
0.763755
0.756876
0.748254
0.738075
0.726526
0.713797
0.700078
0.685564
0.67045
0.654933
0.639207
0.623464
0.60789
0.592662
0.577947
0.563898
0.550654
0.538338
0.527054
0.51689
0.507912
0.500172
0.493704
0.488528
0.484649
0.482065
0.480763
0.480724
0.481927
0.484342
0.487941
0.492689
0.498549
0.505482
0.513443
0.522385
0.532255
0.542994
0.554538
0.566814
0.579744
0.59324
0.607206
0.621538
0.636129
0.650862
0.665619
0.680282
0.694729
0.708844
0.722514
0.735629
0.748091
0.759804
0.770686
0.780659
0.78967
0.797635
0.804594
0.810363
0.815217
0.820437
0.302098
0.298518
0.294964
0.291424
0.287901
0.284413
0.280991
0.277675
0.274503
0.271523
0.268795
0.266396
0.264425
0.263002
0.262272
0.262404
0.263588
0.266026
0.269917
0.27544
0.282732
0.291864
0.302824
0.315499
0.32968
0.345064
0.36128
0.377909
0.394525
0.410713
0.426104
0.440383
0.453305
0.464691
0.474426
0.482455
0.488767
0.493392
0.496391
0.497847
0.497863
0.496556
0.494052
0.490487
0.486004
0.480747
0.474866
0.468509
0.461824
0.454953
0.448036
0.441206
0.434585
0.428288
0.422418
0.417068
0.412317
0.408234
0.404875
0.402285
0.400497
0.399537
0.399422
0.400164
0.401769
0.404239
0.407573
0.411768
0.416819
0.422719
0.429459
0.437027
0.445406
0.454579
0.464523
0.475208
0.486601
0.498659
0.511331
0.52456
0.538275
0.5524
0.566847
0.581522
0.596323
0.611146
0.625879
0.640412
0.654636
0.668443
0.681728
0.694394
0.706351
0.71751
0.72781
0.737159
0.745574
0.752891
0.759222
0.76669
0.28223
0.280113
0.27797
0.275793
0.273572
0.27131
0.269016
0.266706
0.264393
0.262096
0.259832
0.257622
0.255491
0.253467
0.251587
0.249895
0.248441
0.247289
0.246509
0.246179
0.246381
0.247195
0.248698
0.250948
0.253985
0.257821
0.262434
0.267767
0.27373
0.280201
0.287035
0.294072
0.301144
0.308089
0.314754
0.321005
0.326731
0.331843
0.33628
0.340005
0.343004
0.345284
0.346871
0.347808
0.348149
0.347961
0.347318
0.3463
0.34499
0.343476
0.341841
0.34017
0.338544
0.33704
0.335728
0.334675
0.333938
0.333571
0.333619
0.33412
0.335108
0.33661
0.338648
0.341242
0.344408
0.34816
0.352511
0.357471
0.36305
0.369257
0.376099
0.383581
0.391708
0.40048
0.409896
0.419949
0.430627
0.441912
0.453777
0.466189
0.479104
0.492467
0.506214
0.520272
0.534558
0.548981
0.563447
0.577853
0.592096
0.606072
0.619679
0.632814
0.645384
0.657295
0.668473
0.678822
0.688336
0.696871
0.704388
0.713726
0.263408
0.26227
0.261089
0.259861
0.258578
0.257238
0.255845
0.254404
0.252924
0.251414
0.24988
0.248334
0.246783
0.245236
0.243706
0.242203
0.240743
0.239345
0.238029
0.236822
0.235752
0.234854
0.234162
0.233712
0.23354
0.233676
0.234147
0.234969
0.236149
0.23768
0.239546
0.241715
0.244144
0.246782
0.24957
0.252446
0.255347
0.258213
0.260988
0.263625
0.266084
0.268337
0.270366
0.272163
0.27373
0.275079
0.27623
0.27721
0.278052
0.278793
0.279475
0.280138
0.280827
0.281586
0.282456
0.283477
0.284688
0.286123
0.287814
0.289791
0.292079
0.2947
0.297677
0.301028
0.30477
0.308921
0.313495
0.318509
0.323978
0.329917
0.33634
0.343264
0.3507
0.358663
0.367163
0.376207
0.385801
0.395944
0.40663
0.417843
0.429561
0.441752
0.454374
0.467374
0.480689
0.494247
0.507968
0.521764
0.535543
0.549207
0.562658
0.575797
0.588526
0.60075
0.612388
0.623338
0.633577
0.642974
0.651363
0.662155
0.248006
0.247447
0.246847
0.246201
0.245506
0.244758
0.243958
0.243109
0.242214
0.241279
0.240308
0.239307
0.238281
0.237233
0.236168
0.235091
0.234007
0.232922
0.231843
0.230778
0.229739
0.228738
0.227789
0.226907
0.226112
0.22542
0.22485
0.224419
0.224142
0.224031
0.224095
0.224338
0.224758
0.22535
0.226103
0.227002
0.228028
0.22916
0.230378
0.231657
0.232977
0.234319
0.235667
0.237009
0.238337
0.239648
0.240941
0.242223
0.243503
0.244794
0.24611
0.247472
0.248897
0.250408
0.252026
0.253773
0.25567
0.257737
0.259993
0.262456
0.265144
0.268072
0.271254
0.274706
0.278441
0.282472
0.286814
0.291482
0.29649
0.301853
0.307589
0.313715
0.320248
0.327207
0.334608
0.342469
0.350804
0.359624
0.368937
0.378744
0.38904
0.399811
0.411035
0.422679
0.434701
0.447047
0.459656
0.472456
0.485368
0.498307
0.511182
0.523901
0.53637
0.548493
0.560184
0.571344
0.581929
0.591827
0.600761
0.612565
0.236151
0.235915
0.235644
0.235336
0.234987
0.234594
0.234158
0.233679
0.233159
0.232601
0.232008
0.231384
0.23073
0.230051
0.229349
0.228625
0.227883
0.227125
0.226353
0.225572
0.224784
0.223995
0.223211
0.222439
0.221687
0.220964
0.22028
0.219645
0.21907
0.218566
0.218142
0.217808
0.21757
0.217435
0.217405
0.217482
0.217667
0.217956
0.218346
0.218832
0.219407
0.220067
0.220805
0.221617
0.222498
0.223447
0.224462
0.225545
0.226698
0.227926
0.229236
0.230635
0.232133
0.233738
0.235462
0.237316
0.239308
0.241451
0.243754
0.246227
0.248879
0.251719
0.254756
0.257998
0.261454
0.265133
0.269046
0.273204
0.277618
0.282301
0.287269
0.292538
0.298126
0.304051
0.310333
0.316993
0.32405
0.331524
0.339429
0.347779
0.356582
0.365839
0.375543
0.385679
0.396225
0.407147
0.4184
0.429931
0.441679
0.453573
0.465535
0.477481
0.489326
0.500979
0.512355
0.523356
0.533928
0.543972
0.553131
0.565499
0.227214
0.227151
0.227061
0.226942
0.226791
0.226606
0.226386
0.226132
0.225843
0.225522
0.225171
0.224792
0.224388
0.223959
0.223509
0.223038
0.222548
0.222041
0.221518
0.22098
0.22043
0.219869
0.2193
0.218726
0.218152
0.217581
0.217019
0.216473
0.215947
0.21545
0.214989
0.214571
0.214202
0.213891
0.213643
0.213465
0.21336
0.213333
0.213388
0.213526
0.213751
0.214062
0.214462
0.21495
0.215528
0.216197
0.216959
0.217815
0.218769
0.219823
0.22098
0.222247
0.223626
0.225124
0.226745
0.228494
0.230376
0.232395
0.234557
0.236865
0.239323
0.241934
0.244703
0.247633
0.25073
0.253997
0.25744
0.261067
0.264886
0.268907
0.273141
0.277602
0.282307
0.287271
0.292516
0.29806
0.303927
0.310138
0.316714
0.323673
0.331032
0.338803
0.346992
0.355599
0.364617
0.374028
0.383807
0.393918
0.404318
0.414951
0.425757
0.436665
0.4476
0.45848
0.469227
0.479748
0.489983
0.499848
0.508928
0.521428
0.220482
0.22051
0.220517
0.220501
0.220462
0.220396
0.220303
0.220183
0.220035
0.219861
0.219663
0.219442
0.219199
0.218936
0.218655
0.218357
0.218043
0.217714
0.217372
0.217016
0.216649
0.216271
0.215884
0.21549
0.21509
0.214687
0.214283
0.213883
0.213491
0.21311
0.212745
0.212402
0.212086
0.211804
0.211561
0.211362
0.211214
0.211122
0.211091
0.211127
0.211234
0.211416
0.211678
0.212024
0.212456
0.212979
0.213596
0.214311
0.215126
0.216046
0.217073
0.218211
0.219464
0.220833
0.222322
0.223932
0.225666
0.227525
0.22951
0.231621
0.233859
0.236224
0.238716
0.241336
0.244085
0.246963
0.249973
0.253119
0.256405
0.259837
0.263425
0.267179
0.271112
0.275238
0.279575
0.284142
0.288961
0.294052
0.299439
0.305144
0.311187
0.317587
0.324358
0.331511
0.33905
0.346972
0.355267
0.363916
0.372892
0.382156
0.391664
0.401362
0.411188
0.421073
0.430947
0.440728
0.450354
0.459758
0.468492
0.480727
0.215369
0.215442
0.215499
0.215539
0.215561
0.215563
0.215543
0.215502
0.21544
0.215358
0.215256
0.215135
0.214997
0.214844
0.214675
0.214494
0.2143
0.214095
0.213879
0.213654
0.213421
0.213179
0.212931
0.212677
0.212418
0.212157
0.211894
0.211632
0.211373
0.211121
0.210879
0.21065
0.210439
0.210249
0.210087
0.209956
0.209863
0.209812
0.209808
0.209858
0.209966
0.210138
0.210378
0.210693
0.211085
0.211561
0.212124
0.212779
0.213529
0.214378
0.21533
0.216387
0.217552
0.218827
0.220212
0.221709
0.223318
0.225038
0.226867
0.228806
0.23085
0.232999
0.23525
0.2376
0.240049
0.242593
0.245234
0.247972
0.250807
0.253745
0.256789
0.259949
0.263234
0.266655
0.270229
0.27397
0.277899
0.282036
0.286402
0.291021
0.295914
0.301102
0.306606
0.312442
0.318622
0.325154
0.332039
0.339272
0.346839
0.354719
0.362882
0.37129
0.379897
0.388647
0.397484
0.406336
0.415146
0.423861
0.432028
0.443657
0.211442
0.211535
0.211616
0.211684
0.211737
0.211776
0.211798
0.211804
0.211794
0.211767
0.211726
0.211669
0.2116
0.211518
0.211425
0.211322
0.21121
0.21109
0.210964
0.210831
0.210693
0.21055
0.210404
0.210255
0.210105
0.209953
0.209802
0.209654
0.20951
0.209371
0.209242
0.209124
0.20902
0.208935
0.208871
0.208834
0.208827
0.208855
0.208922
0.209035
0.209198
0.209415
0.209693
0.210036
0.210449
0.210937
0.211504
0.212155
0.212894
0.213724
0.214648
0.21567
0.21679
0.21801
0.21933
0.220751
0.22227
0.223887
0.225598
0.227401
0.229292
0.231267
0.233322
0.235453
0.237657
0.239929
0.242267
0.24467
0.247137
0.249669
0.252269
0.254943
0.257696
0.260539
0.263484
0.266545
0.269737
0.27308
0.276593
0.280297
0.284215
0.288368
0.292777
0.297463
0.302441
0.307727
0.31333
0.319254
0.325498
0.332051
0.3389
0.346018
0.353376
0.360932
0.368643
0.376451
0.384306
0.39217
0.399603
0.410354
0.208391
0.20849
0.208579
0.208659
0.208727
0.208785
0.20883
0.208863
0.208883
0.20889
0.208886
0.208871
0.208845
0.208811
0.208768
0.208718
0.208663
0.208602
0.208537
0.20847
0.2084
0.208328
0.208257
0.208185
0.208115
0.208047
0.207983
0.207924
0.20787
0.207825
0.20779
0.207767
0.207759
0.207769
0.207799
0.207854
0.207936
0.208051
0.208201
0.208393
0.208629
0.208914
0.209255
0.209654
0.210117
0.210648
0.211252
0.211932
0.212693
0.213537
0.214467
0.215485
0.216593
0.21779
0.219078
0.220454
0.221916
0.223463
0.22509
0.226793
0.228568
0.23041
0.232312
0.234271
0.23628
0.238335
0.240431
0.242565
0.244735
0.24694
0.249181
0.251461
0.253784
0.256159
0.258594
0.261101
0.263693
0.266386
0.269198
0.272149
0.275257
0.278544
0.282031
0.285739
0.289686
0.293891
0.298367
0.303125
0.308172
0.313507
0.319127
0.325018
0.331162
0.337534
0.344099
0.350817
0.357646
0.36456
0.371152
0.380828
0.205999
0.206095
0.206184
0.206265
0.206339
0.206404
0.20646
0.206507
0.206544
0.206572
0.206591
0.206601
0.206604
0.206601
0.206591
0.206578
0.20656
0.206541
0.206519
0.206497
0.206476
0.206456
0.206438
0.206423
0.206413
0.206408
0.206409
0.206418
0.206436
0.206464
0.206505
0.20656
0.206631
0.206722
0.206834
0.20697
0.207134
0.20733
0.20756
0.207829
0.208141
0.2085
0.20891
0.209375
0.209899
0.210487
0.211141
0.211867
0.212667
0.213543
0.214498
0.215533
0.216649
0.217846
0.219122
0.220477
0.221908
0.22341
0.22498
0.226612
0.228302
0.230043
0.231828
0.233652
0.235508
0.237391
0.239294
0.241213
0.243145
0.245088
0.247041
0.249005
0.250983
0.252981
0.255005
0.257065
0.259172
0.261339
0.263583
0.265918
0.268364
0.270939
0.273663
0.276557
0.279638
0.282926
0.286438
0.290186
0.294184
0.298438
0.30295
0.307717
0.312732
0.317978
0.323436
0.329077
0.334867
0.340793
0.346491
0.354973
0.204111
0.204199
0.204282
0.20436
0.204433
0.204499
0.204558
0.204611
0.204657
0.204695
0.204728
0.204754
0.204775
0.204792
0.204805
0.204815
0.204824
0.204832
0.204841
0.204851
0.204864
0.204881
0.204902
0.204929
0.204963
0.205004
0.205055
0.205116
0.205188
0.205273
0.205374
0.20549
0.205626
0.205782
0.205962
0.206167
0.206402
0.206668
0.206969
0.207308
0.20769
0.208117
0.208594
0.209124
0.20971
0.210356
0.211066
0.211842
0.212687
0.213603
0.214592
0.215654
0.21679
0.217998
0.219278
0.220627
0.222041
0.223516
0.225048
0.22663
0.228257
0.229921
0.231617
0.233336
0.235071
0.236817
0.238567
0.240314
0.242056
0.243788
0.245509
0.24722
0.24892
0.250615
0.252309
0.25401
0.255727
0.257471
0.259256
0.261094
0.263003
0.265
0.267101
0.269325
0.271691
0.274216
0.276918
0.279813
0.282913
0.28623
0.289773
0.293543
0.29754
0.301758
0.306186
0.310805
0.315593
0.320543
0.325342
0.332584
0.202616
0.202694
0.202768
0.202839
0.202907
0.202969
0.203028
0.203081
0.20313
0.203174
0.203213
0.203248
0.20328
0.203309
0.203336
0.203363
0.203389
0.203417
0.203447
0.20348
0.203517
0.20356
0.203609
0.203666
0.203732
0.203808
0.203895
0.203994
0.204108
0.204237
0.204383
0.204548
0.204734
0.204943
0.205177
0.205439
0.205731
0.206056
0.206417
0.206816
0.207259
0.207746
0.208282
0.208871
0.209514
0.210215
0.210977
0.211801
0.212691
0.213648
0.214672
0.215764
0.216924
0.218149
0.219438
0.220788
0.222195
0.223654
0.225159
0.226705
0.228284
0.22989
0.231514
0.23315
0.23479
0.236425
0.238051
0.23966
0.241248
0.24281
0.244345
0.24585
0.247327
0.248778
0.250207
0.251619
0.253023
0.254427
0.255843
0.257282
0.258759
0.260287
0.261884
0.263565
0.265346
0.267245
0.269279
0.271462
0.27381
0.276334
0.279046
0.281953
0.285059
0.288364
0.291864
0.295548
0.299404
0.303429
0.307364
0.31338
0.201434
0.2015
0.201564
0.201627
0.201686
0.201743
0.201797
0.201848
0.201896
0.201941
0.201983
0.202023
0.20206
0.202097
0.202133
0.20217
0.202208
0.202248
0.202292
0.202341
0.202395
0.202456
0.202525
0.202604
0.202693
0.202793
0.202907
0.203035
0.20318
0.203341
0.203522
0.203724
0.203949
0.204198
0.204475
0.204781
0.205118
0.205491
0.2059
0.20635
0.206842
0.20738
0.207966
0.208604
0.209296
0.210044
0.210851
0.211719
0.212649
0.213643
0.214699
0.215819
0.217001
0.218243
0.219543
0.220897
0.222299
0.223746
0.225232
0.226748
0.228289
0.229847
0.231413
0.232981
0.234541
0.236086
0.23761
0.239106
0.240567
0.241991
0.243373
0.244712
0.246008
0.247261
0.248476
0.249656
0.250808
0.251939
0.253059
0.254178
0.255307
0.256461
0.257651
0.258893
0.260202
0.261592
0.26308
0.264679
0.266404
0.268268
0.270283
0.272458
0.2748
0.277313
0.279999
0.282853
0.285867
0.289045
0.292179
0.297031
0.200507
0.200561
0.200614
0.200666
0.200717
0.200766
0.200814
0.200861
0.200906
0.200949
0.200991
0.201032
0.201072
0.201112
0.201153
0.201196
0.201241
0.20129
0.201343
0.201402
0.201468
0.201541
0.201624
0.201717
0.201822
0.201941
0.202073
0.202222
0.202388
0.202573
0.20278
0.203008
0.203262
0.203542
0.20385
0.20419
0.204563
0.204972
0.205419
0.205907
0.206438
0.207016
0.207642
0.20832
0.209051
0.209837
0.210681
0.211584
0.212546
0.213569
0.214652
0.215795
0.216994
0.21825
0.219557
0.220912
0.22231
0.223746
0.225212
0.226703
0.22821
0.229725
0.231241
0.23275
0.234242
0.235711
0.237148
0.238548
0.239904
0.241212
0.242468
0.24367
0.244817
0.24591
0.24695
0.247943
0.248891
0.249803
0.250685
0.251547
0.252398
0.253251
0.254116
0.255006
0.255935
0.256915
0.257961
0.259086
0.260302
0.261624
0.263062
0.264626
0.266326
0.268167
0.270154
0.272286
0.274562
0.276985
0.279396
0.283179
0.199789
0.199831
0.199872
0.199914
0.199956
0.199998
0.200039
0.20008
0.200121
0.200161
0.200201
0.200241
0.200282
0.200323
0.200367
0.200412
0.200462
0.200515
0.200574
0.200639
0.200712
0.200793
0.200885
0.200988
0.201103
0.201233
0.201378
0.201541
0.201722
0.201923
0.202147
0.202394
0.202668
0.202969
0.203301
0.203664
0.204062
0.204497
0.204972
0.205488
0.206048
0.206655
0.207311
0.208018
0.208778
0.209592
0.210463
0.211391
0.212377
0.213421
0.214522
0.215678
0.216889
0.218151
0.21946
0.220811
0.222201
0.223622
0.225068
0.226532
0.228005
0.229481
0.23095
0.232404
0.233835
0.235235
0.236597
0.237913
0.239179
0.240388
0.241537
0.242624
0.243648