/*--------------------------------*- C++ -*----------------------------------*\
| =========                 |                                                 |
| \\      /  F ield         | OpenFOAM: The Open Source CFD Toolbox           |
|  \\    /   O peration     | Version:  4.1                                   |
|   \\  /    A nd           | Web:      www.OpenFOAM.org                      |
|    \\/     M anipulation  |                                                 |
\*---------------------------------------------------------------------------*/
FoamFile
{
    version     2.0;
    format      ascii;
    class       volScalarField;
    location    "1400";
    object      nut;
}
// * * * * * * * * * * * * * * * * * * * * * * * * * * * * * * * * * * * * * //

dimensions      [0 2 -1 0 0 0 0];

internalField   nonuniform List<scalar> 
6820
(
3.5437e-05
5.0672e-05
6.21565e-05
6.89859e-05
7.29393e-05
7.51484e-05
7.62608e-05
7.66561e-05
7.65742e-05
7.61754e-05
7.5569e-05
7.48309e-05
7.40141e-05
7.31562e-05
7.22833e-05
7.14134e-05
7.0559e-05
6.97284e-05
6.89269e-05
6.81576e-05
6.74223e-05
6.67216e-05
6.60554e-05
6.5423e-05
6.48233e-05
6.42551e-05
6.37169e-05
6.32076e-05
6.27239e-05
6.22719e-05
6.18132e-05
6.15236e-05
6.06198e-05
0.00135033
0.000930454
0.000725657
0.000569941
0.000453328
0.000372218
0.000316223
0.000276488
0.000247303
0.000225195
0.000208006
0.000194348
0.000183294
0.000174213
0.000166657
0.000160305
0.000154915
0.000150308
0.000146344
0.000142913
0.000139929
0.000137323
0.000135038
0.000133028
0.000131254
0.000129683
0.00012829
0.000127049
0.00012594
0.000124949
0.000124041
0.00012327
0.000122385
0.0034439
0.00180034
0.00133708
0.00108081
0.000912409
0.000791562
0.000700948
0.00063099
0.000575611
0.000530789
0.000493806
0.000462783
0.000436392
0.00041367
0.000393906
0.000376563
0.000361229
0.000347582
0.000335368
0.000324381
0.000314454
0.00030545
0.000297254
0.000289771
0.000282918
0.000276627
0.000270837
0.000265497
0.000260559
0.000255985
0.000251733
0.000247785
0.000244057
0.00637392
0.00310291
0.00217847
0.00173334
0.00146616
0.00128428
0.00115082
0.00104807
0.000966257
0.000899457
0.000843822
0.000796729
0.000756324
0.000721254
0.000690513
0.000663333
0.00063912
0.000617405
0.000597815
0.00058005
0.000563862
0.00054905
0.000535444
0.000522903
0.000511306
0.00050055
0.000490548
0.000481223
0.000472509
0.000464346
0.000456679
0.000449466
0.000442642
0.00899737
0.00527271
0.00366202
0.00284163
0.00235737
0.00203856
0.00181195
0.00164188
0.00150906
0.00140219
0.00131419
0.00124038
0.00117752
0.00112331
0.00107604
0.00103445
0.00099755
0.000964584
0.000934945
0.000908145
0.00088379
0.000861556
0.000841173
0.000822416
0.000805096
0.000789052
0.000774144
0.000760254
0.000747276
0.000735121
0.000723705
0.00071296
0.000702801
0.0103765
0.00752965
0.00561349
0.00443387
0.0036773
0.00316202
0.00279169
0.00251363
0.0022974
0.00212446
0.001983
0.00186512
0.00176535
0.00167982
0.00160567
0.00154077
0.00148348
0.00143254
0.00138694
0.00134589
0.00130874
0.00127495
0.00124409
0.0012158
0.00118976
0.00116572
0.00114345
0.00112277
0.0011035
0.0010855
0.00106864
0.00105282
0.00103792
0.0109773
0.00922098
0.00752197
0.0062241
0.00528073
0.00458893
0.00406896
0.0036676
0.00335004
0.00309329
0.00288184
0.00270491
0.00255483
0.00242601
0.0023143
0.00221656
0.00213035
0.00205378
0.00198533
0.0019238
0.0018682
0.00181774
0.00177173
0.00172962
0.00169095
0.00165531
0.00162236
0.00159182
0.00156343
0.00153697
0.00151225
0.00148911
0.00146737
0.0112223
0.01026
0.00902119
0.00786209
0.00689742
0.00612296
0.00550365
0.00500431
0.00459663
0.00425932
0.00397663
0.00373691
0.00353147
0.0033537
0.00319855
0.00306211
0.00294127
0.0028336
0.0027371
0.00265019
0.00257152
0.00250003
0.00243479
0.00237505
0.00232016
0.00226956
0.00222279
0.00217944
0.00213915
0.00210163
0.0020666
0.00203382
0.0020031
0.0113196
0.0108286
0.0100355
0.0091472
0.00830321
0.00755759
0.00691829
0.00637539
0.00591434
0.00552103
0.00518335
0.0048914
0.0046372
0.00441435
0.00421773
0.00404321
0.00388746
0.00374774
0.00362181
0.00350781
0.0034042
0.00330968
0.00322316
0.0031437
0.0030705
0.0030029
0.00294029
0.00288216
0.00282808
0.00277764
0.00273052
0.00268641
0.00264505
0.0113579
0.0111187
0.0106546
0.0100468
0.00939296
0.00875749
0.00817148
0.00764509
0.00717794
0.0067652
0.00640062
0.00607796
0.00579148
0.00553618
0.00530775
0.00510255
0.00491749
0.00474997
0.00459776
0.00445901
0.00433211
0.00421569
0.00410859
0.00400979
0.00391841
0.00383371
0.00375501
0.00368174
0.00361338
0.00354949
0.00348967
0.00343357
0.00338089
0.0113728
0.01126
0.0110057
0.0106242
0.0101642
0.00967403
0.00918759
0.0087244
0.00829365
0.0078983
0.00753798
0.00721063
0.0069135
0.00664366
0.00639828
0.00617472
0.00597059
0.00578378
0.00561241
0.00545483
0.00530959
0.00517542
0.00505121
0.00493598
0.00482885
0.00472908
0.00463598
0.00454896
0.00446748
0.00439108
0.00431933
0.00425186
0.00418834
0.0113787
0.0113266
0.011194
0.0109703
0.0106711
0.0103231
0.00995189
0.00957698
0.00921101
0.0088614
0.00853191
0.00822401
0.00793771
0.00767228
0.00742652
0.00719905
0.00698846
0.00679335
0.00661239
0.00644434
0.00628807
0.00614255
0.00600684
0.0058801
0.00576156
0.00565054
0.00554641
0.00544862
0.00535667
0.00527009
0.00518849
0.00511149
0.00503877
0.0113809
0.0113572
0.0112906
0.0111664
0.010984
0.0107537
0.0104904
0.0102084
0.00991919
0.00963123
0.00935017
0.00907955
0.00882139
0.00857664
0.00834557
0.00812803
0.00792354
0.0077315
0.00755122
0.00738198
0.00722304
0.0070737
0.00693329
0.00680118
0.00667676
0.0065595
0.00644889
0.00634444
0.00624574
0.00615238
0.00606401
0.00598029
0.00590092
0.0113818
0.0113708
0.0113383
0.0112723
0.0111671
0.0110237
0.0108485
0.0106497
0.0104355
0.0102131
0.00998805
0.00976448
0.00954535
0.00933266
0.00912765
0.00893107
0.00874325
0.00856428
0.00839405
0.00823234
0.00807883
0.00793319
0.00779502
0.00766395
0.00753958
0.00742155
0.00730949
0.00720305
0.0071019
0.00700574
0.00691427
0.00682723
0.00674436
0.0113822
0.0113768
0.0113611
0.0113273
0.0112692
0.0111846
0.0110744
0.0109422
0.0107927
0.0106308
0.0104607
0.0102863
0.0101105
0.00993552
0.00976319
0.0095947
0.00943092
0.0092724
0.00911949
0.00897238
0.00883112
0.00869566
0.00856592
0.00844174
0.00832295
0.00820935
0.00810075
0.00799691
0.00789765
0.00780274
0.00771199
0.00762519
0.00754217
0.0113823
0.0113794
0.0113717
0.0113547
0.0113238
0.011276
0.0112101
0.0111268
0.0110279
0.0109162
0.0107945
0.0106655
0.0105317
0.0103951
0.0102574
0.0101201
0.00998406
0.00985026
0.00971926
0.00959151
0.00946731
0.00934688
0.00923032
0.00911769
0.009009
0.00890421
0.00880327
0.00870608
0.00861256
0.00852259
0.00843606
0.00835287
0.00827288
0.0113824
0.0113805
0.0113765
0.0113679
0.0113519
0.0113259
0.0112881
0.0112379
0.0111757
0.0111025
0.0110197
0.010929
0.0108321
0.0107305
0.0106258
0.010519
0.0104112
0.0103034
0.0101961
0.01009
0.00998549
0.00988292
0.00978256
0.00968458
0.00958914
0.00949632
0.00940617
0.00931872
0.00923397
0.0091519
0.00907248
0.00899567
0.00892141
0.0113824
0.0113809
0.0113786
0.0113741
0.0113658
0.0113519
0.011331
0.0113021
0.0112646
0.0112187
0.011165
0.0111041
0.0110372
0.0109652
0.0108891
0.0108098
0.0107282
0.0106451
0.010561
0.0104765
0.0103922
0.0103084
0.0102255
0.0101436
0.0100631
0.00998398
0.00990652
0.00983076
0.00975678
0.00968463
0.00961433
0.00954592
0.00947938
0.0113824
0.0113811
0.0113795
0.0113769
0.0113724
0.0113651
0.0113537
0.0113375
0.0113158
0.0112882
0.0112548
0.0112157
0.0111715
0.0111227
0.0110698
0.0110135
0.0109543
0.0108929
0.0108297
0.0107653
0.0107
0.0106342
0.0105683
0.0105025
0.010437
0.0103722
0.010308
0.0102447
0.0101824
0.0101212
0.0100611
0.0100022
0.0099446
0.0113824
0.0113812
0.0113798
0.0113781
0.0113755
0.0113714
0.0113653
0.0113563
0.011344
0.011328
0.011308
0.0112839
0.0112559
0.0112241
0.0111889
0.0111505
0.0111093
0.0110657
0.0110202
0.0109729
0.0109243
0.0108746
0.0108242
0.0107732
0.010722
0.0106706
0.0106193
0.0105682
0.0105175
0.0104672
0.0104175
0.0103684
0.01032
0.0113824
0.0113812
0.01138
0.0113786
0.0113768
0.0113744
0.0113709
0.0113659
0.011359
0.0113499
0.0113382
0.0113238
0.0113067
0.0112868
0.0112641
0.011239
0.0112114
0.0111816
0.0111499
0.0111165
0.0110816
0.0110454
0.0110081
0.0109699
0.0109311
0.0108917
0.0108519
0.010812
0.0107719
0.0107318
0.0106918
0.010652
0.0106125
0.0113824
0.0113812
0.01138
0.0113788
0.0113774
0.0113757
0.0113735
0.0113706
0.0113666
0.0113614
0.0113547
0.0113463
0.011336
0.0113238
0.0113097
0.0112937
0.0112758
0.0112561
0.0112347
0.0112117
0.0111873
0.0111616
0.0111348
0.0111069
0.0110782
0.0110487
0.0110186
0.010988
0.010957
0.0109257
0.0108942
0.0108625
0.0108308
0.0113824
0.0113812
0.01138
0.0113789
0.0113776
0.0113763
0.0113747
0.0113728
0.0113703
0.0113672
0.0113632
0.0113582
0.0113521
0.0113447
0.011336
0.0113259
0.0113143
0.0113014
0.0112871
0.0112715
0.0112546
0.0112365
0.0112174
0.0111972
0.0111761
0.0111541
0.0111315
0.0111081
0.0110842
0.0110598
0.011035
0.0110099
0.0109845
0.0113824
0.0113812
0.01138
0.0113789
0.0113777
0.0113765
0.0113752
0.0113737
0.011372
0.0113699
0.0113673
0.0113642
0.0113603
0.0113555
0.0113499
0.0113432
0.0113355
0.0113267
0.0113167
0.0113057
0.0112936
0.0112805
0.0112663
0.0112512
0.0112351
0.0112182
0.0112006
0.0111822
0.0111632
0.0111436
0.0111235
0.0111029
0.011082
0.0113824
0.0113812
0.01138
0.0113789
0.0113777
0.0113766
0.0113753
0.011374
0.0113726
0.0113709
0.0113689
0.0113665
0.0113635
0.0113599
0.0113556
0.0113504
0.0113444
0.0113375
0.0113297
0.0113208
0.011311
0.0113002
0.0112885
0.0112759
0.0112624
0.011248
0.0112329
0.0112171
0.0112006
0.0111835
0.0111658
0.0111476
0.011129
0.0113824
0.0113812
0.01138
0.0113789
0.0113777
0.0113765
0.0113753
0.011374
0.0113725
0.0113707
0.0113686
0.0113661
0.011363
0.0113593
0.0113548
0.0113496
0.0113434
0.0113364
0.0113284
0.0113194
0.0113095
0.0112986
0.0112868
0.0112741
0.0112606
0.0112462
0.0112311
0.0112152
0.0111987
0.0111816
0.011164
0.0111458
0.0111272
0.0113824
0.0113812
0.01138
0.0113789
0.0113777
0.0113764
0.011375
0.0113734
0.0113715
0.0113691
0.0113662
0.0113626
0.0113583
0.011353
0.0113468
0.0113395
0.0113312
0.0113218
0.0113113
0.0112998
0.0112872
0.0112735
0.0112589
0.0112434
0.0112271
0.0112099
0.011192
0.0111734
0.0111542
0.0111344
0.0111142
0.0110935
0.0110725
0.0113824
0.0113812
0.01138
0.0113788
0.0113775
0.011376
0.0113742
0.0113718
0.0113688
0.0113648
0.0113599
0.0113537
0.0113462
0.0113373
0.011327
0.0113153
0.0113021
0.0112875
0.0112715
0.0112543
0.0112359
0.0112164
0.0111959
0.0111744
0.0111521
0.011129
0.0111053
0.011081
0.0110562
0.011031
0.0110054
0.0109795
0.0109535
0.0113824
0.0113812
0.01138
0.0113787
0.011377
0.0113748
0.0113718
0.0113676
0.0113618
0.0113543
0.0113449
0.0113333
0.0113196
0.0113037
0.0112857
0.0112656
0.0112436
0.0112198
0.0111944
0.0111675
0.0111393
0.01111
0.0110797
0.0110486
0.0110167
0.0109843
0.0109514
0.0109182
0.0108847
0.010851
0.0108173
0.0107836
0.0107499
0.0113824
0.0113813
0.0113799
0.0113781
0.0113755
0.0113714
0.0113652
0.0113564
0.0113446
0.0113295
0.0113109
0.0112888
0.0112634
0.0112347
0.0112031
0.0111689
0.0111323
0.0110938
0.0110535
0.0110117
0.0109688
0.010925
0.0108805
0.0108355
0.0107902
0.0107447
0.0106992
0.0106538
0.0106086
0.0105637
0.0105192
0.0104751
0.0104314
0.0113825
0.0113812
0.0113794
0.0113761
0.0113704
0.0113611
0.0113472
0.0113279
0.0113028
0.011272
0.0112356
0.011194
0.0111477
0.0110974
0.0110436
0.0109871
0.0109282
0.0108677
0.0108058
0.0107431
0.0106799
0.0106166
0.0105533
0.0104902
0.0104277
0.0103658
0.0103047
0.0102444
0.0101851
0.0101268
0.0100696
0.0100135
0.00995844
0.0113825
0.0113808
0.011377
0.0113691
0.0113545
0.0113315
0.0112988
0.011256
0.0112036
0.0111424
0.0110735
0.0109982
0.0109178
0.0108335
0.0107465
0.0106576
0.0105676
0.0104773
0.0103873
0.0102978
0.0102094
0.0101223
0.0100368
0.00995291
0.00987085
0.00979069
0.00971249
0.00963627
0.00956206
0.00948984
0.00941961
0.00935134
0.00928499
0.0113825
0.0113787
0.0113679
0.0113447
0.0113054
0.011248
0.0111728
0.0110816
0.0109771
0.0108621
0.0107396
0.0106119
0.0104814
0.0103497
0.0102183
0.0100882
0.00996015
0.00983483
0.00971263
0.00959381
0.00947855
0.00936694
0.00925902
0.00915476
0.00905413
0.00895705
0.00886343
0.00877317
0.00868616
0.00860229
0.00852144
0.0084435
0.00836834
0.011382
0.0113691
0.0113325
0.0112633
0.0111587
0.0110222
0.0108601
0.0106799
0.0104883
0.010291
0.0100925
0.00989597
0.00970363
0.00951703
0.00933708
0.0091643
0.0089989
0.00884087
0.00869011
0.00854639
0.00840945
0.00827899
0.0081547
0.00803627
0.00792338
0.00781572
0.00771301
0.00761497
0.00752132
0.00743183
0.00734625
0.00726436
0.00718596
0.0113786
0.0113249
0.0111997
0.0110009
0.0107442
0.0104511
0.0101407
0.00982717
0.00952002
0.00922488
0.00894479
0.00868112
0.00843415
0.00820345
0.00798818
0.00778733
0.00759986
0.00742474
0.00726098
0.00710764
0.00696388
0.00682892
0.00670203
0.00658258
0.00646998
0.0063637
0.00626325
0.0061682
0.00607814
0.00599272
0.00591161
0.00583451
0.00576114
0.0113536
0.011126
0.0107259
0.0102229
0.00968832
0.00916705
0.00868064
0.00823688
0.00783646
0.00747677
0.00715407
0.00686443
0.00660376
0.00636828
0.00615475
0.0059604
0.00578286
0.00562011
0.00547044
0.00533237
0.00520463
0.00508614
0.00497595
0.00487325
0.0047773
0.00468748
0.00460323
0.00452407
0.00444955
0.0043793
0.00431296
0.00425023
0.00419083
0.0111683
0.0102731
0.00924316
0.00829367
0.00748992
0.00682636
0.00627847
0.00582284
0.00544041
0.00511624
0.00483928
0.00459995
0.00439098
0.00420686
0.00404337
0.00389717
0.00376565
0.00364667
0.00353852
0.00343977
0.00334924
0.00326594
0.00318905
0.00311784
0.00305171
0.00299013
0.00293266
0.0028789
0.0028285
0.00278115
0.0027366
0.00269459
0.00265493
0.00982658
0.0072389
0.00577405
0.00486951
0.00424873
0.00378755
0.00342701
0.00314024
0.00290887
0.00271813
0.00255776
0.00242093
0.00230279
0.00219976
0.00210909
0.00202868
0.00195685
0.0018923
0.00183394
0.00178091
0.00173249
0.0016881
0.00164724
0.0016095
0.00157452
0.001542
0.00151169
0.00148336
0.00145683
0.00143192
0.00140848
0.00138639
0.00136553
0.00414167
0.00254161
0.00204418
0.00174836
0.00154034
0.00137827
0.00124767
0.00114134
0.00105376
0.000980907
0.000919641
0.000867559
0.000822819
0.000784017
0.000750076
0.000720159
0.000693608
0.0006699
0.000648615
0.000629409
0.000612004
0.000596165
0.000581699
0.000568442
0.000556256
0.000545022
0.000534639
0.000525017
0.000516082
0.000507767
0.000500012
0.000492769
0.000485983
0.000119434
0.000124352
0.000129424
0.000134072
0.000138235
0.000142037
0.000145562
0.000148849
0.000151924
0.000154806
0.000157512
0.000160054
0.000162444
0.000164691
0.000166805
0.000168794
0.000170666
0.000172428
0.000174087
0.000175649
0.000177119
0.000178503
0.000179806
0.000181034
0.00018219
0.000183279
0.000184304
0.00018527
0.00018618
0.000187038
0.000187846
0.000188607
0.000189325
6.59366e-05
7.81656e-05
9.7991e-05
0.00012422
0.000156137
0.000192476
0.000231991
0.000273356
0.000315225
0.000356392
0.000395972
0.000433499
0.000468916
0.000502467
0.00053456
0.000565633
0.000596063
0.000626114
0.00065594
0.0006856
0.000715101
0.00074443
0.000773582
0.00080257
0.000831427
0.000860198
0.000888933
0.00091768
0.000946481
0.000975368
0.00100437
0.0010335
0.00106277
0.0010922
0.00112178
0.00115154
0.00118148
0.00121161
0.00124194
0.0012725
0.0013033
0.00133439
0.0013658
0.0013976
0.00142984
0.00146261
0.00149601
0.00153015
0.00156516
0.00160117
0.00163836
0.00167691
0.00171701
0.00175888
0.00180274
0.00184883
0.0018974
0.00194869
0.00200293
0.00206035
0.00212116
0.00218551
0.00225354
0.00232533
0.00240093
0.00248031
0.00256342
0.00265012
0.00274025
0.00283358
0.00292984
0.00302872
0.00312987
0.00323292
0.00333749
0.00344316
0.00354954
0.00365622
0.0037628
0.00386889
0.00397411
0.00407809
0.00418047
0.00428092
0.00437914
0.00447483
0.00456773
0.00465761
0.00474427
0.00482751
0.00490719
0.0049832
0.00505542
0.00512378
0.00518829
0.00524878
0.00530561
0.00535827
0.00540641
0.00547061
0.000121879
0.000121685
0.000123487
0.000128414
0.000136235
0.000146982
0.000160757
0.000177664
0.000197749
0.000221001
0.000247316
0.000276469
0.000308107
0.000341752
0.000376842
0.000412779
0.000448991
0.000484995
0.000520433
0.000555095
0.000588907
0.000621898
0.000654165
0.000685832
0.000717022
0.000747847
0.000778399
0.000808754
0.000838975
0.000869119
0.000899237
0.000929374
0.000959573
0.000989871
0.0010203
0.0010509
0.0010817
0.00111272
0.001144
0.00117557
0.00120748
0.00123978
0.00127251
0.00130575
0.00133958
0.00137408
0.00140937
0.00144557
0.00148283
0.00152128
0.00156112
0.00160254
0.00164573
0.00169092
0.00173833
0.00178821
0.0018408
0.0018963
0.00195495
0.00201694
0.00208241
0.00215149
0.00222426
0.00230073
0.0023809
0.00246467
0.00255192
0.00264248
0.00273612
0.0028326
0.00293161
0.00303283
0.00313593
0.00324053
0.00334627
0.0034528
0.00355975
0.00366676
0.00377348
0.00387956
0.00398468
0.00408851
0.00419073
0.00429105
0.00438918
0.00448486
0.00457785
0.00466793
0.00475489
0.00483856
0.00491879
0.00499545
0.00506845
0.00513769
0.00520316
0.00526471
0.00532266
0.00537653
0.0054258
0.00549181
0.000240042
0.000235415
0.000230587
0.00022614
0.000222689
0.000220732
0.000220473
0.000222045
0.000225692
0.000231699
0.000240348
0.000251877
0.000266448
0.000284113
0.00030481
0.000328356
0.000354469
0.000382792
0.000412916
0.000444416
0.000476875
0.000509915
0.00054321
0.000576507
0.000609631
0.000642477
0.000675006
0.000707227
0.000739179
0.000770922
0.000802523
0.00083405
0.000865567
0.000897134
0.000928807
0.00096064
0.000992684
0.00102499
0.00105762
0.00109062
0.00112405
0.00115798
0.0011925
0.00122767
0.00126361
0.00130042
0.00133822
0.00137716
0.00141739
0.00145908
0.00150242
0.00154761
0.00159486
0.00164438
0.00169639
0.00175113
0.00180879
0.00186956
0.00193362
0.0020011
0.0020721
0.00214665
0.00222476
0.00230637
0.00239139
0.00247967
0.00257102
0.00266521
0.00276198
0.00286104
0.0029621
0.00306484
0.00316892
0.00327402
0.00337982
0.00348601
0.00359227
0.00369832
0.00380388
0.00390865
0.00401236
0.00411475
0.00421556
0.00431452
0.0044114
0.00450595
0.00459796
0.00468721
0.00477353
0.00485673
0.00493667
0.00501322
0.00508627
0.00515571
0.00522153
0.00528357
0.00534212
0.00539672
0.00544669
0.00551395
0.000435155
0.000426902
0.000418789
0.000410911
0.000403396
0.000396336
0.000389804
0.000383898
0.000378697
0.00037425
0.000370678
0.000368184
0.000367056
0.000367649
0.000370347
0.000375519
0.000383467
0.000394386
0.000408342
0.000425269
0.000444987
0.000467227
0.000491667
0.000517961
0.000545768
0.000574774
0.000604699
0.000635313
0.000666436
0.000697936
0.000729725
0.000761755
0.00079401
0.000826497
0.000859241
0.000892282
0.000925669
0.000959458
0.000993712
0.0010285
0.0010639
0.0011
0.00113689
0.00117467
0.00121346
0.00125339
0.0012946
0.00133724
0.00138149
0.00142751
0.0014755
0.00152566
0.00157817
0.00163325
0.00169108
0.00175183
0.00181567
0.00188272
0.00195308
0.00202679
0.00210387
0.00218428
0.00226793
0.00235467
0.00244433
0.0025367
0.00263154
0.00272857
0.00282751
0.00292807
0.00302995
0.00313285
0.00323648
0.00334056
0.00344484
0.00354905
0.00365298
0.00375641
0.00385912
0.00396091
0.00406158
0.00416093
0.00425875
0.00435485
0.00444901
0.00454104
0.00463074
0.00471793
0.00480242
0.00488406
0.00496268
0.00503815
0.00511036
0.00517919
0.00524461
0.00530644
0.00536495
0.00541971
0.00546984
0.00553766
0.00069165
0.000679406
0.000667531
0.000656173
0.00064542
0.000635261
0.000625646
0.000616514
0.000607855
0.000599622
0.000591761
0.000584245
0.000577094
0.000570383
0.000564252
0.000558902
0.000554599
0.000551653
0.000550401
0.000551177
0.000554284
0.000559957
0.000568349
0.000579517
0.000593422
0.00060995
0.000628926
0.000650137
0.000673356
0.000698358
0.000724933
0.000752898
0.000782099
0.000812415
0.000843754
0.000876059
0.000909298
0.000943464
0.000978573
0.00101466
0.00105178
0.00109001
0.00112943
0.00117014
0.00121225
0.00125589
0.00130121
0.00134835
0.00139746
0.00144872
0.00150229
0.00155833
0.001617
0.00167846
0.00174283
0.00181023
0.00188072
0.00195435
0.00203113
0.00211101
0.00219391
0.00227969
0.00236818
0.00245917
0.00255241
0.00264765
0.0027446
0.00284297
0.00294247
0.00304281
0.0031437
0.0032449
0.00334616
0.00344727
0.00354802
0.00364826
0.00374784
0.00384662
0.00394448
0.00404131
0.00413699
0.00423138
0.00432436
0.00441579
0.00450551
0.00459336
0.00467918
0.0047628
0.00484406
0.00492281
0.00499887
0.00507212
0.00514242
0.00520965
0.00527375
0.00533453
0.00539223
0.00544643
0.0054961
0.00556363
0.00102161
0.00100382
0.000986668
0.000970308
0.00095484
0.000940263
0.000926518
0.000913517
0.00090118
0.000889433
0.000878193
0.000867394
0.00085699
0.000846965
0.000837332
0.000828136
0.000819454
0.000811395
0.0008041
0.000797746
0.000792535
0.000788691
0.000786451
0.000786048
0.000787699
0.000791593
0.000797874
0.000806639
0.000817934
0.000831757
0.000848066
0.000866791
0.000887841
0.000911115
0.000936515
0.000963949
0.000993339
0.00102462
0.00105776
0.00109273
0.00112953
0.00116818
0.00120872
0.00125121
0.00129573
0.00134235
0.00139118
0.00144232
0.00149589
0.001552
0.00161077
0.00167228
0.00173665
0.00180393
0.00187417
0.0019474
0.0020236
0.00210272
0.00218467
0.00226932
0.00235649
0.00244597
0.00253752
0.00263087
0.00272574
0.00282181
0.00291879
0.00301637
0.00311426
0.00321219
0.00330992
0.00340721
0.0035039
0.00359981
0.00369484
0.00378889
0.00388191
0.00397384
0.00406467
0.00415437
0.00424291
0.00433024
0.00441631
0.00450106
0.00458438
0.00466618
0.00474631
0.00482466
0.00490106
0.00497538
0.00504745
0.00511712
0.00518426
0.00524872
0.00531042
0.00536916
0.00542513
0.00547793
0.00552639
0.00559264
0.00144366
0.0014179
0.0013932
0.00136964
0.00134733
0.00132624
0.00130634
0.00128751
0.00126968
0.00125275
0.00123663
0.00122125
0.00120655
0.00119251
0.00117912
0.00116641
0.00115439
0.00114313
0.00113268
0.00112311
0.00111452
0.00110701
0.00110069
0.00109568
0.00109214
0.00109019
0.00109
0.00109172
0.00109549
0.00110145
0.00110971
0.00112038
0.00113353
0.00114922
0.00116749
0.00118835
0.00121183
0.00123793
0.00126664
0.00129797
0.00133192
0.00136851
0.00140775
0.00144966
0.0014943
0.00154168
0.00159187
0.00164491
0.00170085
0.00175974
0.0018216
0.00188647
0.00195436
0.00202525
0.00209909
0.00217583
0.00225535
0.00233752
0.00242216
0.00250906
0.00259797
0.00268862
0.00278071
0.00287392
0.00296792
0.00306239
0.00315701
0.00325146
0.00334545
0.00343874
0.00353109
0.00362231
0.00371228
0.00380088
0.00388807
0.00397383
0.00405818
0.00414117
0.00422285
0.00430331
0.00438259
0.00446075
0.00453782
0.00461382
0.00468872
0.00476246
0.00483499
0.00490619
0.00497596
0.00504414
0.0051106
0.00517518
0.00523773
0.00529809
0.00535615
0.00541171
0.00546487
0.00551529
0.00556167
0.00562546
0.00196961
0.00193331
0.00189857
0.00186544
0.00183395
0.00180409
0.0017758
0.00174899
0.00172355
0.00169939
0.00167641
0.00165454
0.00163373
0.00161393
0.00159516
0.00157743
0.00156075
0.00154519
0.00153079
0.0015176
0.00150568
0.00149509
0.00148589
0.00147814
0.00147192
0.0014673
0.00146435
0.00146316
0.00146383
0.00146644
0.00147112
0.00147797
0.00148709
0.0014986
0.0015126
0.00152919
0.00154846
0.00157049
0.00159537
0.00162315
0.0016539
0.00168768
0.00172453
0.0017645
0.00180762
0.00185393
0.00190345
0.0019562
0.00201218
0.00207141
0.00213384
0.00219946
0.00226819
0.00233995
0.00241463
0.00249209
0.00257214
0.00265458
0.00273915
0.00282559
0.00291359
0.00300282
0.00309294
0.00318358
0.0032744
0.00336504
0.00345515
0.00354442
0.00363256
0.00371932
0.00380448
0.00388788
0.00396942
0.00404903
0.00412672
0.00420253
0.00427654
0.00434888
0.00441969
0.00448913
0.00455734
0.00462449
0.00469068
0.00475602
0.00482057
0.00488436
0.00494737
0.00500956
0.00507086
0.00513114
0.00519029
0.00524814
0.00530455
0.00535935
0.00541241
0.00546349
0.00551266
0.00555958
0.00560289
0.00566288
0.00259993
0.00255105
0.00250424
0.00245951
0.00241688
0.0023763
0.00233769
0.00230097
0.00226604
0.00223279
0.00220113
0.00217097
0.00214226
0.00211497
0.0020891
0.00206466
0.00204167
0.0020202
0.00200028
0.00198197
0.00196534
0.00195043
0.00193729
0.00192598
0.00191654
0.001909
0.00190341
0.00189981
0.00189824
0.00189877
0.00190143
0.00190631
0.00191347
0.00192299
0.00193496
0.00194947
0.00196662
0.00198649
0.00200919
0.00203481
0.00206344
0.00209515
0.00213002
0.00216811
0.00220948
0.00225416
0.00230219
0.00235357
0.00240829
0.00246634
0.00252767
0.00259219
0.00265981
0.0027304
0.00280379
0.0028798
0.0029582
0.00303871
0.00312105
0.0032049
0.0032899
0.0033757
0.00346191
0.00354814
0.00363402
0.00371917
0.00380323
0.00388587
0.0039668
0.00404575
0.00412253
0.00419699
0.00426903
0.00433863
0.0044058
0.00447065
0.00453329
0.00459392
0.00465274
0.00470997
0.00476587
0.00482066
0.00487455
0.00492774
0.00498038
0.00503258
0.00508441
0.0051359
0.00518702
0.0052377
0.00528786
0.00533737
0.00538606
0.00543378
0.00548038
0.00552562
0.0055695
0.00561171
0.00565087
0.00570557
0.00332332
0.00326085
0.0032009
0.00314347
0.00308853
0.00303602
0.00298588
0.00293799
0.00289228
0.00284864
0.00280696
0.00276718
0.00272924
0.00269311
0.00265877
0.00262624
0.00259555
0.00256675
0.00253989
0.00251504
0.00249224
0.00247156
0.00245305
0.00243676
0.00242273
0.00241099
0.00240157
0.00239449
0.00238979
0.00238748
0.00238759
0.00239016
0.00239522
0.00240281
0.00241298
0.0024258
0.00244131
0.00245961
0.00248075
0.00250481
0.00253187
0.002562
0.00259526
0.00263172
0.00267143
0.00271442
0.0027607
0.0028103
0.00286318
0.00291932
0.00297863
0.00304104
0.00310641
0.00317459
0.00324538
0.00331857
0.00339388
0.00347104
0.0035497
0.00362953
0.00371014
0.00379115
0.00387216
0.00395276
0.00403255
0.00411115
0.00418818
0.00426331
0.00433623
0.00440669
0.00447449
0.00453947
0.00460156
0.00466073
0.00471702
0.00477056
0.00482149
0.00487003
0.00491644
0.00496099
0.005004
0.00504577
0.00508658
0.00512672
0.00516644
0.00520593
0.00524536
0.00528482
0.00532437
0.00536402
0.00540372
0.00544338
0.00548288
0.00552206
0.00556078
0.0055988
0.00563607
0.0056723
0.00570618
0.005754
0.00411875
0.00404301
0.00397012
0.00390005
0.00383275
0.00376816
0.00370622
0.00364684
0.00358992
0.00353539
0.00348315
0.00343312
0.00338527
0.00333956
0.00329597
0.00325453
0.00321526
0.00317822
0.00314345
0.00311101
0.00308097
0.00305338
0.00302832
0.00300582
0.00298593
0.00296868
0.00295411
0.00294224
0.00293309
0.00292667
0.002923
0.00292209
0.00292395
0.0029286
0.00293608
0.00294639
0.00295959
0.0029757
0.00299476
0.00301683
0.00304194
0.00307015
0.00310148
0.00313599
0.00317369
0.0032146
0.00325874
0.00330607
0.00335657
0.00341018
0.00346682
0.00352636
0.00358868
0.00365358
0.00372086
0.00379027
0.00386153
0.00393433
0.00400832
0.00408314
0.00415841
0.0042337
0.00430863
0.00438277
0.00445572
0.00452708
0.00459648
0.00466359
0.0047281
0.00478975
0.00484834
0.00490372
0.00495581
0.00500459
0.00505011
0.00509249
0.00513189
0.00516855
0.00520274
0.00523477
0.00526499
0.00529374
0.00532138
0.00534827
0.00537471
0.005401
0.00542738
0.00545405
0.00548114
0.00550874
0.00553687
0.0055655
0.00559457
0.00562394
0.0056535
0.00568302
0.00571244
0.00574145
0.00576893
0.00580827
0.00495882
0.0048715
0.00478714
0.00470571
0.00462717
0.00455148
0.00447856
0.00440835
0.00434079
0.0042758
0.00421331
0.00415326
0.00409561
0.00404034
0.00398745
0.00393695
0.00388887
0.00384326
0.00380018
0.00375969
0.00372186
0.00368674
0.0036544
0.0036249
0.00359829
0.0035746
0.00355388
0.00353615
0.00352143
0.00350973
0.00350107
0.00349545
0.00349289
0.00349338
0.00349694
0.00350357
0.00351328
0.00352609
0.00354202
0.00356107
0.00358326
0.00360862
0.00363714
0.00366885
0.00370373
0.00374178
0.00378297
0.00382726
0.0038746
0.0039249
0.00397805
0.00403392
0.00409235
0.00415314
0.00421605
0.00428082
0.00434717
0.00441475
0.00448323
0.00455222
0.00462133
0.00469016
0.00475829
0.00482531
0.00489082
0.00495442
0.00501576
0.00507449
0.00513033
0.005183
0.00523233
0.00527815
0.0053204
0.00535905
0.00539415
0.0054258
0.00545418
0.00547952
0.00550208
0.0055222
0.00554022
0.00555651
0.00557148
0.0055855
0.00559896
0.0056122
0.00562554
0.00563926
0.00565359
0.00566867
0.00568463
0.00570151
0.0057193
0.00573794
0.00575733
0.00577731
0.00579779
0.00581849
0.00583855
0.00586788
0.00581332
0.00571724
0.005624
0.00553359
0.00544599
0.00536118
0.0052791
0.00519973
0.00512301
0.0050489
0.00497735
0.00490832
0.0048418
0.00477777
0.00471624
0.00465724
0.0046008
0.00454697
0.00449583
0.00444742
0.00440182
0.00435911
0.00431934
0.00428258
0.00424889
0.00421831
0.00419088
0.00416665
0.00414564
0.00412786
0.00411334
0.00410207
0.00409408
0.00408936
0.0040879
0.00408972
0.00409481
0.00410317
0.00411479
0.00412967
0.0041478
0.00416917
0.00419377
0.00422158
0.00425257
0.0042867
0.00432391
0.00436415
0.00440733
0.00445333
0.00450203
0.00455326
0.00460685
0.00466258
0.00472019
0.00477942
0.00483994
0.00490144
0.00496354
0.00502588
0.00508805
0.00514966
0.00521029
0.00526955
0.00532704
0.00538239
0.00543523
0.00548525
0.00553216
0.00557572
0.00561573
0.00565207
0.00568465
0.00571345
0.00573852
0.00575996
0.00577793
0.00579264
0.00580436
0.0058134
0.00582011
0.00582485
0.00582803
0.00583004
0.00583129
0.00583218
0.00583306
0.00583428
0.00583612
0.00583882
0.00584258
0.00584751
0.00585368
0.0058611
0.00586973
0.00587946
0.00589023
0.00590177
0.00591359
0.00593161
0.00665249
0.00655125
0.00645252
0.00635631
0.00626263
0.00617148
0.00608285
0.00599674
0.00591312
0.00583199
0.00575331
0.00567709
0.00560332
0.00553202
0.00546321
0.00539692
0.00533321
0.00527213
0.00521376
0.00515816
0.00510542
0.0050556
0.00500878
0.00496503
0.00492442
0.004887
0.00485283
0.00482194
0.00479438
0.00477016
0.00474932
0.00473187
0.00471782
0.00470717
0.00469992
0.00469608
0.00469564
0.00469858
0.00470489
0.00471456
0.00472756
0.00474386
0.00476344
0.00478624
0.00481222
0.00484132
0.00487346
0.00490854
0.00494647
0.00498709
0.00503027
0.00507582
0.00512353
0.00517317
0.00522448
0.00527717
0.00533092
0.00538539
0.00544022
0.00549504
0.00554945
0.00560306
0.00565547
0.0057063
0.00575517
0.00580171
0.00584559
0.00588651
0.0059242
0.00595843
0.00598903
0.00601588
0.0060389
0.00605808
0.00607347
0.00608515