/*--------------------------------*- C++ -*----------------------------------*\
| =========                 |                                                 |
| \\      /  F ield         | OpenFOAM: The Open Source CFD Toolbox           |
|  \\    /   O peration     | Version:  4.1                                   |
|   \\  /    A nd           | Web:      www.OpenFOAM.org                      |
|    \\/     M anipulation  |                                                 |
\*---------------------------------------------------------------------------*/
FoamFile
{
    version     2.0;
    format      ascii;
    class       volScalarField;
    location    "1400";
    object      omega;
}
// * * * * * * * * * * * * * * * * * * * * * * * * * * * * * * * * * * * * * //

dimensions      [0 0 -1 0 0 0 0];

internalField   nonuniform List<scalar> 
6820
(
7254.63
8569.06
9629.25
10283
10668.4
10885.8
10995.8
11035
11026.8
10987.3
10927.3
10854.4
10774
10689.7
10604.1
10519.1
10435.8
10355
10277.3
10202.9
10131.9
10064.5
10000.5
9939.96
9882.64
9828.44
9777.22
9728.83
9682.96
9640.18
9596.8
9568.89
9477.18
600.799
1554.22
2092.91
2435.19
2698.34
2895.12
3033.36
3126.97
3188.97
3229.02
3253.95
3268.66
3276.58
3280.07
3280.76
3279.74
3277.76
3275.34
3272.79
3270.35
3268.14
3266.24
3264.68
3263.49
3262.67
3262.21
3262.13
3262.42
3263.16
3264.38
3266.26
3268.74
3273.95
107.108
368.908
596.394
767.386
894.981
993.333
1070.57
1131.54
1179.69
1217.64
1247.46
1270.8
1289.01
1303.18
1314.18
1322.69
1329.28
1334.36
1338.29
1341.34
1343.74
1345.64
1347.19
1348.48
1349.62
1350.65
1351.63
1352.62
1353.63
1354.72
1355.91
1357.23
1358.9
37.6577
108.378
189.201
265.511
332.231
389.334
437.981
479.461
514.908
545.244
571.225
593.484
612.561
628.919
642.952
655
665.355
674.264
681.942
688.568
694.299
699.266
703.584
707.348
710.642
713.536
716.092
718.362
720.394
722.227
723.902
725.45
726.92
23.8008
47.5371
77.7008
109.824
141.237
170.722
197.836
222.517
244.873
265.071
283.289
299.702
314.481
327.785
339.76
350.541
360.251
369.001
376.893
384.016
390.451
396.273
401.545
406.327
410.67
414.621
418.222
421.511
424.523
427.288
429.838
432.196
434.4
19.8177
29.4751
42.5079
57.2096
72.4553
87.5719
102.186
116.107
129.248
141.581
153.108
163.851
173.844
183.124
191.733
199.715
207.112
213.965
220.315
226.198
231.652
236.708
241.4
245.755
249.8
253.562
257.062
260.323
263.364
266.205
268.864
271.356
273.702
18.4341
22.8152
29.1685
36.6489
44.6826
52.9063
61.0978
69.1227
76.9009
84.3846
91.547
98.3752
104.866
111.021
116.849
122.36
127.565
132.478
137.112
141.482
145.601
149.485
153.146
156.598
159.853
162.924
165.822
168.558
171.143
173.587
175.9
178.091
180.17
17.9115
19.9902
23.3042
27.4134
31.9742
36.7598
41.6266
46.4842
51.2743
55.9588
60.5124
64.9191
69.1691
73.2568
77.1804
80.9398
84.5373
87.9759
91.26
94.3942
97.3839
100.235
102.952
105.542
108.011
110.363
112.605
114.742
116.78
118.724
120.578
122.349
124.04
17.7059
18.7013
20.4733
22.8216
25.5371
28.4654
31.5038
34.5853
37.6657
40.7151
43.7129
46.6449
49.5015
52.2761
54.9646
57.5647
60.0753
62.4964
64.8286
67.0733
69.2323
71.3076
73.3015
75.2166
77.0555
78.8208
80.5154
82.1419
83.7032
85.2018
86.6405
88.0218
89.3484
17.6233
18.0951
19.0401
20.3949
22.0449
23.887
25.8451
27.8668
29.9161
31.9683
34.006
36.0167
37.9918
39.9249
41.8117
43.6491
45.4353
47.169
48.8497
50.4774
52.0523
53.5752
55.0468
56.4682
57.8405
59.1651
60.4432
61.6762
62.8656
64.0128
65.1192
66.1861
67.215
17.5896
17.8082
18.3025
19.0753
20.0762
21.243
22.5218
23.8719
25.2637
26.6759
28.0932
29.5047
30.9021
32.2796
33.6327
34.9584
36.2544
37.5191
38.7513
39.9506
41.1166
42.2491
43.3485
44.415
45.449
46.4512
47.4221
48.3624
49.2729
50.1543
51.0074
51.8329
52.6316
17.5758
17.6732
17.924
18.3539
18.9503
19.682
20.5146
21.4186
22.3704
23.3521
24.3502
25.3549
26.3585
27.3555
28.3414
29.3132
30.2685
31.2053
32.1225
33.019
33.8943
34.748
35.5797
36.3896
37.1776
37.9439
38.6887
39.4125
40.1154
40.7979
41.4603
42.1032
42.7268
17.5702
17.6104
17.7324
17.9633
18.3084
18.7568
19.2901
19.889
20.5362
21.2175
21.9216
22.6397
23.3649
24.0918
24.8164
25.5355
26.2466
26.9478
27.6377
28.3151
28.9791
29.6293
30.2651
30.8863
31.4927
32.0843
32.661
33.2229
33.7702
34.303
34.8215
35.3259
35.8163
17.5678
17.5817
17.6374
17.7559
17.9479
18.2137
18.5461
18.9343
19.3672
19.8343
20.3268
20.8373
21.3597
21.8894
22.4224
22.9557
23.4869
24.0139
24.5354
25.05
25.5568
26.0551
26.5443
27.0239
27.4937
27.9535
28.403
28.8423
29.2712
29.6898
30.0982
30.4964
30.8845
17.5669
17.5687
17.5913
17.6483
17.7501
17.9012
18.1009
18.3448
18.6268
18.9402
19.2785
19.6362
20.0084
20.3909
20.7804
21.1739
21.5693
21.9647
22.3585
22.7494
23.1364
23.5188
23.8959
24.2671
24.632
24.9904
25.3419
25.6865
26.0239
26.3541
26.677
26.9926
27.3009
17.5665
17.563
17.5695
17.5941
17.6444
17.7258
17.8404
17.9877
18.1651
18.369
18.5955
18.8405
19.1005
19.3722
19.6527
19.9397
20.2311
20.5251
20.8203
21.1155
21.4097
21.702
21.9918
22.2784
22.5614
22.8404
23.1151
23.3853
23.6507
23.9112
24.1667
24.4171
24.6623
17.5663
17.5605
17.5594
17.5675
17.5897
17.6303
17.6923
17.7769
17.8837
18.0113
18.1577
18.3205
18.4972
18.6856
18.8834
19.0888
19.2999
19.5153
19.7338
19.9541
20.1753
20.3967
20.6176
20.8372
21.0553
21.2713
21.4849
21.6958
21.9038
22.1087
22.3103
22.5085
22.7032
17.5662
17.5595
17.5549
17.5548
17.5621
17.5799
17.6107
17.6561
17.7169
17.7929
17.8836
17.9876
18.1036
18.2302
18.3657
18.5089
18.6583
18.8128
18.9713
19.1329
19.2967
19.4619
19.628
19.7943
19.9605
20.126
20.2906
20.4539
20.6157
20.7757
20.9337
21.0897
21.2434
17.5662
17.559
17.5529
17.5489
17.5487
17.5542
17.5672
17.5891
17.6211
17.6636
17.7166
17.7799
17.8528
17.9345
18.0241
18.1207
18.2233
18.3311
18.4432
18.559
18.6776
18.7985
18.9211
19.045
19.1696
19.2947
19.4198
19.5447
19.6691
19.7927
19.9155
20.0371
20.1576
17.5662
17.5588
17.552
17.5462
17.5424
17.5415
17.5447
17.5532
17.5679
17.5894
17.6181
17.6542
17.6975
17.7477
17.8043
17.8668
17.9347
18.0074
18.0842
18.1648
18.2484
18.3347
18.4232
18.5135
18.6052
18.698
18.7916
18.8856
18.98
19.0743
19.1685
19.2624
19.3558
17.5662
17.5588
17.5516
17.5451
17.5395
17.5354
17.5335
17.5346
17.5394
17.5483
17.562
17.5807
17.6044
17.6332
17.667
17.7054
17.7484
17.7954
17.8462
17.9004
17.9576
18.0175
18.0797
18.144
18.2101
18.2776
18.3463
18.416
18.4865
18.5575
18.629
18.7006
18.7724
17.5662
17.5587
17.5515
17.5445
17.5381
17.5325
17.5281
17.5253
17.5246
17.5265
17.5312
17.5392
17.5506
17.5656
17.5843
17.6065
17.6322
17.6612
17.6934
17.7286
17.7666
17.807
17.8498
17.8946
17.9413
17.9896
18.0394
18.0905
18.1426
18.1956
18.2494
18.3038
18.3586
17.5662
17.5587
17.5514
17.5443
17.5376
17.5313
17.5256
17.5209
17.5174
17.5153
17.5151
17.5169
17.5211
17.5277
17.5369
17.5487
17.5632
17.5804
17.6002
17.6225
17.6471
17.6741
17.7031
17.7342
17.7671
17.8017
17.8378
17.8753
17.914
17.9539
17.9947
18.0363
18.0788
17.5662
17.5587
17.5514
17.5442
17.5373
17.5307
17.5245
17.5189
17.514
17.5101
17.5074
17.506
17.5063
17.5083
17.5122
17.5181
17.5261
17.5363
17.5486
17.563
17.5795
17.5981
17.6186
17.6409
17.665
17.6907
17.718
17.7467
17.7767
17.8079
17.8402
17.8735
17.9077
17.5662
17.5587
17.5514
17.5442
17.5372
17.5306
17.5242
17.5183
17.513
17.5084
17.5048
17.5022
17.501
17.5012
17.503
17.5065
17.5117
17.5189
17.5279
17.5389
17.5517
17.5664
17.5829
17.6012
17.6212
17.6427
17.6657
17.6902
17.716
17.743
17.7711
17.8002
17.8303
17.5662
17.5587
17.5514
17.5442
17.5373
17.5307
17.5244
17.5187
17.5136
17.5094
17.5062
17.5041
17.5034
17.5042
17.5067
17.5108
17.5168
17.5246
17.5343
17.5459
17.5593
17.5746
17.5917
17.6104
17.6308
17.6528
17.6762
17.701
17.727
17.7543
17.7826
17.8119
17.8422
17.5662
17.5587
17.5514
17.5443
17.5376
17.5312
17.5255
17.5205
17.5166
17.5139
17.5127
17.5131
17.5153
17.5194
17.5256
17.5338
17.5442
17.5568
17.5714
17.5881
17.6068
17.6274
17.6498
17.674
17.6998
17.7271
17.7558
17.7858
17.817
17.8493
17.8826
17.9167
17.9517
17.5662
17.5587
17.5515
17.5446
17.5383
17.5328
17.5283
17.5254
17.5242
17.5251
17.5284
17.5344
17.543
17.5544
17.5687
17.5858
17.6056
17.6281
17.6531
17.6805
17.7101
17.7417
17.7753
17.8106
17.8475
17.8859
17.9255
17.9663
18.0082
18.0509
18.0944
18.1386
18.1834
17.5662
17.5588
17.5518
17.5455
17.5403
17.5368
17.5355
17.5371
17.542
17.5507
17.5634
17.5803
17.6014
17.6267
17.656
17.689
17.7256
17.7655
17.8084
17.854
17.902
17.9521
18.0042
18.0579
18.1131
18.1695
18.227
18.2853
18.3443
18.4039
18.4639
18.5241
18.5847
17.5663
17.5591
17.5527
17.548
17.5458
17.5473
17.5535
17.5653
17.5834
17.6079
17.6392
17.677
17.7211
17.771
17.8263
17.8865
17.9509
18.0192
18.0908
18.1652
18.2419
18.3207
18.4011
18.4827
18.5654
18.6489
18.7328
18.817
18.9014
18.9857
19.0699
19.1538
19.2372
17.5663
17.5598
17.5555
17.5552
17.5611
17.5751
17.5988
17.6332
17.6786
17.7349
17.8015
17.8776
17.9624
18.0547
18.1535
18.2578
18.3668
18.4796
18.5954
18.7136
18.8335
18.9548
19.0768
19.1993
19.3218
19.4441
19.566
19.6872
19.8076
19.927
20.0452
20.1623
20.278
17.5666
17.5622
17.5642
17.5767
17.6039
17.6486
17.7124
17.7951
17.896
18.0132
18.145
18.289
18.4433
18.606
18.7753
18.9497
19.1279
19.3087
19.4912
19.6746
19.8581
20.0413
20.2237
20.4048
20.5843
20.762
20.9376
21.111
21.282
21.4506
21.6165
21.7799
21.9406
17.5674
17.5706
17.5924
17.6417
17.7245
17.8427
17.995
18.1778
18.3868
18.6172
18.8646
19.125
19.3951
19.6719
19.953
20.2365
20.5208
20.8047
21.0871
21.3673
21.6446
21.9185
22.1886
22.4547
22.7164
22.9737
23.2264
23.4745
23.7178
23.9564
24.1903
24.4195
24.6441
17.5706
17.6016
17.687
17.8408
18.065
18.3527
18.6933
19.0751
19.4875
19.9213
20.3693
20.8257
21.2861
21.7468
22.2054
22.6598
23.1087
23.5511
23.9862
24.4134
24.8323
25.2429
25.6448
26.0381
26.4227
26.7987
27.1662
27.5252
27.8759
28.2185
28.553
28.8797
29.1987
17.5854
17.7219
18.012
18.4558
19.0269
19.692
20.4205
21.1884
21.9779
22.7761
23.5742
24.3656
25.1458
25.912
26.6624
27.3959
28.112
28.8105
29.4913
30.1545
30.8004
31.4293
32.0415
32.6374
33.2175
33.7821
34.3317
34.8666
35.3874
35.8943
36.3879
36.8684
37.3364
17.6614
18.2163
19.1616
20.3924
21.7983
23.2954
24.8285
26.3634
27.8795
29.3646
30.811
32.2141
33.5725
34.8867
36.158
37.3876
38.5772
39.7282
40.8423
41.9208
42.9651
43.9767
44.9567
45.9064
46.827
47.7196
48.5852
49.4247
50.2393
51.0298
51.797
52.5418
53.2651
18.1027
20.3856
23.4854
26.9261
30.4414
33.9035
37.2583
40.4819
43.5648
46.506
49.3035
51.9688
54.5134
56.9473
59.2787
61.5147
63.6615
65.7246
67.7086
69.6179
71.4564
73.2276
74.9349
76.5812
78.1694
79.7023
81.1822
82.6115
83.9926
85.3274
86.618
87.8663
89.0742
21.2182
31.4407
42.4859
53.1245
62.9728
72.0352
80.4369
88.1941
95.3421
101.98
108.198
114.053
119.587
124.83
129.807
134.537
139.039
143.329
147.42
151.324
155.055
158.621
162.033
165.301
168.432
171.434
174.316
177.083
179.742
182.299
184.76
187.13
189.415
59.9537
123.961
170.318
207.141
238.336
266.971
293.908
319.086
342.453
364.003
383.807
401.994
418.713
434.118
448.35
461.54
473.802
485.236
495.932
505.967
515.408
524.313
532.733
540.715
548.297
555.515
562.398
568.975
575.269
581.303
587.096
592.664
598.029
1719.4
1778.23
1839.24
1895.41
1945.93
1992.23
2035.28
2075.52
2113.26
2148.7
2182.04
2213.4
2242.93
2270.74
2296.93
2321.61
2344.85
2366.74
2387.37
2406.81
2425.12
2442.37
2458.63
2473.95
2488.38
2501.98
2514.8
2526.87
2538.26
2548.98
2559.1
2568.62
2577.62
9372.67
8893.27
8342.68
7781.32
7246.27
6751.7
6303.35
5899.46
5534.9
5203.82
4901.15
4623.1
4366.96
4130.76
3912.89
3711.94
3526.54
3355.36
3197.13
3050.68
2914.95
2788.95
2671.78
2562.58
2460.53
2364.86
2274.83
2189.78
2109.1
2032.23
1958.68
1888.03
1819.88
1753.9
1689.79
1627.3
1566.22
1506.36
1447.58
1389.77
1332.85
1276.77
1221.5
1167.04
1113.42
1060.7
1008.93
958.225
908.675
860.402
813.531
768.19
724.505
682.599
642.58
604.547
568.576
534.724
503.026
473.492
446.107
420.836
397.621
376.389
357.051
339.506
323.646
309.358
296.527
285.037
274.775
265.631
257.498
250.275
243.868
238.185
233.144
228.667
224.681
221.12
217.925
215.04
212.416
210.008
207.778
205.689
203.711
201.818
199.986
198.196
196.429
194.673
192.914
191.142
189.349
187.526
185.676
183.766
181.955
179.227
3274.97
3321.18
3380.38
3438.1
3501.56
3568.52
3631.68
3682.63
3714.58
3723.21
3706.81
3665.88
3602.6
3520.26
3422.75
3314.22
3198.64
3079.56
2959.88
2841.8
2726.83
2615.86
2509.34
2407.4
2309.98
2216.9
2127.92
2042.8
1961.27
1883.03
1807.83
1735.38
1665.45
1597.78
1532.17
1468.43
1406.4
1345.95
1286.95
1229.33
1173.03
1118.01
1064.25
1011.76
960.57
910.719
862.264
815.275
769.831
726.013
683.907
643.595
605.151
568.644
534.126
501.637
471.198
442.813
416.467
392.126
369.739
349.24
330.55
313.58
298.231
284.402
271.988
260.884
250.986
242.193
234.407
227.534
221.487
216.182
211.539
207.485
203.951
200.872
198.19
195.849
193.799
191.992
190.388
188.946
187.634
186.419
185.276
184.179
183.108
182.045
180.975
179.884
178.761
177.598
176.387
175.12
173.8
172.4
171.051
168.959
1361.03
1366.11
1375.09
1386.76
1400.62
1416.81
1436.12
1460.16
1490.51
1527.99
1572.55
1623.25
1678.18
1734.59
1789.14
1838.32
1878.92
1908.39
1925.17
1928.76
1919.66
1899.11
1868.85
1830.75
1786.68
1738.26
1686.85
1633.52
1579.07
1524.09
1469.03
1414.18
1359.77
1305.97
1252.87
1200.58
1149.14
1098.61
1049.03
1000.43
952.853
906.346
860.955
816.732
773.737
732.034
691.689
652.772
615.35
579.488
545.248
512.683
481.835
452.738
425.411
399.858
376.073
354.03
333.694
315.015
297.931
282.372
268.261
255.515
244.048
233.774
224.605
216.457
209.248
202.898
197.331
192.477
188.266
184.637
181.527
178.881
176.645
174.769
173.206
171.912
170.846
169.969
169.246
168.645
168.135
167.691
167.286
166.901
166.515
166.112
165.678
165.2
164.669
164.075
163.412
162.672
161.859
160.949
160.045
158.573
728.551
730.466
732.5
734.572
736.683
738.962
741.646
744.923
749.012
754.465
761.881
771.836
784.835
801.251
821.259
844.768
871.364
900.287
930.445
960.492
988.952
1014.37
1035.48
1051.31
1061.25
1065.09
1062.96
1055.24
1042.5
1025.39
1004.58
980.703
954.355
926.046
896.221
865.262
833.491
801.187
768.587
735.901
703.31
670.977
639.049
607.658
576.927
546.967
517.882
489.763
462.695
436.749
411.988
388.463
366.212
345.261
325.623
307.3
290.281
274.544
260.058
246.78
234.664
223.656
213.697
204.727
196.685
189.508
183.135
177.508
172.569
168.264
164.54
161.349
158.642
156.376
154.508
152.997
151.804
150.893
150.227
149.774
149.5
149.375
149.37
149.457
149.611
149.807
150.025
150.245
150.448
150.618
150.743
150.81
150.809
150.73
150.568
150.315
149.972
149.522
149.038
148.156
436.779
439.382
441.873
444.127
446.068
447.711
449.121
450.395
451.593
452.823
454.228
455.967
458.202
461.098
464.814
469.499
475.277
482.234
490.4
499.73
510.085
521.226
532.813
544.418
555.557
565.725
574.439
581.277
585.908
588.113
587.784
584.918
579.6
571.987
562.28
550.711
537.522
522.959
507.26
490.653
473.351
455.551
437.435
419.171
400.911
382.793
364.942
347.469
330.473
314.038
298.236
283.127
268.759
255.167
242.374
230.396
219.234
208.885
199.335
190.565
182.55
175.26
168.662
162.724
157.408
152.678
148.5
144.837
141.656
138.924
136.609
134.681
133.11
131.867
130.924
130.256
129.835
129.636
129.632
129.799
130.113
130.548
131.082
131.692
132.354
133.05
133.758
134.461
135.142
135.785
136.376
136.904
137.358
137.727
138.006
138.186
138.268
138.236
138.138
137.804
276.259
279.048
281.726
284.232
286.511
288.547
290.352
291.955
293.386
294.677
295.871
297.007
298.126
299.265
300.463
301.755
303.179
304.77
306.565
308.593
310.877
313.425
316.228
319.253
322.439
325.699
328.917
331.954
334.661
336.879
338.459
339.265
339.187
338.145
336.091
333.011
328.922
323.868
317.917
311.152
303.67
295.574
286.973
277.977
268.691
259.219
249.658
240.099
230.625
221.311
212.223
203.416
194.941
186.837
179.134
171.857
165.022
158.638
152.709
147.234
142.207
137.618
133.456
129.707
126.354
123.382
120.773
118.51
116.577
114.955
113.628
112.579
111.792
111.25
110.938
110.837
110.932
111.205
111.639
112.217
112.919
113.727
114.624
115.589
116.604
117.651
118.712
119.771
120.81
121.814
122.771
123.666
124.489
125.23
125.879
126.43
126.879
127.214
127.459
127.619
182.459
184.971
187.403
189.729
191.919
193.96
195.849
197.594
199.203
200.689
202.066
203.344
204.536
205.647
206.684
207.649
208.546
209.377
210.148
210.862
211.528
212.151
212.741
213.302
213.838
214.344
214.813
215.228
215.564
215.789
215.863
215.743
215.384
214.739
213.767
212.433
210.711
208.585
206.048
203.106
199.775
196.08
192.056
187.742
183.183
178.428
173.525
168.526
163.478
158.429
153.422
148.498
143.693
139.038
134.561
130.284
126.228
122.404
118.825
115.498
112.426
109.61
107.051
104.745
102.688
100.876
99.3013
97.9588
96.8412
95.9412
95.2512
94.7637
94.4704
94.3632
94.4332
94.6713
95.0676
95.6118
96.2926
97.0981
98.0154
99.031
100.13
101.299
102.52
103.78
105.061
106.348
107.626
108.88
110.096
111.261
112.363
113.39
114.333
115.183
115.936
116.58
117.116
117.707
125.916
127.991
130.017
131.981
133.868
135.668
137.379
139
140.532
141.98
143.347
144.637
145.851
146.99
148.053
149.035
149.932
150.74
151.453
152.068
152.582
152.993
153.301
153.508
153.617
153.629
153.549
153.38
153.121
152.772
152.33
151.788
151.14
150.374
149.48
148.446
147.261
145.917
144.404
142.72
140.865
138.841
136.656
134.321
131.852
129.265
126.582
123.824
121.014
118.178
115.337
112.515
109.734
107.014
104.375
101.832
99.3998
97.0915
94.9173
92.8855
91.0025
89.2734
87.7013
86.2883
85.0356
83.9432
83.0107
82.2368
81.6199
81.1582
80.8493
80.6905
80.6789
80.8111
81.0833
81.4911
82.0298
82.6934
83.4757
84.3692
85.3656
86.4553
87.6281
88.8725
90.1762
91.5262
92.9091
94.3107
95.7171
97.1142
98.4883
99.8261
101.115
102.343
103.5
104.575
105.562
106.452
107.223
108.172
90.8298
92.4776
94.0979
95.6837
97.2273
98.7227
100.166
101.557
102.893
104.175
105.404
106.581
107.704
108.772
109.783
110.733
111.616
112.427
113.161
113.812
114.374
114.844
115.218
115.494
115.671
115.748
115.729
115.614
115.407
115.109
114.725
114.256
113.705
113.071
112.356
111.56
110.681
109.719
108.673
107.544
106.331
105.037
103.664
102.217
100.702
99.1266
97.4996
95.8311
94.1322
92.4147
90.6909
88.9733
87.2743
85.606
83.98
82.4069
80.8967
79.4585
78.1001
76.8284
75.6494
74.568
73.5882
72.7134
71.9461
71.2883
70.7415
70.307
69.9854
69.7772
69.6827
69.7019
69.8345
70.0799
70.4373
70.9053
71.4823
72.1657
72.9526
73.8389
74.82
75.8898
77.0415
78.267
79.5573
80.9022
82.2907
83.711
85.1509
86.5977
88.0383
89.4601
90.8504
92.1971
93.4889
94.7144
95.8663
96.9353
97.8842
99.1135
68.3696
69.6603
70.9366
72.1947
73.4301
74.6391
75.8189
76.968
78.0847
79.1685
80.2188
81.235
82.2161
83.1601
84.0648
84.9267
85.7421
86.5066
87.2153
87.8635
88.4463
88.9593
89.3986
89.7609
90.0438
90.2456
90.3658
90.4044
90.3625
90.2417
90.0442
89.7725
89.4292
89.0172
88.5392
87.9978
87.3954
86.7346
86.0175
85.2465
84.424
83.5527
82.6357
81.6765
80.679
79.6479
78.5883
77.5061
76.4075
75.2993
74.1886
73.0826
71.9887
70.9145
69.8669
68.8531
67.8797
66.9527
66.078
65.2605
64.5049
63.8154
63.1955
62.6482
62.1764
61.7824
61.4683
61.2359
61.0868
61.0224
61.0441
61.153
61.3502
61.6365
62.0127
62.4792
63.036
63.683
64.4193
65.2435
66.1534
67.146
68.2172
69.3619
70.5741
71.8465
73.1708
74.5377
75.9372
77.3582
78.7896
80.2194
81.6359
83.027
84.3815
85.6877
86.9369
88.1209
89.1889
90.62
53.5312
54.5409
55.5441
56.5382
57.5206
58.489
59.4414
60.3763
61.2924
62.1888
63.0646
63.919
64.7508
65.5585
66.3402
67.0933
67.815
68.502
69.1508
69.7575
70.3185
70.83
71.2885
71.6909
72.0345
72.3172
72.5373
72.694
72.7869
72.8163
72.7831
72.6885
72.5343
72.3225
72.0555
71.7358
71.3659
70.9486
70.4867
69.983
69.4404
68.862
68.2507
67.6098
66.9429
66.2536
65.5457
64.8234
64.091
63.3532
62.6146
61.88
61.1545
60.4429
59.7501
59.0808
58.4395
57.8307
57.2583
56.7261
56.2376
55.796
55.4042
55.0648
54.7801
54.5524
54.3835
54.2755
54.23
54.2487
54.3332
54.485
54.7058
54.9971
55.3601
55.7963
56.3068
56.8926
57.5541
58.2917
59.105
59.9929
60.9537
61.9848
63.0825
64.2422
65.4583
66.7241
68.0318
69.3727
70.7375
72.116
73.4977
74.8714
76.2266
77.5518
78.8375
80.077
81.2095
82.766
43.4314
44.225
45.0163
45.8038
46.5859
47.361
48.1278
48.885
49.6316
50.3666
51.0894
51.799
52.4945
53.1746
53.8378
54.4823
55.106
55.7065
56.2814
56.8276
57.3426
57.8233
58.267
58.6711
59.0331
59.3511
59.6232
59.8481
60.0249
60.1531
60.2327
60.264
60.2478
60.1851
60.0775
59.9265
59.7342
59.5027
59.2342
58.9313
58.5964
58.2323
57.8417
57.4275
56.9926
56.5402
56.0734
55.5955
55.1099
54.6201
54.1296
53.6419
53.1607
52.6895
52.2319
51.7912
51.3709
50.974
50.6035
50.2624
49.9532
49.6783
49.44
49.2404
49.0815
48.965
48.8927
48.8662
48.8872
48.9571
49.0775
49.25
49.4763
49.758
50.0966
50.494
50.9516
51.4709
52.0534
52.7002
53.4119
54.1891
55.0314
55.938
56.9074
57.937
59.0235
60.1624
61.3485
62.5753
63.8357
65.1214
66.4236
67.7329
69.0395
70.333
71.6042
72.8473
73.9957
75.6077
36.3719
36.9995
37.6273
38.2543
38.8795
39.5017
40.1202
40.7337
41.3417
41.9433
42.5378
43.1245
43.7027
44.2712
44.8291
45.3749
45.9073
46.4244
46.9244
47.4052
47.8649
48.3013
48.7121
49.0955
49.4493
49.7719
50.0616
50.3171
50.5374
50.7215
50.8691
50.98
51.0543
51.0924
51.095
51.063
50.9979
50.9008
50.7735
50.6179
50.4358
50.2295
50.001
49.7529
49.4875
49.2073
48.9149
48.6131
48.3045
47.992
47.6782
47.3659
47.0581
46.7573
46.4663
46.1877
45.9241
45.6777
45.451
45.246
45.0647
44.9091
44.781
44.6818
44.6132
44.5766
44.5735
44.6051
44.6728
44.7779
44.9219
45.1061
45.3319
45.601
45.915
46.2754
46.684
47.1425
47.6526
48.2157
48.8333
49.5065
50.2361
51.0224
51.8653
52.7637
53.7163
54.7205
55.773
56.8696
58.0051
59.1736
60.3681
61.5809
62.804
64.0281
65.2447
66.4496
67.5737
69.1808
31.3253
31.8244
32.3252
32.827
33.329
33.8306
34.3309
34.8294
35.3253
35.818
36.3071
36.7919
37.2717
37.7458
38.2135
38.6736
39.1251
39.5669
39.9975
40.4155
40.8193
41.2074
41.5783
41.9303
42.2618
42.5715
42.8581
43.1203
43.3571
43.5677
43.7515
43.9081
44.0372
44.1388
44.2133
44.2611
44.2829
44.2796
44.2522
44.202
44.1304
44.0389
43.9294
43.8035
43.6632
43.5105
43.3474
43.1762
42.9989
42.8179
42.6352
42.4532
42.2741
42.0999
41.9328
41.7749
41.6281
41.4943
41.3751
41.2724
41.1876
41.1222
41.0775
41.0548
41.0553
41.0801
41.1302
41.2069
41.311
41.4437
41.6062
41.7995
42.0249
42.2838
42.5777
42.9079
43.276
43.6838
44.1329
44.625
45.1616
45.7444
46.3745
47.053
47.7806
48.5575
49.3834
50.2573
51.1776
52.1418
53.1467
54.188
55.2609
56.3595
57.4775
58.6073
59.7416
60.8774
61.9466
63.5003
27.652
28.0506
28.4517
28.8548
29.2594
29.665
30.071
30.4769
30.8823
31.2866
31.6894
32.0902
32.4885
32.8837
33.2753
33.6625
34.0445
34.4205
34.7894
35.1502
35.5018
35.8431
36.1728
36.4898
36.793
37.0812
37.3533
37.6084
37.8456
38.0641
38.2634
38.4429
38.6023
38.7415
38.8605
38.9594
39.0386
39.0985
39.1399
39.1636
39.1706
39.1618
39.1387
39.1025
39.0547
38.9968
38.9305
38.8574
38.7792
38.6977
38.6147
38.5319
38.451
38.3738
38.3019
38.237
38.1805
38.1338
38.0985
38.0757
38.0666
38.0724
38.094
38.1324
38.1885
38.2631
38.357
38.4711
38.6061
38.7629
38.9422
39.1452
39.3726
39.6257
39.9057
40.2137
40.5512
40.9197
41.3207
41.7557
42.2265
42.7346
43.2814
43.8684
44.4967
45.1672
45.8804
46.6362
47.4343
48.2736
49.1522
50.0676
51.0166
51.9951
52.9984
54.0208
55.0562
56.1032
57.0967
58.5614
24.9423
25.2611
25.583
25.9074
26.2341
26.5627
26.8927
27.2238
27.5556
27.8877
28.2198
28.5515
28.8824
29.212
29.5399
29.8656
30.1885
30.5079
30.8231
31.1335
31.4381
31.7362
32.0269
32.3093
32.5825
32.8457
33.0981
33.3389
33.5674
33.783
33.985
34.1732
34.347
34.5064
34.6512
34.7813
34.8971
34.9986
35.0864
35.1609
35.2229
35.273
35.3122
35.3415
35.3619
35.3746
35.3808
35.3819
35.3791
35.3738
35.3675
35.3614
35.3569
35.3555
35.3583
35.3667
35.3817
35.4046
35.4363
35.4779
35.5302
35.594
35.67
35.7591
35.8617
35.9785
36.1101
36.257
36.4197
36.599
36.7953
37.0094
37.242
37.494
37.7664
38.0601
38.3764
38.7164
39.0815
39.4731
39.8927
40.3417
40.8218
41.3343
41.8806
42.4619
43.0791
43.7329
44.4236
45.151
45.9144
46.7127
47.5439
48.4054
49.294
50.2056
51.1356
52.0838
52.9896
54.3428
22.9261
23.1808
23.4388
23.6998
23.9635
24.2297
24.498
24.7681
25.0397
25.3127
25.5866
25.8611
26.1361
26.4111
26.6857
26.9597
27.2325
27.5038
27.773
28.0395
28.3028
28.5624
28.8174
29.0674
29.3117
29.5496
29.7805
30.0038
30.2191
30.4257
30.6233
30.8114
30.9898
31.1582
31.3166
31.4647
31.6028
31.7309
31.8492
31.9582
32.0583
32.15
32.2339
32.3108
32.3814
32.4467
32.5075
32.5648
32.6198
32.6733
32.7265
32.7805
32.8362
32.8948
32.9572
33.0244
33.0972
33.1765
33.2631
33.3577
33.4609
33.5732
33.6953
33.8275
33.9702
34.1239
34.289
34.4656
34.6543
34.8553
35.0691
35.2963
35.5372
35.7925
36.063
36.3494
36.6527
36.9738
37.3138
37.674
38.0557
38.4601
38.8886
39.3427
39.8237
40.3329
40.8714
41.4402
42.0402
42.6716
43.3346
44.0289
44.7535
45.5071
46.2877
47.0925
47.9182
48.7658
49.5801
50.8105
21.4201
21.6228
21.8289
22.0382
22.2505
22.4657
22.6834
22.9035
23.1257
23.3498
23.5756
23.8028
24.0313
24.2607
24.4908
24.7214
24.9521
25.1825
25.4124
25.6413
25.8688
26.0945
26.3179
26.5387
26.7562
26.97
27.1798
27.385
27.5853
27.7803
27.9695
28.1528
28.3299
28.5006
28.6648
28.8224
28.9734
29.1179
29.2561
29.3882
29.5145
29.6353
29.7513
29.8628
29.9706
30.0751
30.1772
30.2776
30.377
30.4763
30.5763
30.6778
30.7815
30.8883
30.9989
31.114
31.2342
31.3602
31.4925
31.6316
31.7778
31.9317
32.0934
32.2632
32.4414
32.6282
32.8236
33.028
33.2414
33.464
33.6962
33.9381
34.1901
34.4525
34.726
35.0111
35.3084
35.6188
35.943
36.2822
36.6373
37.0095
37.3999
37.81
38.2408
38.6937
39.1698
39.6703
40.1961
40.748
41.3266
41.932
42.5641
43.2224
43.9058
44.6128
45.341
46.0923
46.8171
47.9232
20.2966
20.4568
20.6205
20.7875
20.9577
21.131
21.3072
21.486
21.6674
21.8512
22.0371
22.2251
22.4149
22.6064
22.7993
22.9935
23.1888
23.3848
23.5814
23.7783
23.9751
24.1717
24.3676
24.5625
24.7561
24.9482
25.1383
25.3261
25.5115
25.694
25.8734
26.0496
26.2223
26.3915
26.557
26.7187
26.8768
27.0311
27.182
27.3295
27.4739
27.6154
27.7545
27.8915
28.0269
28.1612
28.2948
28.4285
28.5627
28.6981
28.8353
28.9748
29.1174
29.2635
29.4137
29.5685
29.7283
29.8936
30.0646
30.2418
30.4253
30.6153
30.8119
31.0153
31.2254
31.4424
31.6662
31.8968
32.1343
32.3786
32.6299
32.8882
33.1536
33.4265
33.7071
33.9958
34.2931
34.5995
34.9158
35.2426
35.5808
35.9314
36.2953
36.6736
37.0675
37.4781
37.9065
38.3538
38.8211
39.3093
39.8191
40.3511
40.9057
41.4829
42.0823
42.7032
43.3441
44.0076
44.6492
45.6369
19.4642
19.5898
19.7189
19.8514
19.9872
20.1262
20.2682
20.4132
20.561
20.7115
20.8645
21.0201
21.1779
21.3379
21.5
21.664
21.8297
21.997
22.1657
22.3357
22.5067
22.6784
22.8508
23.0236
23.1965
23.3694
23.5421
23.7142
23.8857
24.0563
24.2259
24.3943
24.5615
24.7273
24.8917
25.0547
25.2164
25.3767
25.5357
25.6938
25.8509
26.0074
26.1636
26.3198
26.4763
26.6335
26.7918
26.9518
27.1137
27.2782
27.4455
27.6163
27.7909
27.9697
28.1532
28.3416
28.5351
28.7342
28.9389
29.1493
29.3657
29.5879
29.816
30.0499
30.2895
30.5347
30.7854
31.0414
31.3026
31.5689
31.8401
32.1163
32.3974
32.6835
32.9747
33.2713
33.5735
33.8817
34.1964
34.5182
34.8476
35.1855
35.5326
35.8898
36.2582
36.6385
37.032
37.4396
37.8623
38.3011
38.7568
39.2303
39.722
40.2324
40.7617
41.3096
41.8753
42.4618
43.0296
43.9095
18.8562
18.954
19.0552
19.1598
19.2677
19.3789
19.4933
19.6107
19.7312
19.8546
19.9809
20.1099
20.2416
20.376
20.5128
20.652
20.7935
20.9373
21.083
21.2308
21.3804
21.5317
21.6846
21.8388
21.9944
22.1512
22.3089
22.4676
22.6271
22.7872
22.9479
23.1092
23.2709
23.433
23.5956
23.7586
23.9221
24.0863
24.2511
24.4168
24.5835
24.7515
24.921
25.0922
25.2655
25.4411
25.6195
25.8009
25.9857
26.1743
26.367
26.5641
26.766
26.9729
27.185
27.4025
27.6257
27.8546
28.0892
28.3296
28.5757
28.8273
29.0845
29.3468
29.6143
29.8865
30.1632
30.4442
30.7292
31.0179
31.3102
31.6058
31.9045
32.2064
32.5114
32.8195
33.1309
33.4458
33.7644
34.0873
34.4148
34.7474
35.086
35.431
35.7834
36.1439
36.5135
36.8931
37.2835
37.6857
38.1005
38.5289
38.9715
39.4289
39.9015
40.3897
40.8929
41.4146
41.9191
42.7052
18.4232
18.4993
18.5786
18.6612
18.7472
18.8365
18.9289
19.0246
19.1235
19.2254
19.3304
19.4384
19.5494
19.6633
19.7801
19.8996
20.0219
20.1468
20.2744
20.4045
20.5371
20.672
20.8093
20.9489
21.0906
21.2344
21.3803
21.5282
21.678
21.8297
21.9833
22.1387
22.296
22.4551
22.6162
22.7793
22.9444
23.1117
23.2813
23.4534
23.6281
23.8057
23.9864
24.1703
24.3579
24.5492
24.7448
24.9447
25.1493
25.3589
25.5737
25.794
26.0199
26.2518
26.4896
26.7334
26.9834
27.2396
27.5017
27.7698
28.0437
28.3231
28.6079
28.8976
29.192
29.4906
29.7932
30.0994
30.4086
30.7207
31.0352
31.3518
31.6702
31.9903
32.3119
32.6349
32.9593
33.2852
33.6126
33.9419
34.2733
34.6072
34.9441
35.2846
35.6293
35.9789
36.334
36.6956
37.0643
37.4411
37.8268
38.2222
38.628
39.0451
39.4739
39.915
40.3684
40.8374
41.2898
41.9978
18.1291
18.189
18.252
18.3183
18.3879
18.4607
18.5368
18.6161
18.6987
18.7845
18.8735
18.9657
19.0611
19.1596
19.2613
19.366
19.4739
19.5848
19.6987
19.8156
19.9355
20.0583
20.1841
20.3127
20.4443
20.5787
20.7159
20.8561
20.999
21.1449
21.2936
21.4453
21.6
21.7577
21.9186
22.0827
22.2502
22.4212
22.5958
22.7742
22.9567
23.1434
23.3345
23.5303
23.731
23.9369
24.1482
24.3651
24.5879
24.8169
25.0521
25.2938
25.5422
25.7973
26.0591
26.3277
26.6031
26.8851
27.1736
27.4684
27.7692
28.0757
28.3876
28.7044
29.0257
29.3511
29.68
30.012
30.3465
30.6832
31.0215
31.3611
31.7014
32.0423
32.3834
32.7245
33.0655
33.4062
33.7468
34.0873
34.4278
34.7687
35.1102
35.4528
35.7969
36.1431
36.492
36.8443
37.2006
37.5617
37.9285
38.3016
38.6818
39.07
39.4667
39.8726
40.2879
40.7163
41.1276
41.7736
17.9486
17.9976
18.0498
18.1051
18.1637
18.2255
18.2905
18.3588
18.4305
18.5054
18.5836
18.6652
18.7501
18.8383
18.9299
19.0248
19.123
19.2246
19.3295
19.4378
19.5495
19.6645
19.7829
19.9047
20.03
20.1588
20.291
20.4268
20.5662
20.7093
20.8561
21.0068
21.1613
21.3199
21.4826
21.6496
21.8211
21.9972
22.178
22.3639
22.5549
22.7514
22.9534
23.1614
23.3755
23.5959
23.8229
24.0567
24.2975
24.5455
24.8008
25.0636
25.3339
25.6119
25.8974
26.1905
26.491
26.7988
27.1136
27.4351
27.7631
28.097
28.4365
28.7811
29.1302
29.4832
29.8397
30.199
30.5606
30.9237
31.288
31.6528
32.0176