/*--------------------------------*- C++ -*----------------------------------*\
| =========                 |                                                 |
| \\      /  F ield         | OpenFOAM: The Open Source CFD Toolbox           |
|  \\    /   O peration     | Version:  4.1                                   |
|   \\  /    A nd           | Web:      www.OpenFOAM.org                      |
|    \\/     M anipulation  |                                                 |
\*---------------------------------------------------------------------------*/
FoamFile
{
    version     2.0;
    format      ascii;
    class       volScalarField;
    location    "1400";
    object      p;
}
// * * * * * * * * * * * * * * * * * * * * * * * * * * * * * * * * * * * * * //

dimensions      [0 2 -2 0 0 0 0];

internalField   nonuniform List<scalar> 
6820
(
6.15744
-4.54148
-8.06811
-8.81334
-9.20594
-9.53719
-9.72556
-9.81889
-9.88179
-9.93448
-9.97755
-10.0126
-10.0428
-10.07
-10.0948
-10.1178
-10.1392
-10.1594
-10.1785
-10.1969
-10.2145
-10.2315
-10.248
-10.264
-10.2796
-10.2946
-10.3092
-10.3233
-10.3365
-10.3489
-10.3593
-10.3694
-10.3662
-15.5618
-12.0146
-11.2127
-10.4084
-10.0252
-9.94305
-9.92913
-9.92426
-9.93628
-9.96136
-9.98947
-10.0165
-10.0424
-10.0673
-10.091
-10.1135
-10.1347
-10.155
-10.1743
-10.1928
-10.2107
-10.2279
-10.2446
-10.2608
-10.2766
-10.2919
-10.3068
-10.3212
-10.335
-10.3483
-10.3602
-10.3728
-10.3785
-13.3714
-9.8634
-9.60131
-9.59106
-9.57838
-9.66891
-9.76211
-9.82434
-9.87498
-9.92215
-9.96363
-9.99908
-10.0303
-10.0585
-10.0843
-10.1081
-10.1302
-10.151
-10.1707
-10.1895
-10.2075
-10.2248
-10.2416
-10.2579
-10.2738
-10.2892
-10.3043
-10.3189
-10.3331
-10.347
-10.3601
-10.3739
-10.3849
-10.9445
-9.47354
-9.62401
-9.73433
-9.71445
-9.76356
-9.82769
-9.87129
-9.9075
-9.94355
-9.97723
-10.0074
-10.035
-10.0607
-10.0848
-10.1073
-10.1286
-10.1489
-10.1682
-10.1867
-10.2046
-10.2219
-10.2387
-10.255
-10.271
-10.2866
-10.3019
-10.3168
-10.3315
-10.346
-10.3603
-10.3753
-10.3896
-10.4922
-9.7776
-9.81625
-9.82716
-9.77765
-9.79956
-9.84605
-9.88229
-9.91466
-9.94784
-9.97963
-10.0088
-10.0357
-10.0609
-10.0845
-10.1068
-10.1279
-10.1479
-10.1671
-10.1855
-10.2033
-10.2205
-10.2372
-10.2535
-10.2695
-10.2852
-10.3005
-10.3157
-10.3308
-10.3458
-10.3609
-10.3767
-10.393
-10.4115
-9.93176
-9.88372
-9.85773
-9.81387
-9.82716
-9.86366
-9.8957
-9.92564
-9.9563
-9.98596
-10.0135
-10.0393
-10.0635
-10.0863
-10.108
-10.1285
-10.1482
-10.167
-10.1851
-10.2027
-10.2197
-10.2364
-10.2526
-10.2685
-10.2842
-10.2997
-10.315
-10.3303
-10.3458
-10.3615
-10.378
-10.3955
-10.2885
-9.96212
-9.90784
-9.88238
-9.84916
-9.85717
-9.88502
-9.9123
-9.93905
-9.96672
-9.99389
-10.0196
-10.044
-10.0671
-10.089
-10.1099
-10.1299
-10.1491
-10.1676
-10.1854
-10.2027
-10.2196
-10.236
-10.2521
-10.268
-10.2836
-10.2992
-10.3146
-10.3301
-10.3458
-10.362
-10.3789
-10.3969
-10.1796
-9.97409
-9.92939
-9.90715
-9.88126
-9.88552
-9.90646
-9.92929
-9.95291
-9.97775
-10.0026
-10.0265
-10.0494
-10.0714
-10.0924
-10.1126
-10.132
-10.1507
-10.1687
-10.1862
-10.2032
-10.2198
-10.2361
-10.2521
-10.2678
-10.2834
-10.2989
-10.3144
-10.33
-10.3459
-10.3622
-10.3792
-10.3973
-10.1086
-9.98487
-9.94734
-9.92743
-9.90758
-9.91004
-9.92619
-9.9455
-9.96645
-9.98881
-10.0115
-10.0337
-10.0553
-10.0762
-10.0963
-10.1157
-10.1345
-10.1526
-10.1702
-10.1874
-10.2041
-10.2204
-10.2365
-10.2523
-10.2679
-10.2834
-10.2988
-10.3143
-10.3299
-10.3458
-10.3621
-10.3791
-10.397
-10.0642
-9.99149
-9.96034
-9.94331
-9.9288
-9.93077
-9.94378
-9.96045
-9.97919
-9.99946
-10.0203
-10.041
-10.0613
-10.0811
-10.1003
-10.119
-10.1372
-10.1548
-10.1719
-10.1887
-10.2051
-10.2211
-10.237
-10.2526
-10.268
-10.2834
-10.2987
-10.3141
-10.3296
-10.3454
-10.3616
-10.3784
-10.3959
-10.0365
-9.99484
-9.97015
-9.95629
-9.94613
-9.94821
-9.95917
-9.97387
-9.99082
-10.0093
-10.0286
-10.0479
-10.0671
-10.0859
-10.1043
-10.1223
-10.1398
-10.1569
-10.1737
-10.19
-10.2061
-10.2219
-10.2374
-10.2528
-10.2681
-10.2833
-10.2985
-10.3137
-10.3291
-10.3447
-10.3606
-10.377
-10.394
-10.02
-9.99692
-9.97821
-9.96734
-9.96054
-9.96296
-9.97256
-9.98576
-10.0013
-10.0183
-10.0362
-10.0543
-10.0724
-10.0904
-10.108
-10.1253
-10.1423
-10.1589
-10.1752
-10.1912
-10.207
-10.2225
-10.2378
-10.2529
-10.268
-10.2829
-10.2979
-10.313
-10.3281
-10.3434
-10.3591
-10.375
-10.3913
-10.0111
-9.99889
-9.98526
-9.97705
-9.97278
-9.97558
-9.98423
-9.99626
-10.0105
-10.0263
-10.043
-10.0601
-10.0773
-10.0944
-10.1113
-10.128
-10.1445
-10.1606
-10.1765
-10.1921
-10.2075
-10.2227
-10.2378
-10.2527
-10.2675
-10.2822
-10.297
-10.3118
-10.3266
-10.3416
-10.3568
-10.3723
-10.3879
-10.0074
-10.0012
-9.99167
-9.98576
-9.98341
-9.98655
-9.9945
-10.0056
-10.0188
-10.0335
-10.0491
-10.0652
-10.0815
-10.0979
-10.1142
-10.1303
-10.1462
-10.1619
-10.1774
-10.1927
-10.2077
-10.2227
-10.2374
-10.252
-10.2666
-10.2811
-10.2955
-10.31
-10.3246
-10.3392
-10.3539
-10.3688
-10.3838
-10.007
-10.0041
-9.9977
-9.99371
-9.99282
-9.99624
-10.0037
-10.0139
-10.0261
-10.0399
-10.0545
-10.0697
-10.0853
-10.1009
-10.1166
-10.1321
-10.1475
-10.1628
-10.1779
-10.1928
-10.2075
-10.2221
-10.2366
-10.2509
-10.2652
-10.2794
-10.2935
-10.3077
-10.3219
-10.3361
-10.3503
-10.3646
-10.379
-10.0087
-10.0076
-10.0035
-10.0011
-10.0013
-10.0049
-10.0119
-10.0214
-10.0328
-10.0456
-10.0593
-10.0737
-10.0885
-10.1035
-10.1185
-10.1335
-10.1484
-10.1632
-10.1779
-10.1925
-10.2069
-10.2211
-10.2353
-10.2493
-10.2633
-10.2772
-10.291
-10.3048
-10.3185
-10.3323
-10.346
-10.3597
-10.3734
-10.0119
-10.0116
-10.0092
-10.0079
-10.009
-10.0128
-10.0193
-10.0282
-10.0388
-10.0507
-10.0636
-10.0772
-10.0913
-10.1056
-10.12
-10.1344
-10.1489
-10.1633
-10.1775
-10.1917
-10.2057
-10.2197
-10.2335
-10.2472
-10.2608
-10.2744
-10.2878
-10.3012
-10.3145
-10.3278
-10.341
-10.3542
-10.3672
-10.0159
-10.016
-10.0147
-10.0144
-10.016
-10.0199
-10.0261
-10.0343
-10.0442
-10.0554
-10.0675
-10.0803
-10.0936
-10.1073
-10.1211
-10.135
-10.149
-10.1629
-10.1767
-10.1905
-10.2042
-10.2178
-10.2312
-10.2446
-10.2579
-10.271
-10.2841
-10.2971
-10.31
-10.3227
-10.3354
-10.348
-10.3604
-10.0204
-10.0206
-10.0201
-10.0205
-10.0225
-10.0264
-10.0322
-10.0399
-10.0491
-10.0595
-10.0709
-10.083
-10.0956
-10.1086
-10.1219
-10.1352
-10.1487
-10.1621
-10.1756
-10.1889
-10.2022
-10.2155
-10.2286
-10.2416
-10.2544
-10.2672
-10.2799
-10.2924
-10.3048
-10.3171
-10.3293
-10.3413
-10.3531
-10.0252
-10.0254
-10.0255
-10.0263
-10.0285
-10.0323
-10.0378
-10.045
-10.0535
-10.0632
-10.0739
-10.0853
-10.0973
-10.1096
-10.1223
-10.1351
-10.1481
-10.1611
-10.1741
-10.187
-10.1999
-10.2127
-10.2255
-10.2381
-10.2506
-10.2629
-10.2752
-10.2873
-10.2992
-10.311
-10.3226
-10.3341
-10.3453
-10.0301
-10.0304
-10.0307
-10.0318
-10.034
-10.0377
-10.0429
-10.0495
-10.0574
-10.0665
-10.0765
-10.0872
-10.0985
-10.1103
-10.1224
-10.1347
-10.1471
-10.1597
-10.1722
-10.1848
-10.1973
-10.2097
-10.222
-10.2342
-10.2463
-10.2583
-10.2701
-10.2817
-10.2932
-10.3045
-10.3156
-10.3264
-10.3371
-10.0351
-10.0353
-10.0358
-10.037
-10.0391
-10.0426
-10.0474
-10.0535
-10.0608
-10.0692
-10.0786
-10.0887
-10.0994
-10.1106
-10.1221
-10.1339
-10.1459
-10.158
-10.1701
-10.1822
-10.1943
-10.2063
-10.2182
-10.23
-10.2417
-10.2533
-10.2646
-10.2758
-10.2868
-10.2976
-10.3082
-10.3185
-10.3286
-10.0401
-10.0403
-10.0408
-10.0419
-10.0439
-10.047
-10.0514
-10.0569
-10.0637
-10.0715
-10.0802
-10.0897
-10.0999
-10.1105
-10.1215
-10.1328
-10.1443
-10.1559
-10.1676
-10.1793
-10.191
-10.2026
-10.2141
-10.2255
-10.2368
-10.2479
-10.2588
-10.2696
-10.2801
-10.2904
-10.3005
-10.3102
-10.3198
-10.0451
-10.0453
-10.0457
-10.0466
-10.0483
-10.051
-10.0548
-10.0599
-10.066
-10.0733
-10.0814
-10.0903
-10.0999
-10.11
-10.1205
-10.1313
-10.1424
-10.1536
-10.1648
-10.1761
-10.1874
-10.1986
-10.2098
-10.2208
-10.2316
-10.2423
-10.2528
-10.2631
-10.2731
-10.2829
-10.2925
-10.3018
-10.3108
-10.0502
-10.0503
-10.0505
-10.051
-10.0523
-10.0545
-10.0578
-10.0622
-10.0678
-10.0744
-10.082
-10.0903
-10.0994
-10.109
-10.1191
-10.1294
-10.1401
-10.1508
-10.1617
-10.1726
-10.1835
-10.1944
-10.2051
-10.2157
-10.2262
-10.2364
-10.2465
-10.2563
-10.2659
-10.2753
-10.2844
-10.2932
-10.3017
-10.0552
-10.0553
-10.0552
-10.0553
-10.0559
-10.0575
-10.0601
-10.0639
-10.0689
-10.0749
-10.0819
-10.0898
-10.0984
-10.1075
-10.1172
-10.1271
-10.1374
-10.1478
-10.1583
-10.1688
-10.1793
-10.1898
-10.2002
-10.2104
-10.2205
-10.2303
-10.24
-10.2494
-10.2586
-10.2675
-10.2761
-10.2844
-10.2924
-10.0605
-10.0606
-10.06
-10.0593
-10.0592
-10.06
-10.0619
-10.065
-10.0693
-10.0748
-10.0812
-10.0886
-10.0967
-10.1055
-10.1147
-10.1243
-10.1342
-10.1443
-10.1544
-10.1646
-10.1748
-10.185
-10.195
-10.2048
-10.2145
-10.224
-10.2333
-10.2423
-10.251
-10.2595
-10.2676
-10.2755
-10.2831
-10.0661
-10.0661
-10.0649
-10.0632
-10.0621
-10.0619
-10.0629
-10.0652
-10.0689
-10.0738
-10.0798
-10.0867
-10.0944
-10.1028
-10.1117
-10.121
-10.1306
-10.1403
-10.1502
-10.1601
-10.17
-10.1798
-10.1895
-10.199
-10.2083
-10.2174
-10.2263
-10.2349
-10.2433
-10.2513
-10.2591
-10.2665
-10.2736
-10.0723
-10.0723
-10.0701
-10.067
-10.0645
-10.0632
-10.0631
-10.0646
-10.0676
-10.0719
-10.0774
-10.084
-10.0914
-10.0994
-10.108
-10.1171
-10.1264
-10.1359
-10.1455
-10.1551
-10.1647
-10.1742
-10.1836
-10.1928
-10.2018
-10.2106
-10.2192
-10.2274
-10.2354
-10.2431
-10.2504
-10.2574
-10.2641
-10.0797
-10.0795
-10.0758
-10.0708
-10.0665
-10.0636
-10.0624
-10.0629
-10.0652
-10.069
-10.0741
-10.0803
-10.0874
-10.0952
-10.1036
-10.1124
-10.1215
-10.1308
-10.1402
-10.1496
-10.159
-10.1683
-10.1774
-10.1863
-10.195
-10.2035
-10.2117
-10.2196
-10.2273
-10.2346
-10.2416
-10.2482
-10.2545
-10.0889
-10.0884
-10.0823
-10.0744
-10.0678
-10.063
-10.0604
-10.0599
-10.0615
-10.0648
-10.0695
-10.0754
-10.0824
-10.09
-10.0983
-10.107
-10.1159
-10.1251
-10.1343
-10.1435
-10.1527
-10.1617
-10.1706
-10.1793
-10.1878
-10.196
-10.2039
-10.2116
-10.2189
-10.2259
-10.2325
-10.2388
-10.2448
-10.1013
-10.1
-10.0899
-10.0778
-10.0681
-10.0611
-10.0568
-10.0553
-10.0561
-10.059
-10.0634
-10.0692
-10.076
-10.0836
-10.0918
-10.1004
-10.1093
-10.1184
-10.1275
-10.1366
-10.1456
-10.1545
-10.1632
-10.1717
-10.18
-10.188
-10.1957
-10.203
-10.2101
-10.2168
-10.2232
-10.2292
-10.2349
-10.1196
-10.1158
-10.0986
-10.0807
-10.067
-10.0572
-10.0511
-10.0485
-10.0487
-10.0512
-10.0555
-10.0612
-10.068
-10.0757
-10.0839
-10.0925
-10.1015
-10.1105
-10.1196
-10.1287
-10.1376
-10.1464
-10.155
-10.1634
-10.1715
-10.1793
-10.1868
-10.194
-10.2009
-10.2074
-10.2135
-10.2193
-10.2248
-10.15
-10.1387
-10.1081
-10.0814
-10.0629
-10.0499
-10.0419
-10.0385
-10.0383
-10.0406
-10.045
-10.0508
-10.0578
-10.0656
-10.0739
-10.0827
-10.0917
-10.1009
-10.11
-10.1191
-10.1281
-10.1369
-10.1455
-10.1539
-10.1619
-10.1697
-10.1771
-10.1842
-10.1909
-10.1973
-10.2033
-10.209
-10.2143
-10.2049
-10.1765
-10.1214
-10.0806
-10.0544
-10.0367
-10.0268
-10.0229
-10.0228
-10.0256
-10.0305
-10.0371
-10.0447
-10.0532
-10.0621
-10.0714
-10.0808
-10.0903
-10.0998
-10.1091
-10.1182
-10.1271
-10.1358
-10.1442
-10.1522
-10.1599
-10.1673
-10.1743
-10.1809
-10.1872
-10.1931
-10.1986
-10.2038
-10.2879
-10.2248
-10.1403
-10.0868
-10.0481
-10.02
-10.0048
-9.99829
-9.99653
-9.99843
-10.0034
-10.0104
-10.0189
-10.0283
-10.0384
-10.0488
-10.0594
-10.07
-10.0805
-10.0909
-10.101
-10.1108
-10.1202
-10.1293
-10.1381
-10.1464
-10.1543
-10.1618
-10.1689
-10.1756
-10.1818
-10.1876
-10.193
-10.4381
-10.2046
-10.0752
-10.0619
-10.0472
-10.0297
-10.0238
-10.0233
-10.0235
-10.025
-10.0283
-10.0329
-10.0385
-10.0449
-10.052
-10.0597
-10.0677
-10.0759
-10.0842
-10.0926
-10.1009
-10.1092
-10.1172
-10.1251
-10.1327
-10.1401
-10.1471
-10.1538
-10.1602
-10.1663
-10.172
-10.1774
-10.1825
-11.3944
-10.1712
-9.5809
-9.50163
-9.51476
-9.55237
-9.60787
-9.66381
-9.71447
-9.76116
-9.80414
-9.84296
-9.87768
-9.90883
-9.93688
-9.9622
-9.98513
-10.006
-10.025
-10.0424
-10.0584
-10.0731
-10.0866
-10.0992
-10.1108
-10.1215
-10.1315
-10.1407
-10.1492
-10.157
-10.1642
-10.1707
-10.1765
-15.1635
-12.9607
-11.9295
-11.2932
-10.866
-10.6153
-10.4533
-10.3302
-10.2379
-10.1736
-10.13
-10.1005
-10.0811
-10.0694
-10.0634
-10.0615
-10.0626
-10.0659
-10.0708
-10.0768
-10.0835
-10.0906
-10.0981
-10.1056
-10.1131
-10.1205
-10.1277
-10.1347
-10.1415
-10.1479
-10.154
-10.1598
-10.1654
-1.24982
-5.34249
-7.46629
-8.23881
-8.67764
-9.04135
-9.30752
-9.48376
-9.60784
-9.70372
-9.77923
-9.8382
-9.88493
-9.9231
-9.95503
-9.98216
-10.0055
-10.026
-10.0441
-10.0604
-10.075
-10.0884
-10.1006
-10.1118
-10.1221
-10.1317
-10.1405
-10.1487
-10.1562
-10.1631
-10.1695
-10.1753
-10.1805
-10.35
-10.1324
-10.4209
-10.69
-10.7941
-10.8263
-10.8375
-10.8347
-10.8246
-10.8166
-10.8175
-10.8307
-10.8572
-10.8965
-10.9468
-11.0055
-11.0696
-11.1363
-11.2028
-11.2667
-11.3258
-11.3784
-11.4234
-11.4597
-11.4867
-11.504
-11.5115
-11.509
-11.4966
-11.4744
-11.4422
-11.4002
-11.3484
-11.2867
-11.2149
-11.1331
-11.0409
-10.9383
-10.8249
-10.7007
-10.5653
-10.4185
-10.2602
-10.0902
-9.90834
-9.71455
-9.50887
-9.2914
-9.06237
-8.8221
-8.57104
-8.30977
-8.03899
-7.75954
-7.47242
-7.1787
-6.87959
-6.57641
-6.27054
-5.9634
-5.65646
-5.35119
-5.04903
-4.75136
-4.45952
-4.17471
-3.89806
-3.63052
-3.37294
-3.12598
-2.89019
-2.66593
-2.45345
-2.25283
-2.06408
-1.88706
-1.72153
-1.56717
-1.42357
-1.29029
-1.16681
-1.05262
-0.947151
-0.849872
-0.760234
-0.677708
-0.60178
-0.531967
-0.467794
-0.408853
-0.354663
-0.304988
-0.259097
-0.217398
-0.177755
-0.143558
-0.106026
-0.082437
-0.0341051
-0.0420742
-10.3962
-10.3941
-10.5878
-10.7327
-10.7645
-10.7585
-10.7506
-10.7409
-10.7318
-10.7298
-10.7392
-10.7612
-10.7955
-10.8408
-10.8953
-10.9566
-11.0221
-11.0894
-11.1558
-11.2193
-11.278
-11.3302
-11.3748
-11.4108
-11.4375
-11.4547
-11.4621
-11.4597
-11.4473
-11.4251
-11.3931
-11.3512
-11.2996
-11.238
-11.1664
-11.0847
-10.9928
-10.8904
-10.7774
-10.6535
-10.5186
-10.3724
-10.2148
-10.0456
-9.86469
-9.67202
-9.46763
-9.25164
-9.02427
-8.78585
-8.53682
-8.27777
-8.00938
-7.73248
-7.44804
-7.15711
-6.86088
-6.56062
-6.25768
-5.95346
-5.64937
-5.34686
-5.04734
-4.75216
-4.46261
-4.17991
-3.90515
-3.63927
-3.38312
-3.13738
-2.90257
-2.67907
-2.46715
-2.26691
-2.07835
-1.90136
-1.73572
-1.58112
-1.43718
-1.30346
-1.17948
-1.06472
-0.958644
-0.860722
-0.770418
-0.687212
-0.610595
-0.54009
-0.475223
-0.415591
-0.360708
-0.310348
-0.263752
-0.221393
-0.18098
-0.146286
-0.107635
-0.0845581
-0.0330394
-0.0472306
-10.4086
-10.4226
-10.5093
-10.6105
-10.6671
-10.6957
-10.7147
-10.7248
-10.728
-10.731
-10.7392
-10.7557
-10.7818
-10.8181
-10.8639
-10.9177
-10.9772
-11.0401
-11.1036
-11.1652
-11.2227
-11.2743
-11.3186
-11.3545
-11.3813
-11.3987
-11.4063
-11.4042
-11.3921
-11.3703
-11.3386
-11.2971
-11.2457
-11.1845
-11.1133
-11.032
-10.9404
-10.8385
-10.726
-10.6027
-10.4685
-10.3231
-10.1663
-9.99814
-9.81838
-9.62704
-9.42414
-9.20983
-8.98433
-8.74796
-8.50117
-8.24452
-7.97871
-7.70454
-7.42293
-7.13495
-6.84173
-6.54452
-6.24464
-5.94343
-5.6423
-5.34264
-5.04584
-4.75322
-4.46606
-4.18553
-3.91272
-3.64858
-3.39392
-3.14943
-2.91565
-2.69296
-2.48163
-2.28178
-2.09344
-1.91649
-1.75074
-1.5959
-1.4516
-1.31743
-1.19291
-1.07755
-0.970834
-0.872231
-0.78122
-0.69729
-0.619939
-0.548696
-0.483091
-0.422722
-0.367101
-0.316012
-0.268673
-0.225607
-0.184398
-0.149146
-0.109398
-0.086695
-0.0321918
-0.0521466
-10.4123
-10.4364
-10.5041
-10.5976
-10.6609
-10.6906
-10.7051
-10.7118
-10.7141
-10.7174
-10.7265
-10.7438
-10.7702
-10.8057
-10.8492
-10.8993
-10.954
-11.0111
-11.0686
-11.1244
-11.1767
-11.2239
-11.2648
-11.2982
-11.3234
-11.3398
-11.3469
-11.3446
-11.3327
-11.311
-11.2797
-11.2386
-11.1877
-11.1269
-11.0562
-10.9754
-10.8844
-10.7831
-10.6712
-10.5487
-10.4153
-10.2708
-10.1151
-9.9481
-9.76967
-9.57982
-9.37859
-9.16612
-8.94264
-8.70848
-8.46407
-8.20998
-7.94688
-7.67555
-7.39692
-7.11199
-6.8219
-6.52784
-6.2311
-5.93301
-5.63492
-5.33821
-5.04422
-4.75426
-4.46956
-4.1913
-3.92054
-3.65821
-3.40513
-3.16197
-2.92929
-2.70747
-2.49678
-2.29737
-2.10927
-1.93238
-1.76654
-1.61146
-1.46681
-1.33217
-1.20711
-1.09113
-0.983732
-0.884413
-0.792657
-0.707963
-0.629836
-0.557812
-0.491422
-0.430271
-0.373869
-0.322005
-0.27388
-0.230063
-0.188026
-0.152163
-0.111319
-0.0888869
-0.0315276
-0.0568692
-10.4164
-10.4472
-10.5032
-10.5754
-10.6282
-10.6563
-10.6733
-10.6855
-10.6946
-10.7036
-10.7165
-10.7354
-10.7614
-10.7946
-10.8347
-10.8805
-10.9304
-10.9828
-11.0357
-11.0871
-11.1354
-11.179
-11.2165
-11.247
-11.2697
-11.2841
-11.2896
-11.286
-11.2732
-11.2511
-11.2194
-11.1782
-11.1274
-11.0669
-10.9965
-10.9162
-10.8257
-10.725
-10.6138
-10.4921
-10.3595
-10.216
-10.0615
-9.89574
-9.71874
-9.53047
-9.33101
-9.12048
-8.89913
-8.66727
-8.42535
-8.1739
-7.9136
-7.64522
-7.36964
-7.08786
-6.80098
-6.51016
-6.21667
-5.92179
-5.62686
-5.33319
-5.04212
-4.75492
-4.47281
-4.19693
-3.92832
-3.66791
-3.4165
-3.17478
-2.94328
-2.72241
-2.51245
-2.31354
-2.12573
-1.94896
-1.78305
-1.62776
-1.48275
-1.34766
-1.22203
-1.10542
-0.997327
-0.897266
-0.804733
-0.719239
-0.640297
-0.567449
-0.500233
-0.438256
-0.381028
-0.328344
-0.279391
-0.234776
-0.191879
-0.155351
-0.113413
-0.0911361
-0.0310708
-0.061349
-10.4192
-10.4514
-10.4982
-10.5556
-10.6028
-10.6333
-10.654
-10.6696
-10.6818
-10.6933
-10.7075
-10.7265
-10.7513
-10.7825
-10.8195
-10.8616
-10.9073
-10.9552
-11.0035
-11.0505
-11.0946
-11.1344
-11.1686
-11.1963
-11.2166
-11.2289
-11.2329
-11.228
-11.2142
-11.1913
-11.1591
-11.1175
-11.0665
-11.0059
-10.9356
-10.8554
-10.7653
-10.665
-10.5544
-10.4333
-10.3016
-10.1591
-10.0056
-9.84116
-9.6656
-9.47895
-9.28128
-9.07273
-8.85355
-8.62404
-8.38466
-8.13593
-7.87849
-7.61312
-7.34068
-7.06213
-6.77855
-6.49108
-6.20094
-5.90939
-5.61772
-5.32723
-5.03921
-4.7549
-4.4755
-4.20213
-3.9358
-3.67744
-3.42784
-3.18766
-2.95746
-2.73764
-2.52848
-2.33016
-2.14271
-1.9661
-1.80018
-1.6447
-1.49937
-1.36383
-1.23765
-1.1204
-1.0116
-0.910774
-0.817439
-0.731114
-0.651323
-0.577615
-0.509532
-0.446687
-0.38859
-0.335042
-0.28522
-0.239762
-0.195972
-0.15872
-0.115695
-0.0934396
-0.0308532
-0.065524
-10.4205
-10.4519
-10.4926
-10.5403
-10.5825
-10.613
-10.635
-10.6524
-10.6668
-10.6806
-10.6964
-10.7159
-10.7403
-10.7698
-10.8042
-10.8429
-10.8848
-10.9284
-10.9722
-11.0149
-11.0548
-11.0907
-11.1215
-11.1461
-11.1638
-11.1739
-11.1759
-11.1696
-11.1546
-11.1307
-11.0978
-11.0557
-11.0043
-10.9435
-10.8732
-10.7931
-10.7032
-10.6032
-10.4931
-10.3726
-10.2416
-10.1
-9.94759
-9.78434
-9.61018
-9.42513
-9.22925
-9.02269
-8.8057
-8.57858
-8.34177
-8.0958
-7.8413
-7.57901
-7.30978
-7.03456
-6.75438
-6.47036
-6.18369
-5.89559
-5.60731
-5.32013
-5.03529
-4.75401
-4.47747
-4.20674
-3.94283
-3.68665
-3.43897
-3.20047
-2.97168
-2.75301
-2.54476
-2.3471
-2.1601
-1.98372
-1.81783
-1.66222
-1.5166
-1.38062
-1.25391
-1.13602
-1.02651
-0.924911
-0.830757
-0.743577
-0.662908
-0.588306
-0.51932
-0.455568
-0.396563
-0.342109
-0.291379
-0.24503
-0.200317
-0.16228
-0.118179
-0.0957965
-0.0309003
-0.0693416
-10.4204
-10.4505
-10.4867
-10.5274
-10.5649
-10.5943
-10.6171
-10.6359
-10.6522
-10.6678
-10.6847
-10.7046
-10.7283
-10.7562
-10.7882
-10.8238
-10.862
-10.9016
-10.9414
-10.9799
-11.0158
-11.048
-11.0753
-11.0968
-11.1117
-11.1195
-11.1195
-11.1114
-11.095
-11.0699
-11.036
-10.9932
-10.9413
-10.8801
-10.8095
-10.7293
-10.6395
-10.5397
-10.43
-10.31
-10.1797
-10.0389
-9.88749
-9.72542
-9.55264
-9.36916
-9.17506
-8.9705
-8.7557
-8.53099
-8.2968
-8.05363
-7.80211
-7.54297
-7.27704
-7.00522
-6.72854
-6.44807
-6.16497
-5.88043
-5.59567
-5.31191
-5.03038
-4.75226
-4.47869
-4.21074
-3.94937
-3.69549
-3.44986
-3.21314
-2.98586
-2.76845
-2.56119
-2.36428
-2.1778
-2.00172
-1.83593
-1.68023
-1.53435
-1.39799
-1.27075
-1.15224
-1.04202
-0.939646
-0.844661
-0.756609
-0.675039
-0.599515
-0.529596
-0.464902
-0.404951
-0.349551
-0.297874
-0.250591
-0.204924
-0.166041
-0.120876
-0.0982066
-0.031232
-0.0727575
-10.4193
-10.4477
-10.4804
-10.5159
-10.5494
-10.5775
-10.6005
-10.6202
-10.6377
-10.6545
-10.6722
-10.6921
-10.7152
-10.7416
-10.7714
-10.804
-10.8388
-10.8747
-10.9106
-10.9452
-10.9773
-11.0059
-11.0298
-11.0482
-11.0604
-11.0657
-11.0636
-11.0537
-11.0357
-11.0093
-10.9743
-10.9306
-10.878
-10.8162
-10.7453
-10.6649
-10.5749
-10.4753
-10.3658
-10.2462
-10.1164
-9.9764
-9.82594
-9.66499
-9.49354
-9.3116
-9.11926
-8.91668
-8.70408
-8.48179
-8.25022
-8.00989
-7.7614
-7.50545
-7.24285
-6.97451
-6.70139
-6.42455
-6.1451
-5.8642
-5.58303
-5.3028
-5.02467
-4.74981
-4.47931
-4.21423
-3.95551
-3.70402
-3.46053
-3.22569
-3.00002
-2.78394
-2.57777
-2.38169
-2.19579
-2.02006
-1.85442
-1.69868
-1.5526
-1.41586
-1.28813
-1.16901
-1.0581
-0.954945
-0.859122
-0.770187
-0.687698
-0.61123
-0.540349
-0.474682
-0.413753
-0.35737
-0.30471
-0.25645
-0.2098
-0.170008
-0.123796
-0.10067
-0.0318629
-0.075735
-10.4173
-10.4441
-10.4738
-10.5052
-10.5355
-10.5621
-10.5849
-10.6049
-10.6232
-10.6408
-10.6589
-10.6788
-10.701
-10.726
-10.7536
-10.7835
-10.8151
-10.8475
-10.8797
-10.9106
-10.939
-10.964
-10.9847
-11.0001
-11.0095
-11.0124
-11.0081
-10.9963
-10.9767
-10.9489
-10.9128
-10.8681
-10.8147
-10.7523
-10.6809
-10.6002
-10.5101
-10.4104
-10.3011
-10.1818
-10.0526
-9.91321
-9.76363
-9.60376
-9.4336
-9.25316
-9.06255
-8.86192
-8.6515
-8.43162
-8.20269
-7.96519
-7.71973
-7.46699
-7.20777
-6.94292
-6.67339
-6.40022
-6.12447
-5.84726
-5.56975
-5.29309
-5.01843
-4.74689
-4.47954
-4.21739
-3.96139
-3.71237
-3.47109
-3.23819
-3.0142
-2.79953
-2.5945
-2.39931
-2.21405
-2.03874
-1.87329
-1.71755
-1.57129
-1.43422
-1.30602
-1.18631
-1.0747
-0.970776
-0.874114
-0.784286
-0.700864
-0.623433
-0.551567
-0.484901
-0.422963
-0.365564
-0.311888
-0.26261
-0.214951
-0.174187
-0.126943
-0.103187
-0.0328019
-0.0782463
-10.4145
-10.4396
-10.4668
-10.4952
-10.5227
-10.5478
-10.5701
-10.5901
-10.6087
-10.6266
-10.6449
-10.6645
-10.6859
-10.7094
-10.7349
-10.7623
-10.7909
-10.82
-10.8486
-10.8759
-10.9008
-10.9224
-10.9399
-10.9523
-10.959
-10.9594
-10.9529
-10.9392
-10.918
-10.8888
-10.8514
-10.8057
-10.7514
-10.6884
-10.6164
-10.5354
-10.4451
-10.3454
-10.2362
-10.1172
-9.98847
-9.84976
-9.70102
-9.5422
-9.3733
-9.19435
-9.00545
-8.80675
-8.59851
-8.38103
-8.15471
-7.92005
-7.67762
-7.4281
-7.17224
-6.9109
-6.64498
-6.37549
-6.10345
-5.82997
-5.55614
-5.28309
-5.01193
-4.74374
-4.47958
-4.22042
-3.96718
-3.72068
-3.48166
-3.25076
-3.02849
-2.81528
-2.61144
-2.41718
-2.23261
-2.05775
-1.89254
-1.73683
-1.59042
-1.45304
-1.32438
-1.2041
-1.09181
-0.987113
-0.889609
-0.798882
-0.714516
-0.636107
-0.563237
-0.495547
-0.432573
-0.374127
-0.319405
-0.269071
-0.220377
-0.17858
-0.130322
-0.105756
-0.0340514
-0.0802738
-10.4109
-10.4345
-10.4596
-10.4854
-10.5107
-10.5342
-10.5557
-10.5755
-10.5941
-10.6121
-10.6303
-10.6494
-10.6698
-10.6918
-10.7154
-10.7403
-10.7661
-10.792
-10.8173
-10.8412
-10.8627
-10.881
-10.8953
-10.9047
-10.9087
-10.9067
-10.8981
-10.8825
-10.8595
-10.8288
-10.7902
-10.7434
-10.6883
-10.6245
-10.5521
-10.4707
-10.3802
-10.2804
-10.1713
-10.0526
-9.92431
-9.78624
-9.63835
-9.48058
-9.31294
-9.13547
-8.94827
-8.75151
-8.54544
-8.33035
-8.10665
-7.87481
-7.63542
-7.38911
-7.13662
-6.87878
-6.61648
-6.35067
-6.08236
-5.8126
-5.54246
-5.27303
-5.00539
-4.74058
-4.47963
-4.22348
-3.97302
-3.72908
-3.49236
-3.26349
-3.04298
-2.83127
-2.62865
-2.43535
-2.2515
-2.07712
-1.91217
-1.75652
-1.60998
-1.47231
-1.34322
-1.22236
-1.1094
-1.00394
-0.90559
-0.813958
-0.728637
-0.649235
-0.575343
-0.506608
-0.442575
-0.383053
-0.327257
-0.27583
-0.226078
-0.183188
-0.133932
-0.108379
-0.0356078
-0.0818101
-10.4066
-10.4287
-10.4519
-10.4757
-10.499
-10.5212
-10.5418
-10.5611
-10.5794
-10.5971
-10.615
-10.6335
-10.6529
-10.6734
-10.695
-10.7176
-10.7406
-10.7636
-10.7857
-10.8063
-10.8245
-10.8397
-10.8509
-10.8575
-10.8588
-10.8543
-10.8435
-10.826
-10.8013
-10.7691
-10.7292
-10.6813
-10.6253
-10.5608
-10.4878
-10.406
-10.3153
-10.2155
-10.1065
-9.9881
-9.86025
-9.72284
-9.5758
-9.41908
-9.25271
-9.07673
-8.89124
-8.69643
-8.49252
-8.27983
-8.05875
-7.82974
-7.59337
-7.35027
-7.10115
-6.84681
-6.58812
-6.32598
-6.06139
-5.79536
-5.52891
-5.26311
-4.99899
-4.73757
-4.47983
-4.22671
-3.97906
-3.73768
-3.50328
-3.27646
-3.05775
-2.84754
-2.64618
-2.45387
-2.27076
-2.09689
-1.93222
-1.77664
-1.62999
-1.49204
-1.36252
-1.2411
-1.12746
-1.02124
-0.922043
-0.829499
-0.743213
-0.662804
-0.587873
-0.518072
-0.452957
-0.392334
-0.335438
-0.282885
-0.232051
-0.18801
-0.137771
-0.111054
-0.0374612
-0.0828588
-10.4015
-10.4223
-10.4439
-10.4659
-10.4875
-10.5083
-10.528
-10.5466
-10.5645
-10.5818
-10.5991
-10.6168
-10.6351
-10.6541
-10.6739
-10.6942
-10.7146
-10.7347
-10.7538
-10.7713
-10.7864
-10.7984
-10.8067
-10.8105
-10.8092
-10.8023
-10.7893
-10.7698
-10.7434
-10.7097
-10.6685
-10.6196
-10.5626
-10.4974
-10.4238
-10.3416
-10.2507
-10.1508
-10.0419
-9.92382
-9.79645
-9.6597
-9.51352
-9.35787
-9.19278
-9.0183
-8.83454
-8.64168
-8.43995
-8.22966
-8.0112
-7.78503
-7.55168
-7.31178
-7.06602
-6.81518
-6.56008
-6.30162
-6.04073
-5.77841
-5.51566
-5.25347
-4.99287
-4.73483
-4.48031
-4.23022
-3.98539
-3.74659
-3.51451
-3.28976
-3.07284
-2.86418
-2.66408
-2.47278
-2.29042
-2.11707
-1.95269
-1.79721
-1.65046
-1.51223
-1.38228
-1.26031
-1.146
-1.03901
-0.938959
-0.845494
-0.758232
-0.676802
-0.600815
-0.52993
-0.463712
-0.401963
-0.343942
-0.29023
-0.238293
-0.193044
-0.141834
-0.113781
-0.0395958
-0.0834342
-10.3957
-10.4154
-10.4355
-10.4559
-10.4761
-10.4956
-10.5143
-10.5322
-10.5493
-10.5661
-10.5827
-10.5995
-10.6166
-10.6341
-10.652
-10.6701
-10.688
-10.7054
-10.7217
-10.7362
-10.7483
-10.7574
-10.7628
-10.7638
-10.76
-10.7508
-10.7356
-10.7142
-10.686
-10.6508
-10.6083
-10.5582
-10.5003
-10.4344
-10.3602
-10.2776
-10.1864
-10.0865
-9.97773
-9.85995
-9.73306
-9.59699
-9.45169
-9.29713
-9.13333
-8.96036
-8.77834
-8.58744
-8.3879
-8.18002
-7.96418
-7.74084
-7.51052
-7.27382
-7.03141
-6.78404
-6.53253
-6.27772
-6.02053
-5.76191
-5.50283
-5.24425
-4.98715
-4.73249
-4.48118
-4.23411
-3.99209
-3.75587
-3.52613
-3.30345
-3.08834
-2.88121
-2.68239
-2.49211
-2.31052
-2.13769
-1.97362
-1.81823
-1.67138
-1.53289
-1.40252
-1.28
-1.16501
-1.05724
-0.956331
-0.861936
-0.773686
-0.691221
-0.614162
-0.542173
-0.47483
-0.411933
-0.352763
-0.297861
-0.244799
-0.198287
-0.146117
-0.116562
-0.0419912
-0.0835602
-10.3893
-10.4078
-10.4267
-10.4457
-10.4645
-10.4828
-10.5005
-10.5175
-10.534
-10.55
-10.5657
-10.5815
-10.5974
-10.6134
-10.6294
-10.6454
-10.661
-10.6758
-10.6893
-10.701
-10.7103
-10.7165
-10.7191
-10.7176
-10.7113
-10.6997
-10.6825
-10.6591
-10.6292
-10.5925
-10.5487
-10.4975
-10.4386
-10.3719
-10.2972
-10.2142
-10.1228
-10.0228
-9.91415
-9.79668
-9.67029
-9.53491
-9.3905
-9.23703
-9.07455
-8.90311
-8.72284
-8.53391
-8.33656
-8.13109
-7.91788
-7.69737
-7.47006
-7.23654
-6.99747
-6.75357
-6.50562
-6.25445
-6.00094
-5.746
-5.49056
-5.23556
-4.98195
-4.73065
-4.48254
-4.23848
-3.99926
-3.76561
-3.53819
-3.31758
-3.10428
-2.89869
-2.70115
-2.51189
-2.33107
-2.15877
-1.99501
-1.83972
-1.69278
-1.55402
-1.42323
-1.30015
-1.18448
-1.07593
-0.974154
-0.878817
-0.789567
-0.706051
-0.627904
-0.554793
-0.486305
-0.422235
-0.361894
-0.305772
-0.251562
-0.203737
-0.15061
-0.119397
-0.0446225
-0.0832696
-10.3823
-10.3997
-10.4174
-10.4352
-10.4528
-10.47
-10.4866
-10.5027
-10.5183
-10.5335
-10.5483
-10.563
-10.5776
-10.592
-10.6063
-10.6203
-10.6336
-10.646
-10.6569
-10.6659
-10.6724
-10.6759
-10.6759
-10.6718
-10.6631
-10.6493
-10.63
-10.6047
-10.5732
-10.535
-10.4898
-10.4375
-10.3777
-10.3102
-10.2349
-10.1515
-10.0599
-9.95989
-9.85137
-9.73422
-9.60834
-9.47367
-9.33016
-9.17781
-9.01665
-8.84675
-8.66823
-8.48128
-8.28613
-8.08308
-7.87249
-7.65479
-7.43049
-7.20014
-6.9644
-6.72394
-6.47953
-6.23196
-5.9821
-5.7308
-5.47898
-5.22754
-4.97739
-4.72942
-4.48448
-4.24341
-4.00697
-3.77588
-3.55077
-3.33222
-3.12072
-2.91667
-2.7204
-2.53215
-2.3521
-2.18034
-2.01688
-1.86169
-1.71465
-1.57563
-1.44441
-1.32076
-1.20441
-1.09507
-0.992417
-0.896128
-0.805864
-0.721284
-0.642031
-0.567779
-0.498127
-0.432862
-0.371327
-0.313958
-0.258578
-0.209388
-0.155305
-0.122289
-0.0474614
-0.082602
-10.3747
-10.3911
-10.4077
-10.4244
-10.4408
-10.4569
-10.4726
-10.4877
-10.5024
-10.5166
-10.5305
-10.544
-10.5573
-10.5702
-10.5828
-10.5948
-10.6059
-10.6159
-10.6244
-10.6308
-10.6348
-10.6357
-10.6332
-10.6266
-10.6156
-10.5996
-10.5783
-10.5512
-10.518
-10.4783
-10.4319
-10.3785
-10.3177
-10.2495
-10.1736
-10.0899
-9.99803
-9.89799
-9.78962
-9.6728
-9.54745
-9.4135
-9.27091
-9.11968
-8.95985
-8.7915
-8.61475
-8.42978
-8.23683
-8.03619
-7.82821
-7.61332
-7.39201
-7.16481
-6.93236
-6.69532
-6.45441
-6.21042
-5.96416
-5.71648
-5.46824
-5.22032
-4.97359
-4.72891
-4.48712
-4.249
-4.01532
-3.78675
-3.56394
-3.34743
-3.1377
-2.93517
-2.74017
-2.55293
-2.37364
-2.2024
-2.03924
-1.88414
-1.73701
-1.59771
-1.46606
-1.34184
-1.22479
-1.11465
-1.01111
-0.913858
-0.822566
-0.736906
-0.656531
-0.58112
-0.510285
-0.443805
-0.381053
-0.322409
-0.265837
-0.215237
-0.16019
-0.12524
-0.0504768
-0.0816026
-10.3666
-10.3821
-10.3977
-10.4132
-10.4286
-10.4437
-10.4584
-10.4725
-10.4862
-10.4995
-10.5123
-10.5246
-10.5365
-10.548
-10.5588
-10.5689
-10.578
-10.5858
-10.5919
-10.5959
-10.5974
-10.596
-10.591
-10.5821
-10.5689
-10.5508
-10.5276
-10.4987
-10.4639
-10.4228
-10.3751
-10.3206
-10.2589
-10.19
-10.1136
-10.0294
-9.93738
-9.83733
-9.72913
-9.61266
-9.48785
-9.35463
-9.21297
-9.06288
-8.9044
-8.73761
-8.56263
-8.37965
-8.18889
-7.99065
-7.78527
-7.57317
-7.35482
-7.13075
-6.90156
-6.6679
-6.43046
-6.19001
-5.94731
-5.70319
-5.45849
-5.21403
-4.97068
-4.72925
-4.49055
-4.25536
-4.02439
-3.79832
-3.57776
-3.36326
-3.15529
-2.95426
-2.76049
-2.57425
-2.3957
-2.22497
-2.0621
-1.90708
-1.75984
-1.62025
-1.48816
-1.36336
-1.24561
-1.13466
-1.03022
-0.93199
-0.839657
-0.752902
-0.671389
-0.594803
-0.522765
-0.455049
-0.39106
-0.331116
-0.273328
-0.221276
-0.165252
-0.128252
-0.0536352
-0.0803192
-10.3581
-10.3727
-10.3873
-10.4019
-10.4162
-10.4303
-10.444
-10.4572
-10.4699
-10.4821
-10.4938
-10.5049
-10.5155
-10.5255
-10.5347
-10.543
-10.5501
-10.5558