/*--------------------------------*- C++ -*----------------------------------*\
| =========                 |                                                 |
| \\      /  F ield         | OpenFOAM: The Open Source CFD Toolbox           |
|  \\    /   O peration     | Version:  4.1                                   |
|   \\  /    A nd           | Web:      www.OpenFOAM.org                      |
|    \\/     M anipulation  |                                                 |
\*---------------------------------------------------------------------------*/
FoamFile
{
    version     2.0;
    format      ascii;
    class       surfaceScalarField;
    location    "1400";
    object      phi;
}
// * * * * * * * * * * * * * * * * * * * * * * * * * * * * * * * * * * * * * //

dimensions      [0 3 -1 0 0 0 0];

internalField   nonuniform List<scalar> 
13452
(
6.28704e-05
-2.60189e-06
6.37403e-05
-8.69977e-07
6.46286e-05
-8.88283e-07
6.4105e-05
5.23568e-07
6.28898e-05
1.21528e-06
6.15445e-05
1.34522e-06
6.02725e-05
1.27201e-06
5.9114e-05
1.15859e-06
5.80687e-05
1.04526e-06
5.71284e-05
9.40316e-07
5.62816e-05
8.46806e-07
5.55162e-05
7.65364e-07
5.48214e-05
6.94764e-07
5.41882e-05
6.33217e-07
5.36091e-05
5.79176e-07
5.30776e-05
5.31442e-07
5.25886e-05
4.89055e-07
5.21373e-05
4.51222e-07
5.172e-05
4.173e-07
5.13333e-05
3.86766e-07
5.09741e-05
3.59193e-07
5.06398e-05
3.34231e-07
5.03283e-05
3.11592e-07
5.00372e-05
2.91046e-07
4.97648e-05
2.72415e-07
4.95092e-05
2.5558e-07
4.92687e-05
2.40491e-07
4.90416e-05
2.27164e-07
4.88257e-05
2.1587e-07
4.86192e-05
2.06518e-07
4.84185e-05
2.00626e-07
4.8228e-05
1.90516e-07
1.78899e-07
4.80491e-05
6.30682e-05
-3.67972e-06
6.27994e-05
-6.01194e-07
6.21233e-05
-2.12205e-07
6.23359e-05
3.10957e-07
6.27935e-05
7.57655e-07
6.31929e-05
9.45848e-07
6.34611e-05
1.0038e-06
6.36058e-05
1.01393e-06
6.36526e-05
9.98454e-07
6.36273e-05
9.65568e-07
6.35508e-05
9.23339e-07
6.34383e-05
8.77859e-07
6.33009e-05
8.32199e-07
6.31465e-05
7.87652e-07
6.29808e-05
7.44865e-07
6.2808e-05
7.0421e-07
6.26312e-05
6.6584e-07
6.24527e-05
6.29764e-07
6.2274e-05
5.95915e-07
6.20966e-05
5.64201e-07
6.19213e-05
5.34515e-07
6.17488e-05
5.06748e-07
6.15796e-05
4.80798e-07
6.1414e-05
4.56577e-07
6.12524e-05
4.3402e-07
6.10949e-05
4.13089e-07
6.09416e-05
3.93803e-07
6.07926e-05
3.76178e-07
6.0648e-05
3.60501e-07
6.05081e-05
3.46349e-07
6.03733e-05
3.35501e-07
6.02417e-05
3.2204e-07
3.32316e-07
6.00883e-05
6.23306e-05
-2.24888e-06
6.26619e-05
-9.32551e-07
6.281e-05
-3.60287e-07
6.30954e-05
2.55504e-08
6.34246e-05
4.2851e-07
6.37126e-05
6.57838e-07
6.39516e-05
7.64736e-07
6.41451e-05
8.20436e-07
6.42964e-05
8.47199e-07
6.44106e-05
8.51309e-07
6.4494e-05
8.39986e-07
6.4552e-05
8.19839e-07
6.45894e-05
7.94825e-07
6.461e-05
7.67062e-07
6.46169e-05
7.3791e-07
6.46128e-05
7.08335e-07
6.45997e-05
6.78974e-07
6.45792e-05
6.50217e-07
6.45528e-05
6.22307e-07
6.45216e-05
5.95397e-07
6.44866e-05
5.69577e-07
6.44484e-05
5.44903e-07
6.44078e-05
5.21404e-07
6.43653e-05
4.99104e-07
6.43213e-05
4.78031e-07
6.42761e-05
4.58224e-07
6.42302e-05
4.39767e-07
6.41836e-05
4.22741e-07
6.41367e-05
4.07423e-07
6.40893e-05
3.93695e-07
6.40419e-05
3.829e-07
6.39907e-05
3.73278e-07
3.77588e-07
6.39454e-05
6.47767e-05
-1.44247e-06
6.47349e-05
-8.90752e-07
6.47849e-05
-4.10333e-07
6.48931e-05
-8.26431e-08
6.5057e-05
2.64661e-07
6.52214e-05
4.93349e-07
6.53726e-05
6.13545e-07
6.55095e-05
6.83611e-07
6.56307e-05
7.26001e-07
6.57358e-05
7.46181e-07
6.58257e-05
7.50086e-07
6.59018e-05
7.43694e-07
6.59658e-05
7.3083e-07
6.60192e-05
7.13679e-07
6.60634e-05
6.93732e-07
6.60996e-05
6.72105e-07
6.6129e-05
6.49588e-07
6.61525e-05
6.2672e-07
6.61709e-05
6.03873e-07
6.6185e-05
5.81314e-07
6.61954e-05
5.59235e-07
6.62025e-05
5.37773e-07
6.62069e-05
5.17036e-07
6.62089e-05
4.97109e-07
6.62088e-05
4.78076e-07
6.6207e-05
4.60023e-07
6.62037e-05
4.43067e-07
6.61991e-05
4.27331e-07
6.61935e-05
4.13061e-07
6.61868e-05
4.00355e-07
6.61796e-05
3.90139e-07
6.61707e-05
3.82197e-07
3.82044e-07
6.61662e-05
6.70079e-05
-9.93574e-07
6.68589e-05
-7.41782e-07
6.68315e-05
-3.82866e-07
6.68578e-05
-1.09009e-07
6.69422e-05
1.8029e-07
6.70457e-05
3.89803e-07
6.7148e-05
5.11318e-07
6.72451e-05
5.86515e-07
6.73358e-05
6.35295e-07
6.74189e-05
6.63046e-07
6.74941e-05
6.74929e-07
6.75615e-05
6.76222e-07
6.76219e-05
6.70466e-07
6.76758e-05
6.59787e-07
6.77238e-05
6.45678e-07
6.77667e-05
6.29275e-07
6.78048e-05
6.11407e-07
6.78389e-05
5.92663e-07
6.78693e-05
5.73469e-07
6.78965e-05
5.54141e-07
6.79208e-05
5.34917e-07
6.79426e-05
5.1598e-07
6.79622e-05
4.9747e-07
6.79798e-05
4.79509e-07
6.79956e-05
4.62206e-07
6.801e-05
4.45671e-07
6.8023e-05
4.30028e-07
6.80349e-05
4.15411e-07
6.8046e-05
4.02028e-07
6.80563e-05
3.90045e-07
6.80664e-05
3.80038e-07
6.80765e-05
3.72108e-07
3.68258e-07
6.80903e-05
6.90833e-05
-6.9287e-07
6.89333e-05
-5.91803e-07
6.88863e-05
-3.35808e-07
6.88865e-05
-1.09237e-07
6.8934e-05
1.32781e-07
6.90039e-05
3.19956e-07
6.90771e-05
4.38072e-07
6.91489e-05
5.14752e-07
6.9218e-05
5.66158e-07
6.92834e-05
5.97687e-07
6.93443e-05
6.14042e-07
6.94006e-05
6.19879e-07
6.94526e-05
6.18454e-07
6.95006e-05
6.11828e-07
6.95448e-05
6.01471e-07
6.95856e-05
5.88505e-07
6.96232e-05
5.73759e-07
6.9658e-05
5.57839e-07
6.96903e-05
5.41193e-07
6.97203e-05
5.24158e-07
6.97482e-05
5.06995e-07
6.97743e-05
4.89905e-07
6.97987e-05
4.73047e-07
6.98217e-05
4.56558e-07
6.98433e-05
4.40556e-07
6.98638e-05
4.25157e-07
6.98834e-05
4.10478e-07
6.99021e-05
3.96642e-07
6.99204e-05
3.83807e-07
6.99383e-05
3.7211e-07
6.99565e-05
3.61849e-07
6.99756e-05
3.53037e-07
3.4612e-07
6.99977e-05
7.11508e-05
-4.77351e-07
7.10202e-05
-4.61197e-07
7.09675e-05
-2.8311e-07
7.09558e-05
-9.75456e-08
7.09831e-05
1.05519e-07
7.10322e-05
2.7082e-07
7.10875e-05
3.82804e-07
7.11435e-05
4.58716e-07
7.11988e-05
5.10836e-07
7.12523e-05
5.44268e-07
7.1303e-05
5.63313e-07
7.13508e-05
5.72068e-07
7.13958e-05
5.73504e-07
7.1438e-05
5.6961e-07
7.14776e-05
5.61823e-07
7.15149e-05
5.51242e-07
7.155e-05
5.38688e-07
7.1583e-05
5.2477e-07
7.16143e-05
5.09946e-07
7.16439e-05
4.94565e-07
7.1672e-05
4.78897e-07
7.16987e-05
4.63153e-07
7.17243e-05
4.47501e-07
7.17487e-05
4.32082e-07
7.17723e-05
4.17017e-07
7.1795e-05
4.02415e-07
7.18171e-05
3.88378e-07
7.18388e-05
3.75006e-07
7.18602e-05
3.624e-07
7.18816e-05
3.50635e-07
7.19037e-05
3.39807e-07
7.19269e-05
3.29797e-07
3.2044e-07
7.19526e-05
7.32508e-05
-3.2285e-07
7.31391e-05
-3.49561e-07
7.30844e-05
-2.28388e-07
7.30656e-05
-7.87336e-08
7.30803e-05
9.08537e-08
7.31157e-05
2.35441e-07
7.31589e-05
3.39552e-07
7.32046e-05
4.13017e-07
7.32508e-05
4.64614e-07
7.32963e-05
4.98831e-07
7.33401e-05
5.19514e-07
7.33819e-05
5.30237e-07
7.34217e-05
5.33694e-07
7.34595e-05
5.31772e-07
7.34955e-05
5.25869e-07
7.35297e-05
5.17053e-07
7.35622e-05
5.0613e-07
7.35933e-05
4.9371e-07
7.3623e-05
4.80252e-07
7.36514e-05
4.66112e-07
7.36788e-05
4.51566e-07
7.37051e-05
4.36828e-07
7.37305e-05
4.22071e-07
7.37552e-05
4.07436e-07
7.37792e-05
3.93038e-07
7.38026e-05
3.78977e-07
7.38256e-05
3.65337e-07
7.38485e-05
3.52187e-07
7.38713e-05
3.39581e-07
7.38944e-05
3.27528e-07
7.39182e-05
3.15998e-07
7.39432e-05
3.04789e-07
2.93543e-07
7.39701e-05
7.5393e-05
-2.13412e-07
7.5299e-05
-2.55568e-07
7.5245e-05
-1.74399e-07
7.52219e-05
-5.5594e-08
7.5228e-05
8.47941e-08
7.52534e-05
2.09987e-07
7.52878e-05
3.05127e-07
7.5326e-05
3.74828e-07
7.53657e-05
4.24926e-07
7.54055e-05
4.59097e-07
7.54443e-05
4.80658e-07
7.54819e-05
4.92688e-07
7.5518e-05
4.97596e-07
7.55526e-05
4.9715e-07
7.55858e-05
4.92687e-07
7.56176e-05
4.85237e-07
7.56481e-05
4.75587e-07
7.56775e-05
4.64339e-07
7.57058e-05
4.51953e-07
7.57331e-05
4.38785e-07
7.57596e-05
4.25113e-07
7.57852e-05
4.11154e-07
7.58102e-05
3.97081e-07
7.58346e-05
3.8303e-07
7.58586e-05
3.69111e-07
7.58821e-05
3.55412e-07
7.59055e-05
3.41998e-07
7.59288e-05
3.28912e-07
7.59522e-05
3.16167e-07
7.5976e-05
3.03727e-07
7.60005e-05
2.91492e-07
7.6026e-05
2.79233e-07
2.66569e-07
7.6053e-05
7.75831e-05
-1.36894e-07
7.75059e-05
-1.78409e-07
7.74552e-05
-1.2369e-07
7.74299e-05
-3.02829e-08
7.74298e-05
8.48594e-08
7.74477e-05
1.92104e-07
7.74752e-05
2.77655e-07
7.75074e-05
3.42579e-07
7.7542e-05
3.90357e-07
7.75773e-05
4.23778e-07
7.76124e-05
4.45587e-07
7.76467e-05
4.58388e-07
7.768e-05
4.64301e-07
7.77122e-05
4.64952e-07
7.77433e-05
4.616e-07
7.77733e-05
4.55228e-07
7.78023e-05
4.46596e-07
7.78303e-05
4.36293e-07
7.78575e-05
4.24774e-07
7.78839e-05
4.12392e-07
7.79096e-05
3.99423e-07
7.79346e-05
3.86086e-07
7.79592e-05
3.72548e-07
7.79833e-05
3.58944e-07
7.8007e-05
3.45375e-07
7.80305e-05
3.31918e-07
7.80539e-05
3.18622e-07
7.80773e-05
3.05508e-07
7.81009e-05
2.92563e-07
7.81249e-05
2.79722e-07
7.81495e-05
2.66859e-07
7.8175e-05
2.53754e-07
2.40069e-07
7.82015e-05
7.98256e-05
-8.41764e-08
7.97641e-05
-1.1686e-07
7.97186e-05
-7.82456e-08
7.9693e-05
-4.7151e-09
7.96888e-05
8.91062e-08
7.97008e-05
1.80058e-07
7.97227e-05
2.55838e-07
7.975e-05
3.15272e-07
7.97803e-05
3.60051e-07
7.98119e-05
3.9211e-07
7.98439e-05
4.13615e-07
7.98756e-05
4.26716e-07
7.99066e-05
4.33246e-07
7.99369e-05
4.34672e-07
7.99664e-05
4.3216e-07
7.9995e-05
4.26633e-07
8.00227e-05
4.18819e-07
8.00497e-05
4.09285e-07
8.0076e-05
3.98476e-07
8.01017e-05
3.86741e-07
8.01268e-05
3.74351e-07
8.01513e-05
3.61519e-07
8.01755e-05
3.48413e-07
8.01992e-05
3.35159e-07
8.02228e-05
3.21853e-07
8.02461e-05
3.08561e-07
8.02694e-05
2.95321e-07
8.02928e-05
2.82138e-07
8.03164e-05
2.68983e-07
8.03403e-05
2.55783e-07
8.03648e-05
2.4241e-07
8.03898e-05
2.28673e-07
2.14293e-07
8.04156e-05
8.21247e-05
-4.84491e-08
8.2077e-05
-6.91518e-08
8.20381e-05
-3.93047e-08
8.20139e-05
1.94389e-08
8.20072e-05
9.5809e-08
8.20149e-05
1.72356e-07
8.20322e-05
2.38598e-07
8.20553e-05
2.9214e-07
8.20819e-05
3.33406e-07
8.21105e-05
3.63586e-07
8.21398e-05
3.84302e-07
8.21692e-05
3.97284e-07
8.21984e-05
4.04083e-07
8.2227e-05
4.05994e-07
8.22551e-05
4.04079e-07
8.22826e-05
3.99194e-07
8.23094e-05
3.92024e-07
8.23355e-05
3.83112e-07
8.23611e-05
3.72886e-07
8.23862e-05
3.61685e-07
8.24108e-05
3.49775e-07
8.24349e-05
3.37363e-07
8.24587e-05
3.2461e-07
8.24822e-05
3.11639e-07
8.25055e-05
2.98538e-07
8.25287e-05
2.85366e-07
8.25519e-05
2.72152e-07
8.25752e-05
2.58894e-07
8.25986e-05
2.45558e-07
8.26223e-05
2.3207e-07
8.26464e-05
2.18319e-07
8.26709e-05
2.04146e-07
1.89339e-07
8.26959e-05
8.4484e-05
-2.46526e-08
8.4448e-05
-3.32143e-08
8.44161e-05
-7.35508e-09
8.43946e-05
4.08877e-08
8.4387e-05
1.03442e-07
8.43917e-05
1.67634e-07
8.44054e-05
2.24938e-07
8.4425e-05
2.72491e-07
8.44485e-05
3.09916e-07
8.44743e-05
3.37814e-07
8.45013e-05
3.57334e-07
8.45287e-05
3.69827e-07
8.45562e-05
3.76577e-07
8.45835e-05
3.78708e-07
8.46104e-05
3.77168e-07
8.46369e-05
3.72739e-07
8.46629e-05
3.66059e-07
8.46883e-05
3.57637e-07
8.47133e-05
3.47884e-07
8.47379e-05
3.37123e-07
8.47621e-05
3.25611e-07
8.47859e-05
3.13549e-07
8.48094e-05
3.01091e-07
8.48327e-05
2.88355e-07
8.48558e-05
2.75423e-07
8.48788e-05
2.62348e-07
8.49018e-05
2.49155e-07
8.49249e-05
2.3584e-07
8.4948e-05
2.2237e-07
8.49714e-05
2.08681e-07
8.49951e-05
1.9468e-07
8.5019e-05
1.80247e-07
1.65224e-07
8.50431e-05
8.69066e-05
-9.09109e-09
8.68803e-05
-6.92373e-09
8.68552e-05
1.77518e-08
8.68373e-05
5.88137e-08
8.683e-05
1.10754e-07
8.68329e-05
1.64664e-07
8.6844e-05
2.13903e-07
8.68608e-05
2.55647e-07
8.68816e-05
2.89097e-07
8.6905e-05
3.14439e-07
8.69299e-05
3.32443e-07
8.69556e-05
3.44133e-07
8.69816e-05
3.50555e-07
8.70077e-05
3.52666e-07
8.70335e-05
3.51297e-07
8.70591e-05
3.47154e-07
8.70844e-05
3.4082e-07
8.71092e-05
3.3277e-07
8.71337e-05
3.23389e-07
8.71579e-05
3.12985e-07
8.71817e-05
3.01802e-07
8.72052e-05
2.90033e-07
8.72284e-05
2.77826e-07
8.72515e-05
2.65291e-07
8.72744e-05
2.52507e-07
8.72973e-05
2.39523e-07
8.732e-05
2.26363e-07
8.73429e-05
2.13024e-07
8.73658e-05
1.99479e-07
8.73888e-05
1.85677e-07
8.74119e-05
1.71548e-07
8.74351e-05
1.57004e-07
1.41934e-07
8.74584e-05
8.93956e-05
8.74814e-10
8.93769e-05
1.1714e-08
8.93581e-05
3.66141e-08
8.9344e-05
7.28711e-08
8.93379e-05
1.16838e-07
8.93402e-05
1.6241e-07
8.93495e-05
2.04609e-07
8.93642e-05
2.4094e-07
8.93828e-05
2.7046e-07
8.94042e-05
2.93107e-07
8.94272e-05
3.09369e-07
8.94514e-05
3.20011e-07
8.9476e-05
3.2587e-07
8.9501e-05
3.27748e-07
8.95259e-05
3.26367e-07
8.95507e-05
3.22353e-07
8.95753e-05
3.16234e-07
8.95996e-05
3.08447e-07
8.96236e-05
2.99348e-07
8.96474e-05
2.89227e-07
8.96709e-05
2.78315e-07
8.96941e-05
2.66792e-07
8.97171e-05
2.548e-07
8.974e-05
2.42445e-07
8.97627e-05
2.298e-07
8.97853e-05
2.16913e-07
8.98079e-05
2.03808e-07
8.98304e-05
1.90486e-07
8.9853e-05
1.76929e-07
8.98755e-05
1.631e-07
8.98981e-05
1.4895e-07
8.99207e-05
1.34421e-07
1.19435e-07
8.99432e-05
9.19536e-05
7.09153e-09
9.19409e-05
2.44544e-08
9.19274e-05
5.00859e-08
9.19172e-05
8.31106e-08
9.19129e-05
1.21145e-07
9.19152e-05
1.60078e-07
9.19235e-05
1.96292e-07
9.19367e-05
2.27743e-07
9.19537e-05
2.53525e-07
9.19733e-05
2.7346e-07
9.19948e-05
2.87852e-07
9.20176e-05
2.97269e-07
9.20411e-05
3.02376e-07
9.2065e-05
3.03844e-07
9.2089e-05
3.02292e-07
9.21131e-05
2.98269e-07
9.21371e-05
2.92248e-07
9.21609e-05
2.84624e-07
9.21846e-05
2.75727e-07
9.2208e-05
2.65824e-07
9.22311e-05
2.5513e-07
9.22541e-05
2.43815e-07
9.22769e-05
2.32013e-07
9.22995e-05
2.19824e-07
9.2322e-05
2.07317e-07
9.23444e-05
1.94541e-07
9.23667e-05
1.8152e-07
9.23889e-05
1.68261e-07
9.24111e-05
1.54755e-07
9.24332e-05
1.40979e-07
9.24552e-05
1.26904e-07
9.24772e-05
1.12492e-07
9.76958e-08
9.24989e-05
9.45834e-05
1.08268e-08
9.45751e-05
3.27673e-08
9.45661e-05
5.91154e-08
9.45593e-05
8.98663e-08
9.4557e-05
1.23458e-07
9.45599e-05
1.57144e-07
9.45679e-05
1.88357e-07
9.45801e-05
2.15514e-07
9.45958e-05
2.37846e-07
9.46141e-05
2.55151e-07
9.46343e-05
2.67629e-07
9.46559e-05
2.75711e-07
9.46783e-05
2.79932e-07
9.47013e-05
2.8085e-07
9.47246e-05
2.78993e-07
9.4748e-05
2.74842e-07
9.47715e-05
2.68815e-07
9.47948e-05
2.61268e-07
9.48181e-05
2.52501e-07
9.48411e-05
2.42758e-07
9.4864e-05
2.32239e-07
9.48867e-05
2.21102e-07
9.49093e-05
2.09472e-07
9.49317e-05
1.97441e-07
9.49539e-05
1.8508e-07
9.4976e-05
1.72433e-07
9.4998e-05
1.59529e-07
9.50199e-05
1.4638e-07
9.50416e-05
1.32986e-07
9.50633e-05
1.19337e-07
9.50848e-05
1.05417e-07
9.51061e-05
9.12085e-08
7.66835e-08
9.51271e-05
9.72874e-05
1.29401e-08
9.72823e-05
3.78401e-08
9.72768e-05
6.46341e-08
9.7273e-05
9.36434e-08
9.72727e-05
1.23824e-07
9.72765e-05
1.53339e-07
9.72844e-05
1.80399e-07
9.72961e-05
2.03832e-07
9.73109e-05
2.23042e-07
9.73282e-05
2.37866e-07
9.73474e-05
2.48455e-07
9.73679e-05
2.55152e-07
9.73895e-05
2.58398e-07
9.74117e-05
2.5866e-07
9.74343e-05
2.56394e-07
9.74571e-05
2.52016e-07
9.748e-05
2.45896e-07
9.75029e-05
2.38352e-07
9.75258e-05
2.29654e-07
9.75485e-05
2.20023e-07
9.75711e-05
2.09643e-07
9.75935e-05
1.9866e-07
9.76158e-05
1.87188e-07
9.7638e-05
1.75317e-07
9.76599e-05
1.63111e-07
9.76817e-05
1.50617e-07
9.77034e-05
1.37865e-07
9.77249e-05
1.24872e-07
9.77463e-05
1.11646e-07
9.77674e-05
9.81877e-08
9.77883e-05
8.44935e-08
9.7809e-05
7.05593e-08
5.6371e-08
9.78293e-05
0.000100068
1.40079e-08
0.000100065
4.06063e-08
0.000100062
6.7493e-08
0.000100061
9.50245e-08
0.000100062
1.22477e-07
0.000100067
1.48612e-07
0.000100075
1.72202e-07
0.000100087
1.92416e-07
0.000100101
2.08832e-07
0.000100117
2.21352e-07
0.000100136
2.30118e-07
0.000100155
2.35424e-07
0.000100176
2.37645e-07
0.000100198
2.37182e-07
0.00010022
2.34427e-07
0.000100242
2.29745e-07
0.000100264
2.23461e-07
0.000100287
2.15858e-07
0.000100309
2.07177e-07
0.000100332
1.97618e-07
0.000100354
1.87348e-07
0.000100376
1.765e-07
0.000100398
1.65181e-07
0.00010042
1.53472e-07
0.000100442
1.41436e-07
0.000100463
1.29119e-07
0.000100485
1.16554e-07
0.000100506
1.03761e-07
0.000100527
9.07557e-08
0.000100547
7.75449e-08
0.000100568
6.41366e-08
0.000100588
5.05339e-08
3.67359e-08
0.000100607
0.000102928
1.44179e-08
0.000102926
4.17904e-08
0.000102926
6.84372e-08
0.000102926
9.46071e-08
0.000102929
1.19772e-07
0.000102934
1.43088e-07
0.000102943
1.63728e-07
0.000102954
1.81136e-07
0.000102968
1.95047e-07
0.000102984
2.05439e-07
0.000103001
2.12467e-07
0.00010302
2.16402e-07
0.00010304
2.17576e-07
0.000103061
2.16341e-07
0.000103083
2.1304e-07
0.000103104
2.07993e-07
0.000103126
2.01488e-07
0.000103148
1.93775e-07
0.000103171
1.85069e-07
0.000103193
1.7555e-07
0.000103215
1.65367e-07
0.000103236
1.54641e-07
0.000103258
1.4347e-07
0.00010328
1.31931e-07
0.000103301
1.20081e-07
0.000103322
1.07967e-07
0.000103343
9.56221e-08
0.000103364
8.30702e-08
0.000103384
7.03306e-08
0.000103404
5.74178e-08
0.000103424
4.43449e-08
0.000103444
3.1123e-08
1.77577e-08
0.000103463
0.000105869
1.44329e-08
0.000105869
4.1954e-08
0.000105869
6.81063e-08
0.000105871
9.29684e-08
0.000105874
1.16129e-07
0.00010588
1.37011e-07
0.000105889
1.5508e-07
0.0001059
1.69997e-07
0.000105913
1.81637e-07
0.000105929
1.90051e-07
0.000105946
1.95423e-07
0.000105964
1.98015e-07
0.000105984
1.98134e-07
0.000106004
1.96094e-07
0.000106025
1.92203e-07
0.000106046
1.86744e-07
0.000106068
1.79971e-07
0.000106089
1.72106e-07
0.000106111
1.63339e-07
0.000106133
1.53831e-07
0.000106154
1.43717e-07
0.000106176
1.33103e-07
0.000106197
1.2208e-07
0.000106218
1.10718e-07
0.000106239
9.90707e-08
0.00010626
8.71837e-08
0.000106281
7.5089e-08
0.000106301
6.2815e-08
0.000106321
5.03817e-08
0.000106341
3.781e-08
0.00010636
2.51149e-08
0.000106379
1.23146e-08
-5.83421e-10
0.000106397
0.000108894
1.42385e-08
0.000108894
4.15428e-08
0.000108895
6.70541e-08
0.000108897
9.06561e-08
0.000108901
1.12006e-07
0.000108908
1.30718e-07
0.000108916
1.4648e-07
0.000108927
1.59129e-07
0.00010894
1.68666e-07
0.000108955
1.75215e-07
0.000108971
1.78991e-07
0.000108989
1.8026e-07
0.000109008
1.79314e-07
0.000109028
1.76443e-07
0.000109048
1.71923e-07
0.000109069
1.66008e-07
0.00010909
1.58924e-07
0.000109111
1.50868e-07
0.000109132
1.42008e-07
0.000109154
1.32486e-07
0.000109175
1.22421e-07
0.000109196
1.11911e-07
0.000109217
1.01034e-07
0.000109238
8.98554e-08
0.000109259
7.84258e-08
0.000109279
6.67859e-08
0.000109299
5.49698e-08
0.000109319
4.30039e-08
0.000109339
3.09131e-08
0.000109358
1.87173e-08
0.000109376
6.43747e-09
0.000109395
-5.90935e-09
-1.83112e-08
0.000109412
0.000112005
1.3974e-08
0.000112005
4.09276e-08
0.000112007
6.57772e-08
0.000112009
8.81986e-08
0.000112013
1.0789e-07
0.000112019
1.24616e-07
0.000112028
1.38245e-07
0.000112038
1.48771e-07
0.00011205
1.56308e-07
0.000112064
1.61055e-07
0.00011208
1.63261e-07
0.000112097
1.63206e-07
0.000112115
1.61172e-07
0.000112134
1.57432e-07
0.000112154
1.52239e-07
0.000112174
1.45823e-07
0.000112195
1.38383e-07
0.000112216
1.30094e-07
0.000112236
1.21106e-07
0.000112257
1.11542e-07
0.000112278
1.01507e-07
0.000112299
9.10876e-08
0.00011232
8.03531e-08
0.00011234
6.93615e-08
0.000112361
5.81587e-08
0.000112381
4.67833e-08
0.0001124
3.52667e-08
0.00011242
2.36361e-08
0.000112439
1.19154e-08
0.000112457
1.26532e-10
0.000112475
-1.17101e-08
0.000112493
-2.35756e-08
-3.54581e-08
0.00011251
0.000115205
1.3758e-08
0.000115205
4.04478e-08
0.000115206
6.47548e-08
0.000115208
8.61333e-08
0.000115212
1.04309e-07
0.000115217
1.19182e-07
0.000115225
1.30784e-07
0.000115234
1.3926e-07
0.000115246
1.44838e-07
0.000115259
1.47791e-07
0.000115274
1.48412e-07
0.00011529
1.46995e-07
0.000115307
1.43824e-07
0.000115326
1.39158e-07
0.000115345
1.33232e-07
0.000115364
1.26253e-07
0.000115384
1.18401e-07
0.000115404
1.0983e-07
0.000115425
1.00669e-07
0.000115445
9.1028e-08
0.000115466
8.09963e-08
0.000115486
7.06488e-08
0.000115507
6.00462e-08
0.000115527
4.9239e-08
0.000115547
3.82676e-08
0.000115566
2.71673e-08
0.000115586
1.59663e-08
0.000115605
4.69072e-09
0.000115623
-6.63725e-09
0.000115641
-1.79957e-08
0.000115659
-2.93655e-08
0.000115676
-4.0728e-08
-5.20727e-08
0.000115693
0.000118496
1.37071e-08
0.000118496
4.04534e-08
0.000118496
6.44989e-08
0.000118497
8.50504e-08
0.0001185
1.01865e-07
0.000118504
1.14982e-07
0.00011851
1.24606e-07
0.000118518
1.31038e-07
0.000118529
1.34629e-07
0.000118541
1.35734e-07
0.000118554
1.34697e-07
0.000118569
1.31836e-07
0.000118586
1.27437e-07
0.000118603
1.21753e-07
0.000118621
1.15005e-07
0.00011864
1.07381e-07
0.00011866
9.90402e-08
0.000118679
9.01184e-08
0.000118699
8.0728e-08
0.000118719
7.09609e-08
0.00011874
6.08945e-08
0.00011876
5.05903e-08
0.00011878
4.01011e-08
0.000118799
2.9467e-08
0.000118819
1.87252e-08
0.000118838
7.90303e-09
0.000118857
-2.97223e-09
0.000118876
-1.388e-08
0.000118894
-2.47979e-08
0.000118911
-3.57086e-08
0.000118929
-4.65924e-08
0.000118945
-5.74349e-08
-6.82248e-08
0.000118962
0.000121881
1.39595e-08
0.00012188
4.13617e-08
0.000121879
6.56228e-08
0.000121878
8.56607e-08
0.000121879
1.01287e-07
0.000121881
1.12715e-07
0.000121886
1.20345e-07
0.000121892
1.24662e-07
0.0001219
1.26156e-07
0.000121911
1.25281e-07
0.000121923
1.22442e-07
0.000121937
1.17987e-07
0.000121952
1.12213e-07
0.000121969
1.05372e-07
0.000121986
9.76701e-08
0.000122004
8.9281e-08
0.000122023
8.0346e-08
0.000122042
7.0982e-08
0.000122061
6.12825e-08
0.000122081
5.1325e-08
0.000122101
4.11706e-08
0.00012212
3.08704e-08
0.00012214
2.04637e-08
0.000122159
9.9851e-09
0.000122179
-5.3917e-10
0.000122198
-1.10846e-08
0.000122216
-2.16321e-08
0.000122235
-3.21625e-08
0.000122252
-4.26599e-08
0.00012227
-5.31074e-08
0.000122287
-6.34912e-08
0.000122303
-7.3797e-08
-8.40183e-08
0.000122319
0.000125363
1.4702e-08
0.00012536
4.37337e-08
0.000125357
6.89399e-08
0.000125354
8.88928e-08
0.000125352
1.03518e-07
0.000125351
1.13271e-07
0.000125353
1.18802e-07
0.000125356
1.20821e-07
0.000125363
1.19996e-07
0.000125371
1.169e-07
0.000125381
1.12013e-07
0.000125394
1.05725e-07
0.000125407
9.8353e-08
0.000125423
9.01469e-08
0.000125439
8.1306e-08
0.000125456
7.19873e-08
0.000125474
6.23148e-08
0.000125493
5.23849e-08
0.000125512
4.22739e-08
0.000125531
3.20403e-08
0.000125551
2.17306e-08
0.00012557
1.13805e-08
0.00012559
1.01844e-09
0.000125609
-9.33293e-09
0.000125628
-1.96551e-08
0.000125647
-2.99327e-08
0.000125665
-4.0152e-08
0.000125684
-5.03007e-08
0.000125701
-6.0367e-08
0.000125719
-7.03396e-08
0.000125735
-8.02077e-08
0.000125751
-8.9962e-08
-9.95984e-08
0.000125767
0.000128944
1.62219e-08
0.000128939
4.84029e-08
0.000128932
7.56182e-08
0.000128925
9.60386e-08
0.000128919
1.09833e-07
0.000128914
1.17816e-07
0.000128912
1.20985e-07
0.000128913
1.20354e-07
0.000128916
1.16815e-07
0.000128921
1.11096e-07
0.00012893
1.03773e-07
0.00012894
9.52925e-08
0.000128953
8.59943e-08
0.000128967
7.61331e-08
0.000128982
6.58992e-08
0.000128999
5.54326e-08
0.000129016
4.48369e-08
0.000129034
3.41865e-08
0.000129053
2.35363e-08
0.000129072
1.29238e-08
0.000129091
2.3777e-09
0.000129111
-8.08388e-09
0.00012913
-1.84464e-08
0.00012915
-2.8701e-08
0.000129169
-3.88398e-08
0.000129188
-4.88576e-08
0.000129206
-5.87489e-08
0.000129225
-6.85091e-08
0.000129242
-7.81327e-08
0.00012926
-8.76147e-08
0.000129276
-9.69493e-08
0.000129293
-1.06132e-07
-1.15163e-07
0.000129308
0.000132626
1.89967e-08
0.000132618
5.66928e-08
0.000132606
8.74254e-08
0.000132593
1.08968e-07
0.000132581
1.21995e-07
0.000132571
1.27886e-07
0.000132564
1.28149e-07
0.00013256
1.24225e-07
0.00013256
1.17309e-07
0.000132562
1.08331e-07
0.000132568
9.79874e-08
0.000132577
8.67934e-08
0.000132587
7.51157e-08
0.0001326
6.32117e-08
0.000132615
5.12572e-08
0.000132631
3.93709e-08
0.000132648
2.76278e-08
0.000132666
1.60766e-08
0.000132685
4.742e-09
0.000132704
-6.36069e-09
0.000132724
-1.72293e-08
0.000132744
-2.78634e-08
0.000132764
-3.82696e-08
0.000132783
-4.84527e-08
0.000132803
-5.84212e-08
0.000132822
-6.818e-08
0.000132841
-7.77361e-08
0.00013286
-8.70927e-08
0.000132878
-9.6254e-08
0.000132896
-1.05221e-07
0.000132913
-1.13995e-07
0.000132929
-1.22578e-07
-1.30974e-07
0.000132945
0.000136413
2.38816e-08
0.000136399
7.0816e-08
0.00013638
1.07129e-07
0.000136358
1.30435e-07
0.000136338
1.42442e-07
0.00013632
1.4545e-07
0.000136306
1.41756e-07
0.000136297
1.33424e-07
0.000136293
1.22067e-07
0.000136292
1.08864e-07
0.000136295
9.46609e-08
0.000136302
8.00412e-08
0.000136312
6.53924e-08
0.000136324
5.09612e-08
0.000136338
3.68955e-08
0.000136355
2.3277e-08
0.000136372
1.01426e-08
0.000136391
-2.49998e-09
0.00013641
-1.46603e-08
0.00013643
-2.63591e-08
0.00013645
-3.76217e-08
0.000136471
-4.84766e-08
0.000136492
-5.89512e-08
0.000136512
-6.90725e-08
0.000136533
-7.88642e-08
0.000136553
-8.83484e-08
0.000136573
-9.75432e-08
0.000136592
-1.06465e-07
0.000136611
-1.15126e-07
0.000136629
-1.23539e-07
0.000136647
-1.3171e-07
0.000136664
-1.39648e-07
-1.47365e-07
0.00013668
0.000140307
3.24953e-08
0.000140283
9.46071e-08
0.000140251
1.39136e-07
0.000140217
1.64486e-07
0.000140185
1.74454e-07
0.000140158
1.72869e-07
0.000140136
1.63291e-07
0.000140121
1.4871e-07
0.000140112
1.31281e-07
0.000140108
1.12476e-07
0.00014011
9.32824e-08
0.000140115
7.43336e-08
0.000140125
5.60049e-08
0.000140137
3.84968e-08
0.000140152
2.19014e-08
0.000140169
6.23632e-09
0.000140188
-8.52009e-09
0.000140208
-2.24179e-08
0.000140229
-3.55155e-08
0.00014025
-4.78796e-08
0.000140272
-5.9573e-08
0.000140294
-7.06587e-08
0.000140317
-8.11916e-08
0.000140339
-9.12245e-08
0.000140361
-1.00801e-07
0.000140382
-1.09962e-07
0.000140403
-1.18741e-07
0.000140424
-1.27168e-07
0.000140444
-1.35266e-07
0.000140464
-1.43058e-07
0.000140483
-1.50559e-07
0.000140501
-1.57788e-07
-1.64759e-07
0.000140518
0.000144309
4.8088e-08
0.000144269
1.34874e-07
0.000144217
1.90443e-07
0.000144165
2.16889e-07
0.000144117
2.22125e-07
0.000144078
2.12555e-07
0.000144047
1.93771e-07
0.000144026
1.70084e-07
0.000144013
1.44267e-07
0.000144007
1.18044e-07
0.000144008
9.24795e-08
0.000144014
6.81743e-08
0.000144025
4.54137e-08
0.000144039
2.42918e-08
0.000144056
4.7892e-09
0.000144076
-1.31746e-08
0.000144097
-2.97148e-08
0.000144119
-4.49573e-08
0.000144143
-5.90314e-08
0.000144167
-7.20581e-08
0.000144192
-8.41518e-08
0.000144216
-9.54136e-08
0.000144241
-1.05936e-07
0.000144266
-1.15797e-07
0.00014429
-1.25069e-07
0.000144314
-1.3381e-07
0.000144337
-1.42074e-07
0.00014436
-1.49903e-07
0.000144382
-1.57337e-07
0.000144403
-1.64406e-07
0.000144424
-1.71139e-07
0.000144444
-1.77558e-07
-1.83689e-07
0.000144463
0.000148418
7.75955e-08
0.000148349
2.03829e-07
0.000148268
2.7185e-07
0.00014819
2.9527e-07
0.000148122
2.898e-07
0.000148069
2.66041e-07
0.00014803
2.32768e-07
0.000148004
1.95938e-07
0.000147989
1.58777e-07
0.000147984
1.2302e-07
0.000147987
8.96135e-08
0.000147996
5.89587e-08
0.000148011
3.11183e-08
0.000148029
5.97719e-09
0.00014805
-1.66621e-08
0.000148074
-3.70326e-08
0.0001481
-5.53748e-08
0.000148127
-7.19206e-08
0.000148155
-8.6884e-08
0.000148183
-1.00458e-07
0.000148212
-1.12815e-07
0.00014824
-1.24103e-07
0.000148269
-1.34455e-07
0.000148297
-1.43983e-07
0.000148325
-1.52783e-07
0.000148352
-1.6094e-07
0.000148378
-1.68525e-07
0.000148404
-1.75598e-07
0.000148429
-1.82211e-07
0.000148453
-1.88406e-07
0.000148476
-1.94223e-07
0.000148498
-1.99693e-07
-2.04847e-07
0.000148519
0.000152631
1.36093e-07
0.000152511
3.23591e-07
0.000152383
3.99239e-07
0.00015227
4.08261e-07
0.00015218
3.80283e-07
0.000152114
3.32069e-07
0.00015207
2.76808e-07
0.000152044
2.21871e-07
0.000152033
1.70147e-07
0.000152033
1.22806e-07
0.000152042
8.03105e-08
0.000152059
4.26022e-08
0.00015208
9.33374e-09
0.000152106
-1.99421e-08
0.000152135
-4.56803e-08
0.000152167
-6.83187e-08
0.000152199
-8.8259e-08
0.000152233
-1.05863e-07
0.000152268
-1.21447e-07
0.000152303
-1.35285e-07
0.000152338
-1.47616e-07
0.000152372
-1.58643e-07
0.000152406
-1.6854e-07
0.00015244
-1.77454e-07
0.000152472
-1.85513e-07
0.000152504
-1.92823e-07
0.000152535
-1.99476e-07
0.000152565
-2.05549e-07
0.000152594
-2.11107e-07
0.000152622
-2.16206e-07
0.000152649
-2.20893e-07
0.000152674
-2.25209e-07
-2.29193e-07
0.000152698
0.000156933
2.54128e-07
0.000156722
5.349e-07
0.000156526
5.95132e-07
0.000156371
5.632e-07
0.00015626
4.9135e-07
0.000156189
4.03387e-07
0.000156149
3.1702e-07
0.000156132
2.39031e-07
0.000156132
1.70046e-07
0.000156145
1.09714e-07
0.000156167
5.75464e-08
0.000156197
1.27024e-08
0.000156233
-2.57907e-08
0.000156271
-5.88296e-08
0.000156313
-8.71997e-08
0.000156356
-1.11582e-07
0.0001564
-1.32573e-07
0.000156445
-1.50678e-07
0.00015649
-1.66331e-07
0.000156535
-1.79895e-07
0.000156579
-1.91678e-07
0.000156622
-2.0194e-07
0.000156665
-2.109e-07
0.000156706
-2.18741e-07
0.000156746
-2.25621e-07
0.000156785
-2.31668e-07
0.000156822
-2.36994e-07
0.000156858
-2.41692e-07
0.000156893
-2.45842e-07
0.000156926
-2.49509e-07
0.000156958
-2.52752e-07
0.000156989
-2.55618e-07
-2.58156e-07
0.000157018
0.00016129
5.02252e-07
0.000160918
9.06965e-07
0.00016063
8.83609e-07
0.000160432
7.60787e-07
0.000160312
6.11103e-07
0.000160253
4.62954e-07
0.000160234
3.36336e-07
0.000160241
2.31766e-07
0.000160267
1.44135e-07
0.000160306
7.05153e-08
0.000160354
9.10501e-09
0.000160409
-4.20324e-08
0.000160468
-8.47004e-08
0.00016053
-1.2036e-07
0.000160593
-1.50173e-07
0.000160656
-1.75109e-07
0.000160719
-1.95977e-07
0.000160782
-2.13451e-07
0.000160844
-2.28085e-07
0.000160904
-2.40341e-07
0.000160963
-2.50597e-07
0.000161021
-2.59171e-07
0.000161076
-2.66325e-07
0.00016113
-2.72278e-07
0.000161181
-2.77211e-07
0.000161231
-2.81278e-07
0.000161278
-2.84603e-07
0.000161324
-2.87294e-07
0.000161368
-2.89437e-07
0.000161409
-2.91109e-07
0.000161449
-2.92369e-07
0.000161486
-2.93268e-07
-2.93855e-07
0.000161522
0.000165509
1.14675e-06
0.000164895
1.52074e-06
0.000164546
1.23313e-06
0.000164348
9.58432e-07
0.000164265
6.94155e-07
0.000164259
4.69482e-07
0.000164294
3.00605e-07
0.000164355
1.7097e-07
0.000164433
6.63524e-08
0.000164522
-1.86774e-08
0.000164618
-8.72089e-08
0.000164719
-1.42371e-07
0.000164821
-1.8687e-07
0.000164923
-2.22755e-07
0.000165025
-2.51603e-07
0.000165124
-2.74706e-07
0.000165221
-2.93129e-07
0.000165316
-3.07737e-07
0.000165407
-3.19225e-07
0.000165495
-3.28156e-07
0.000165579
-3.3499e-07
0.00016566
-3.40098e-07
0.000165737
-3.43785e-07
0.000165812
-3.46299e-07
0.000165882
-3.47844e-07
0.000165949
-3.48586e-07
0.000166014
-3.48665e-07
0.000166074
-3.48194e-07