/*--------------------------------*- C++ -*----------------------------------*\
| =========                 |                                                 |
| \\      /  F ield         | OpenFOAM: The Open Source CFD Toolbox           |
|  \\    /   O peration     | Version:  4.1                                   |
|   \\  /    A nd           | Web:      www.OpenFOAM.org                      |
|    \\/     M anipulation  |                                                 |
\*---------------------------------------------------------------------------*/
FoamFile
{
    version     2.0;
    format      ascii;
    class       volVectorField;
    location    "1400";
    object      U;
}
// * * * * * * * * * * * * * * * * * * * * * * * * * * * * * * * * * * * * * //

dimensions      [0 1 -1 0 0 0 0];

internalField   nonuniform List<vector> 
6820
(
(7.12051 -2.89958 0)
(7.72183 -2.2784 0)
(7.93531 -1.28315 0)
(7.87961 -0.658566 0)
(7.73232 -0.320701 0)
(7.56973 -0.148361 0)
(7.41011 -0.0616843 0)
(7.26102 -0.0176571 0)
(7.12628 0.00481323 0)
(7.00568 0.0160259 0)
(6.89737 0.0212386 0)
(6.79958 0.0232361 0)
(6.71096 0.023513 0)
(6.63036 0.0228803 0)
(6.55678 0.0217876 0)
(6.48935 0.0204887 0)
(6.42738 0.0191268 0)
(6.37028 0.0177813 0)
(6.31752 0.0164942 0)
(6.26867 0.0152864 0)
(6.22335 0.0141667 0)
(6.18121 0.0131367 0)
(6.14197 0.0121947 0)
(6.10534 0.0113374 0)
(6.07108 0.0105615 0)
(6.03898 0.00986491 0)
(6.00881 0.00924884 0)
(5.98035 0.00871654 0)
(5.95339 0.00829255 0)
(5.92752 0.00796771 0)
(5.9028 0.00790432 0)
(5.8768 0.00799609 0)
(5.85647 0.00689807 0)
(7.59884 0.654127 0)
(7.43304 0.77761 0)
(7.36112 0.527756 0)
(7.34933 0.342769 0)
(7.39535 0.234375 0)
(7.45299 0.166654 0)
(7.49513 0.123346 0)
(7.51886 0.0959954 0)
(7.52909 0.0783841 0)
(7.52978 0.0664987 0)
(7.52339 0.0581217 0)
(7.51187 0.052021 0)
(7.49682 0.0474337 0)
(7.47936 0.0438612 0)
(7.46029 0.0409824 0)
(7.44018 0.0385929 0)
(7.41942 0.0365587 0)
(7.39835 0.0347892 0)
(7.37717 0.0332224 0)
(7.35608 0.0318151 0)
(7.33518 0.0305375 0)
(7.31458 0.0293683 0)
(7.29435 0.0282927 0)
(7.27453 0.0273007 0)
(7.25516 0.0263869 0)
(7.23626 0.0255501 0)
(7.21785 0.0247953 0)
(7.19991 0.0241328 0)
(7.1825 0.0235976 0)
(7.1655 0.0232016 0)
(7.14928 0.0231844 0)
(7.13289 0.0231899 0)
(7.12004 0.0258803 0)
(7.25567 -0.0497306 0)
(7.16457 -0.0746216 0)
(7.20132 -0.0871775 0)
(7.24037 -0.0571869 0)
(7.27477 -0.0216433 0)
(7.31088 0.00195932 0)
(7.34256 0.0166242 0)
(7.36741 0.0264406 0)
(7.38684 0.0329435 0)
(7.40194 0.0369133 0)
(7.41321 0.0391172 0)
(7.42121 0.0401864 0)
(7.42657 0.0405279 0)
(7.4298 0.0403892 0)
(7.43131 0.0399352 0)
(7.43142 0.039281 0)
(7.43037 0.0385051 0)
(7.4284 0.0376594 0)
(7.42567 0.0367787 0)
(7.42232 0.0358869 0)
(7.41849 0.0350004 0)
(7.41425 0.0341309 0)
(7.4097 0.0332871 0)
(7.4049 0.0324761 0)
(7.3999 0.0317051 0)
(7.39475 0.030982 0)
(7.38949 0.0303195 0)
(7.38413 0.0297319 0)
(7.37873 0.0292578 0)
(7.37324 0.0289114 0)
(7.36784 0.028873 0)
(7.36227 0.0289911 0)
(7.35761 0.0303932 0)
(7.29108 -0.0915081 0)
(7.22275 -0.0639329 0)
(7.23474 -0.0294731 0)
(7.25082 -0.0039292 0)
(7.2644 0.015601 0)
(7.28272 0.0269923 0)
(7.30139 0.0329064 0)
(7.31764 0.036361 0)
(7.3319 0.0384826 0)
(7.34452 0.0396044 0)
(7.35544 0.0400318 0)
(7.3647 0.0400411 0)
(7.37248 0.039796 0)
(7.379 0.0393814 0)
(7.38443 0.0388521 0)
(7.38889 0.0382491 0)
(7.39253 0.0376013 0)
(7.39546 0.0369277 0)
(7.39778 0.0362416 0)
(7.39958 0.0355526 0)
(7.40093 0.0348686 0)
(7.40189 0.0341956 0)
(7.40252 0.0335392 0)
(7.40286 0.0329051 0)
(7.40295 0.0322999 0)
(7.40283 0.0317324 0)
(7.40253 0.0312154 0)
(7.40207 0.0307654 0)
(7.40148 0.0304156 0)
(7.40079 0.0301903 0)
(7.40008 0.0302017 0)
(7.39933 0.0303903 0)
(7.399 0.0312384 0)
(7.31214 -0.0522565 0)
(7.26645 -0.0334736 0)
(7.26326 -0.0148423 0)
(7.26623 -0.00264978 0)
(7.27139 0.0101298 0)
(7.28196 0.019566 0)
(7.29393 0.0252586 0)
(7.3049 0.0290463 0)
(7.31503 0.0317838 0)
(7.32449 0.0336476 0)
(7.33312 0.034819 0)
(7.34087 0.0355117 0)
(7.3478 0.0358714 0)
(7.35399 0.0359837 0)
(7.35952 0.03591 0)
(7.36445 0.0356992 0)
(7.36883 0.0353885 0)
(7.37275 0.0350051 0)
(7.37624 0.0345693 0)
(7.37935 0.0340972 0)
(7.38214 0.0336014 0)
(7.38464 0.0330925 0)
(7.38687 0.0325797 0)
(7.38888 0.0320715 0)
(7.39069 0.0315773 0)
(7.39232 0.0311074 0)
(7.3938 0.0306754 0)
(7.39515 0.0302979 0)
(7.3964 0.0300013 0)
(7.39758 0.0298089 0)
(7.39875 0.029782 0)
(7.39998 0.0299007 0)
(7.40148 0.03034 0)
(7.32016 -0.0320514 0)
(7.28758 -0.0252463 0)
(7.28069 -0.0140968 0)
(7.27975 -0.00455756 0)
(7.28192 0.00650097 0)
(7.28854 0.0153372 0)
(7.29664 0.0211161 0)
(7.30442 0.0251331 0)
(7.31183 0.0280981 0)
(7.31896 0.0301931 0)
(7.32565 0.0315958 0)
(7.33185 0.0325067 0)
(7.33757 0.0330675 0)
(7.34284 0.0333653 0)
(7.34771 0.0334632 0)
(7.35219 0.0334107 0)
(7.35632 0.0332457 0)
(7.36015 0.0329959 0)
(7.36368 0.0326826 0)
(7.36697 0.0323225 0)
(7.37002 0.031929 0)
(7.37286 0.0315132 0)
(7.37553 0.0310849 0)
(7.37802 0.030653 0)
(7.38037 0.0302269 0)
(7.38259 0.0298166 0)
(7.38471 0.0294343 0)
(7.38673 0.0290942 0)
(7.38869 0.028815 0)
(7.39063 0.0286137 0)
(7.39259 0.0285197 0)
(7.39465 0.0285209 0)
(7.39693 0.0286641 0)
(7.32441 -0.0221713 0)
(7.30054 -0.0208448 0)
(7.2931 -0.0128348 0)
(7.29071 -0.00453526 0)
(7.29137 0.00495556 0)
(7.29565 0.0128527 0)
(7.30141 0.0183633 0)
(7.30722 0.0223245 0)
(7.31294 0.0252838 0)
(7.31855 0.0274258 0)
(7.32392 0.0289182 0)
(7.32899 0.0299363 0)
(7.33375 0.0306078 0)
(7.33822 0.0310154 0)
(7.34243 0.03122 0)
(7.34637 0.0312689 0)
(7.35008 0.0311987 0)
(7.35358 0.0310366 0)
(7.35688 0.0308039 0)
(7.36 0.0305171 0)
(7.36296 0.0301899 0)
(7.36577 0.0298336 0)
(7.36845 0.0294578 0)
(7.37102 0.0290715 0)
(7.37348 0.0286837 0)
(7.37585 0.0283033 0)
(7.37816 0.0279405 0)
(7.38041 0.027606 0)
(7.38263 0.027312 0)
(7.38486 0.0270673 0)
(7.38713 0.0268819 0)
(7.38952 0.0267403 0)
(7.39209 0.0266346 0)
(7.32735 -0.0153979 0)
(7.30976 -0.0162704 0)
(7.30244 -0.0106193 0)
(7.29932 -0.00378673 0)
(7.29908 0.0041592 0)
(7.30187 0.0110817 0)
(7.30609 0.0162163 0)
(7.31062 0.0200383 0)
(7.31523 0.0229386 0)
(7.31984 0.0250841 0)
(7.32431 0.0266238 0)
(7.32859 0.0277082 0)
(7.33267 0.0284507 0)
(7.33655 0.0289298 0)
(7.34023 0.0292038 0)
(7.34373 0.0293184 0)
(7.34706 0.0293089 0)
(7.35024 0.0292024 0)
(7.35327 0.0290198 0)
(7.35617 0.0287779 0)
(7.35895 0.0284901 0)
(7.36163 0.0281677 0)
(7.36421 0.0278203 0)
(7.36671 0.0274565 0)
(7.36913 0.0270843 0)
(7.3715 0.0267115 0)
(7.37382 0.0263459 0)
(7.37612 0.0259945 0)
(7.37841 0.0256639 0)
(7.38072 0.0253563 0)
(7.3831 0.0250696 0)
(7.38557 0.0247845 0)
(7.3882 0.0244734 0)
(7.32939 -0.0103228 0)
(7.31652 -0.0120775 0)
(7.30969 -0.00829747 0)
(7.30624 -0.00285183 0)
(7.30542 0.00374778 0)
(7.30719 0.00977249 0)
(7.31032 0.0144924 0)
(7.31393 0.0181279 0)
(7.31775 0.0209356 0)
(7.32163 0.0230528 0)
(7.32547 0.0246078 0)
(7.32918 0.0257282 0)
(7.33276 0.0265143 0)
(7.33619 0.0270392 0)
(7.33949 0.0273587 0)
(7.34264 0.0275166 0)
(7.34567 0.027547 0)
(7.34857 0.0274764 0)
(7.35137 0.0273255 0)
(7.35407 0.0271109 0)
(7.35668 0.026846 0)
(7.35921 0.0265418 0)
(7.36166 0.0262075 0)
(7.36406 0.0258511 0)
(7.36641 0.0254798 0)
(7.36871 0.0250999 0)
(7.371 0.0247168 0)
(7.37326 0.0243345 0)
(7.37554 0.0239551 0)
(7.37785 0.0235758 0)
(7.38022 0.0231882 0)
(7.38267 0.0227712 0)
(7.38524 0.0222926 0)
(7.33074 -0.00670191 0)
(7.32148 -0.00859961 0)
(7.31542 -0.00610294 0)
(7.31195 -0.00180929 0)
(7.31077 0.00363624 0)
(7.3118 0.00883463 0)
(7.31411 0.0131121 0)
(7.31701 0.0165172 0)
(7.32021 0.0191979 0)
(7.32353 0.0212567 0)
(7.32688 0.0227989 0)
(7.33016 0.0239305 0)
(7.33336 0.0247392 0)
(7.33645 0.0252916 0)
(7.33944 0.0256402 0)
(7.34232 0.0258264 0)
(7.3451 0.0258829 0)
(7.34779 0.0258354 0)
(7.3504 0.0257042 0)
(7.35293 0.0255057 0)
(7.35538 0.0252528 0)
(7.35778 0.0249563 0)
(7.36012 0.0246249 0)
(7.36241 0.0242661 0)
(7.36467 0.0238859 0)
(7.3669 0.0234892 0)
(7.36912 0.0230795 0)
(7.37133 0.0226584 0)
(7.37356 0.0222246 0)
(7.37582 0.0217726 0)
(7.37813 0.0212907 0)
(7.38051 0.0207584 0)
(7.38298 0.020145 0)
(7.33161 -0.00420196 0)
(7.32508 -0.00581025 0)
(7.31996 -0.00410055 0)
(7.31671 -0.000716599 0)
(7.31534 0.00374687 0)
(7.31583 0.0081898 0)
(7.31753 0.0120122 0)
(7.31985 0.0151529 0)
(7.32254 0.0176763 0)
(7.32541 0.0196497 0)
(7.32835 0.0211543 0)
(7.33129 0.0222761 0)
(7.33417 0.0230895 0)
(7.33699 0.0236544 0)
(7.33973 0.0240189 0)
(7.34239 0.0242218 0)
(7.34498 0.024294 0)
(7.34749 0.0242602 0)
(7.34994 0.0241401 0)
(7.35232 0.0239495 0)
(7.35465 0.023701 0)
(7.35693 0.0234049 0)
(7.35916 0.0230695 0)
(7.36136 0.0227014 0)
(7.36353 0.0223059 0)
(7.36568 0.0218864 0)
(7.36783 0.0214451 0)
(7.36998 0.0209815 0)
(7.37214 0.0204926 0)
(7.37433 0.0199712 0)
(7.37656 0.0194049 0)
(7.37885 0.0187749 0)
(7.38119 0.0180548 0)
(7.33217 -0.00250026 0)
(7.32765 -0.00362253 0)
(7.32352 -0.00234663 0)
(7.32064 0.000350868 0)
(7.31925 0.0040004 0)
(7.31938 0.00776839 0)
(7.3206 0.0111415 0)
(7.32247 0.0139968 0)
(7.32473 0.0163391 0)
(7.32722 0.0182037 0)
(7.32982 0.0196489 0)
(7.33245 0.0207415 0)
(7.33507 0.0215436 0)
(7.33766 0.0221074 0)
(7.34019 0.0224762 0)
(7.34267 0.0226858 0)
(7.34509 0.022765 0)
(7.34745 0.0227372 0)
(7.34976 0.0226213 0)
(7.35202 0.0224323 0)
(7.35424 0.0221824 0)
(7.35641 0.0218813 0)
(7.35855 0.0215368 0)
(7.36066 0.0211548 0)
(7.36275 0.0207397 0)
(7.36483 0.020294 0)
(7.3669 0.0198187 0)
(7.36898 0.0193121 0)
(7.37107 0.0187702 0)
(7.37318 0.0181853 0)
(7.37532 0.0175457 0)
(7.3775 0.016835 0)
(7.37971 0.0160316 0)
(7.33251 -0.001358 0)
(7.32945 -0.00195254 0)
(7.32626 -0.000878135 0)
(7.32385 0.00132692 0)
(7.32255 0.00432489 0)
(7.32248 0.00750756 0)
(7.32335 0.0104542 0)
(7.32485 0.0130168 0)
(7.32676 0.0151618 0)
(7.32892 0.0168988 0)
(7.33123 0.0182654 0)
(7.3336 0.0193117 0)
(7.336 0.0200876 0)
(7.33838 0.0206377 0)
(7.34073 0.0210001 0)
(7.34305 0.0212072 0)
(7.34532 0.0212856 0)
(7.34755 0.0212571 0)
(7.34974 0.0211393 0)
(7.35189 0.0209467 0)
(7.35401 0.0206906 0)
(7.35609 0.0203804 0)
(7.35814 0.0200231 0)
(7.36017 0.019624 0)
(7.36219 0.0191868 0)
(7.36419 0.0187133 0)
(7.36619 0.0182035 0)
(7.36819 0.0176554 0)
(7.37021 0.0170644 0)
(7.37223 0.0164231 0)
(7.37428 0.0157212 0)
(7.37635 0.0149451 0)
(7.37844 0.0140775 0)
(7.33272 -0.000604593 0)
(7.33069 -0.000714699 0)
(7.32832 0.000298239 0)
(7.3264 0.00216586 0)
(7.3253 0.00465926 0)
(7.32514 0.00734963 0)
(7.32578 0.00990644 0)
(7.327 0.0121818 0)
(7.32862 0.0141217 0)
(7.33051 0.0157176 0)
(7.33256 0.0169903 0)
(7.33471 0.0179753 0)
(7.3369 0.0187117 0)
(7.3391 0.0192365 0)
(7.34129 0.0195826 0)
(7.34347 0.0197788 0)
(7.34561 0.0198491 0)
(7.34772 0.0198136 0)
(7.34981 0.0196887 0)
(7.35186 0.0194878 0)
(7.35388 0.0192218 0)
(7.35588 0.018899 0)
(7.35785 0.0185261 0)
(7.35981 0.0181077 0)
(7.36175 0.017647 0)
(7.36368 0.0171452 0)
(7.36561 0.016602 0)
(7.36753 0.0160149 0)
(7.36947 0.0153796 0)
(7.37141 0.0146895 0)
(7.37336 0.0139358 0)
(7.37532 0.0131075 0)
(7.37729 0.0121914 0)
(7.33284 -0.000117428 0)
(7.33153 0.000175246 0)
(7.32984 0.00119996 0)
(7.3284 0.00284355 0)
(7.32753 0.00495623 0)
(7.32738 0.00724383 0)
(7.32788 0.00945618 0)
(7.3289 0.0114605 0)
(7.33029 0.013196 0)
(7.33195 0.0146434 0)
(7.33379 0.015811 0)
(7.33574 0.0167227 0)
(7.33775 0.0174081 0)
(7.33979 0.0178971 0)
(7.34184 0.0182179 0)
(7.34388 0.0183953 0)
(7.3459 0.0184508 0)
(7.34791 0.0184026 0)
(7.34989 0.0182657 0)
(7.35186 0.0180526 0)
(7.35379 0.0177731 0)
(7.35571 0.017435 0)
(7.35761 0.0170445 0)
(7.35949 0.0166055 0)
(7.36136 0.0161208 0)
(7.36322 0.0155913 0)
(7.36508 0.0150164 0)
(7.36693 0.0143937 0)
(7.36878 0.0137194 0)
(7.37064 0.0129878 0)
(7.37249 0.0121917 0)
(7.37435 0.0113227 0)
(7.3762 0.0103706 0)
(7.33292 0.000190302 0)
(7.33209 0.000793882 0)
(7.33093 0.00185912 0)
(7.32991 0.00335487 0)
(7.32929 0.00518435 0)
(7.32921 0.00714922 0)
(7.32965 0.00906565 0)
(7.33053 0.0108226 0)
(7.33176 0.0123618 0)
(7.33323 0.0136591 0)
(7.33489 0.0147149 0)
(7.33666 0.0155443 0)
(7.33851 0.0161693 0)
(7.34041 0.0166139 0)
(7.34233 0.0169012 0)
(7.34425 0.0170527 0)
(7.34617 0.0170873 0)
(7.34808 0.0170212 0)
(7.34997 0.016868 0)
(7.35184 0.016639 0)
(7.3537 0.0163431 0)
(7.35554 0.0159876 0)
(7.35737 0.0155779 0)
(7.35918 0.0151176 0)
(7.36098 0.0146091 0)
(7.36277 0.014053 0)
(7.36455 0.0134488 0)
(7.36633 0.0127943 0)
(7.36811 0.0120863 0)
(7.36988 0.0113201 0)
(7.37164 0.0104902 0)
(7.3734 0.00958994 0)
(7.37514 0.008612 0)
(7.33296 0.000378705 0)
(7.33245 0.00120662 0)
(7.33171 0.00231449 0)
(7.33104 0.00370925 0)
(7.33065 0.00532764 0)
(7.33067 0.00703657 0)
(7.3311 0.00870371 0)
(7.3319 0.0102408 0)
(7.33299 0.0115967 0)
(7.33432 0.0127473 0)
(7.33583 0.0136889 0)
(7.33746 0.0144305 0)
(7.33917 0.0149883 0)
(7.34094 0.0153811 0)
(7.34274 0.0156281 0)
(7.34455 0.0157476 0)
(7.34637 0.0157559 0)
(7.34819 0.0156673 0)
(7.34999 0.0154939 0)
(7.35179 0.0152458 0)
(7.35357 0.0149312 0)
(7.35534 0.0145565 0)
(7.3571 0.0141266 0)
(7.35884 0.0136448 0)
(7.36057 0.0131131 0)
(7.36229 0.0125321 0)
(7.364 0.0119012 0)
(7.36571 0.0112189 0)
(7.3674 0.0104824 0)
(7.36909 0.00968801 0)
(7.37076 0.0088316 0)
(7.37242 0.00790835 0)
(7.37407 0.00691286 0)
(7.33298 0.000488687 0)
(7.33269 0.00146697 0)
(7.33224 0.00260589 0)
(7.33185 0.00392563 0)
(7.33167 0.00538323 0)
(7.33179 0.00688863 0)
(7.33224 0.00834756 0)
(7.33298 0.00969224 0)
(7.33399 0.0108808 0)
(7.33521 0.0118919 0)
(7.3366 0.0127202 0)
(7.3381 0.0133714 0)
(7.3397 0.0138574 0)
(7.34135 0.0141932 0)
(7.34304 0.0143946 0)
(7.34476 0.014477 0)
(7.34648 0.0144544 0)
(7.34821 0.0143392 0)
(7.34994 0.0141423 0)
(7.35166 0.0138725 0)
(7.35337 0.0135372 0)
(7.35507 0.013142 0)
(7.35675 0.0126914 0)
(7.35843 0.0121882 0)
(7.36009 0.0116344 0)
(7.36174 0.0110304 0)
(7.36338 0.0103759 0)
(7.36501 0.00966955 0)
(7.36663 0.00890938 0)
(7.36824 0.00809269 0)
(7.36982 0.00721633 0)
(7.37139 0.00627694 0)
(7.37294 0.00527066 0)
(7.33299 0.000547774 0)
(7.33284 0.00161743 0)
(7.33261 0.00277066 0)
(7.33242 0.0040279 0)
(7.3324 0.00535806 0)
(7.33261 0.00669889 0)
(7.33309 0.00798338 0)
(7.33381 0.00916074 0)
(7.33476 0.0101983 0)
(7.33589 0.0110789 0)
(7.33718 0.0117975 0)
(7.33858 0.012358 0)
(7.34007 0.0127698 0)
(7.34162 0.013045 0)
(7.34321 0.0131967 0)
(7.34484 0.0132379 0)
(7.34648 0.0131806 0)
(7.34813 0.0130357 0)
(7.34978 0.0128125 0)
(7.35142 0.0125189 0)
(7.35306 0.0121612 0)
(7.35469 0.0117448 0)
(7.35631 0.0112732 0)
(7.35792 0.0107493 0)
(7.35952 0.0101746 0)
(7.3611 0.00954971 0)
(7.36267 0.00887451 0)
(7.36423 0.00814806 0)
(7.36577 0.00736888 0)
(7.36729 0.00653507 0)
(7.3688 0.00564449 0)
(7.37028 0.0046948 0)
(7.37173 0.00368336 0)
(7.333 0.00057441 0)
(7.33294 0.00169106 0)
(7.33284 0.00284195 0)
(7.3328 0.00404156 0)
(7.3329 0.00526555 0)
(7.33318 0.00646955 0)
(7.33368 0.00760575 0)
(7.33439 0.00863683 0)
(7.33529 0.00953847 0)
(7.33635 0.0102978 0)
(7.33755 0.0109114 0)
(7.33886 0.0113827 0)
(7.34026 0.0117195 0)
(7.34172 0.0119319 0)
(7.34323 0.0120311 0)
(7.34477 0.0120281 0)
(7.34633 0.0119333 0)
(7.3479 0.0117559 0)
(7.34948 0.0115042 0)
(7.35105 0.011185 0)
(7.35262 0.010804 0)
(7.35419 0.0103657 0)
(7.35574 0.00987339 0)
(7.35728 0.00932948 0)
(7.35881 0.00873545 0)
(7.36033 0.00809196 0)
(7.36183 0.00739902 0)
(7.36332 0.00665605 0)
(7.36478 0.0058621 0)
(7.36623 0.0050159 0)
(7.36765 0.00411608 0)
(7.36905 0.0031611 0)
(7.37042 0.00214923 0)
(7.333 0.000581019 0)
(7.33299 0.00171342 0)
(7.33299 0.00284832 0)
(7.33304 0.00399172 0)
(7.33321 0.00512293 0)
(7.33354 0.00620926 0)
(7.33405 0.00721648 0)
(7.33473 0.00811781 0)
(7.33559 0.00889607 0)
(7.33659 0.00954268 0)
(7.33772 0.0100562 0)
(7.33895 0.0104404 0)
(7.34027 0.0107022 0)
(7.34164 0.0108507 0)
(7.34307 0.0108955 0)
(7.34453 0.010846 0)
(7.34601 0.0107114 0)
(7.34751 0.0104995 0)
(7.34902 0.0102176 0)
(7.35052 0.00987166 0)
(7.35203 0.0094665 0)
(7.35353 0.00900607 0)
(7.35501 0.00849335 0)
(7.35649 0.00793043 0)
(7.35795 0.00731868 0)
(7.3594 0.00665881 0)
(7.36084 0.00595095 0)
(7.36225 0.00519488 0)
(7.36365 0.00439 0)
(7.36502 0.00353562 0)
(7.36636 0.00263089 0)
(7.36768 0.00167496 0)
(7.36897 0.000666692 0)
(7.333 0.000576166 0)
(7.33302 0.00170447 0)
(7.33306 0.00281421 0)
(7.33316 0.00390218 0)
(7.33337 0.00494946 0)
(7.33372 0.00593124 0)
(7.33422 0.00682322 0)
(7.33487 0.00760704 0)
(7.33568 0.0082716 0)
(7.33662 0.00881235 0)
(7.33767 0.00922999 0)
(7.33883 0.00952903 0)
(7.34007 0.00971638 0)
(7.34136 0.00980022 0)
(7.34271 0.00978913 0)
(7.3441 0.00969151 0)
(7.34551 0.00951519 0)
(7.34693 0.00926721 0)
(7.34837 0.00895371 0)
(7.34981 0.00857987 0)
(7.35124 0.00814995 0)
(7.35268 0.00766735 0)
(7.3541 0.00713465 0)
(7.35551 0.00655374 0)
(7.35691 0.00592585 0)
(7.35829 0.00525169 0)
(7.35966 0.00453157 0)
(7.36101 0.00376545 0)
(7.36233 0.00295312 0)
(7.36363 0.00209424 0)
(7.3649 0.00118842 0)
(7.36615 0.000235256 0)
(7.36736 -0.000765945 0)
(7.333 0.000566061 0)
(7.33303 0.00168034 0)
(7.33309 0.00276103 0)
(7.3332 0.00379554 0)
(7.33341 0.00476557 0)
(7.33373 0.00565204 0)
(7.3342 0.00643836 0)
(7.33481 0.00711316 0)
(7.33556 0.0076708 0)
(7.33643 0.00811047 0)
(7.33741 0.00843514 0)
(7.33849 0.00865037 0)
(7.33964 0.00876325 0)
(7.34086 0.00878159 0)
(7.34213 0.00871326 0)
(7.34344 0.0085658 0)
(7.34478 0.00834612 0)
(7.34613 0.0080604 0)
(7.3475 0.00771394 0)
(7.34887 0.00731124 0)
(7.35024 0.00685598 0)
(7.35161 0.00635109 0)
(7.35297 0.00579881 0)
(7.35432 0.00520078 0)
(7.35565 0.00455814 0)
(7.35697 0.00387159 0)
(7.35828 0.00314153 0)
(7.35956 0.0023681 0)
(7.36081 0.00155133 0)
(7.36205 0.00069116 0)
(7.36325 -0.000212467 0)
(7.36442 -0.00115968 0)
(7.36556 -0.00215084 0)
(7.333 0.000555642 0)
(7.33302 0.00165503 0)
(7.33307 0.00270856 0)
(7.33316 0.003694 0)
(7.33333 0.004593 0)
(7.33361 0.00539113 0)
(7.33402 0.00607834 0)
(7.33456 0.00664958 0)
(7.33523 0.00710431 0)
(7.33602 0.00744545 0)
(7.33691 0.00767833 0)
(7.33791 0.00780976 0)
(7.33898 0.0078473 0)
(7.34011 0.00779863 0)
(7.3413 0.00767118 0)
(7.34253 0.00747184 0)
(7.3438 0.00720678 0)
(7.34508 0.00688143 0)
(7.34638 0.00650043 0)
(7.34768 0.00606764 0)
(7.34899 0.00558621 0)
(7.35029 0.00505867 0)
(7.35159 0.00448691 0)
(7.35288 0.00387238 0)
(7.35416 0.00321606 0)
(7.35541 0.00251866 0)
(7.35665 0.00178059 0)
(7.35787 0.00100214 0)
(7.35907 0.00018346 0)
(7.36024 -0.000675281 0)
(7.36138 -0.00157397 0)
(7.36249 -0.0025125 0)
(7.36356 -0.00349107 0)
(7.333 0.000549419 0)
(7.333 0.00164208 0)
(7.333 0.00267679 0)
(7.33304 0.00362091 0)
(7.33314 0.00445574 0)
(7.33334 0.0051713 0)
(7.33365 0.00576374 0)
(7.3341 0.00623424 0)
(7.33467 0.00658747 0)
(7.33536 0.00683021 0)
(7.33616 0.00697034 0)
(7.33706 0.00701619 0)
(7.33804 0.00697599 0)
(7.33909 0.00685755 0)
(7.34019 0.00666804 0)
(7.34134 0.00641386 0)
(7.34253 0.00610061 0)
(7.34374 0.00573309 0)
(7.34497 0.00531533 0)
(7.34621 0.00485065 0)
(7.34745 0.00434173 0)
(7.3487 0.00379066 0)
(7.34994 0.00319909 0)
(7.35117 0.00256818 0)
(7.35239 0.00189882 0)
(7.35359 0.00119161 0)
(7.35477 0.000447004 0)
(7.35593 -0.000334708 0)
(7.35707 -0.00115324 0)
(7.35818 -0.00200837 0)
(7.35927 -0.00289982 0)
(7.36032 -0.00382741 0)
(7.36133 -0.00479122 0)
(7.333 0.000552264 0)
(7.33297 0.00165648 0)
(7.3329 0.00268826 0)
(7.33283 0.00360301 0)
(7.33282 0.00438193 0)
(7.3329 0.00502 0)
(7.33309 0.00552006 0)
(7.33341 0.00589004 0)
(7.33386 0.00614032 0)
(7.33443 0.00628193 0)
(7.33512 0.00632568 0)
(7.3359 0.0062817 0)
(7.33678 0.00615918 0)
(7.33774 0.00596626 0)
(7.33875 0.00571004 0)
(7.33982 0.00539658 0)
(7.34093 0.00503103 0)
(7.34207 0.00461764 0)
(7.34323 0.00415991 0)
(7.34441 0.00366066 0)
(7.3456 0.00312211 0)
(7.34679 0.00254597 0)
(7.34797 0.00193354 0)
(7.34915 0.00128579 0)
(7.35032 0.000603419 0)
(7.35147 -0.000113082 0)
(7.3526 -0.00086333 0)
(7.35372 -0.00164703 0)
(7.35481 -0.00246391 0)
(7.35587 -0.00331368 0)
(7.3569 -0.00419606 0)
(7.3579 -0.00511084 0)
(7.35887 -0.00605802 0)
(7.333 0.000570362 0)
(7.33291 0.00171723 0)
(7.33273 0.0027714 0)
(7.33252 0.00367386 0)
(7.33235 0.00440677 0)
(7.33226 0.0049716 0)
(7.33228 0.00537924 0)
(7.33244 0.00564562 0)
(7.33273 0.00578777 0)
(7.33316 0.00582172 0)
(7.33371 0.00576179 0)
(7.33438 0.00562032 0)
(7.33515 0.00540779 0)
(7.336 0.00513291 0)
(7.33693 0.0048029 0)
(7.33791 0.00442361 0)
(7.33895 0.00399981 0)
(7.34002 0.00353528 0)
(7.34113 0.00303301 0)
(7.34225 0.00249533 0)
(7.34338 0.00192398 0)
(7.34452 0.0013203 0)
(7.34566 0.000685239 0)
(7.3468 1.94819e-05 0)
(7.34793 -0.000676505 0)
(7.34904 -0.00140237 0)
(7.35013 -0.00215788 0)
(7.35121 -0.00294281 0)
(7.35226 -0.00375694 0)
(7.35328 -0.00460005 0)
(7.35427 -0.00547188 0)
(7.35523 -0.00637224 0)
(7.35616 -0.00730118 0)
(7.33299 0.000612661 0)
(7.33282 0.00185119 0)
(7.33248 0.00296544 0)
(7.33207 0.00387875 0)
(7.33167 0.00457685 0)
(7.33135 0.00507066 0)
(7.33115 0.00538175 0)
(7.3311 0.00553623 0)
(7.3312 0.00555948 0)
(7.33146 0.00547369 0)
(7.33186 0.00529748 0)
(7.33239 0.00504603 0)
(7.33304 0.00473149 0)
(7.3338 0.00436342 0)
(7.33464 0.0039493 0)
(7.33555 0.00349488 0)
(7.33652 0.00300458 0)
(7.33754 0.0024817 0)
(7.33859 0.00192871 0)
(7.33967 0.00134739 0)
(7.34077 0.000739007 0)
(7.34187 0.000104404 0)
(7.34298 -0.000555855 0)
(7.34409 -0.00124145 0)
(7.34518 -0.00195219 0)
(7.34627 -0.00268798 0)
(7.34734 -0.00344878 0)
(7.34839 -0.00423453 0)
(7.34941 -0.00504515 0)
(7.35041 -0.00588053 0)
(7.35138 -0.00674053 0)
(7.35231 -0.00762504 0)
(7.35322 -0.00853419 0)
(7.33298 0.000693447 0)
(7.33269 0.00209961 0)
(7.33211 0.00332829 0)
(7.33139 0.00428207 0)
(7.33067 0.00495606 0)
(7.33004 0.00537599 0)
(7.32955 0.00557862 0)
(7.32924 0.00560404 0)
(7.32912 0.00548862 0)
(7.32919 0.00526248 0)
(7.32943 0.00494969 0)
(7.32983 0.00456903 0)
(7.33037 0.00413474 0)
(7.33103 0.00365746 0)
(7.33179 0.00314497 0)
(7.33265 0.00260293 0)
(7.33357 0.00203531 0)
(7.33455 0.00144485 0)
(7.33557 0.00083336 0)
(7.33663 0.000201986 0)
(7.33771 -0.000448655 0)
(7.3388 -0.00111827 0)
(7.3399 -0.00180685 0)
(7.34099 -0.0025145 0)
(7.34208 -0.00324145 0)
(7.34316 -0.00398794 0)
(7.34422 -0.00475422 0)
(7.34526 -0.00554048 0)
(7.34627 -0.00634688 0)
(7.34726 -0.00717347 0)
(7.34822 -0.00802032 0)
(7.34915 -0.00888745 0)
(7.35004 -0.00977514 0)
(7.33297 0.000837277 0)
(7.33247 0.00252954 0)
(7.33152 0.00394918 0)
(7.33036 0.00497826 0)
(7.3292 0.00563347 0)
(7.32815 0.00596478 0)
(7.3273 0.00603216 0)
(7.32669 0.00589602 0)
(7.32631 0.00560777 0)
(7.32617 0.0052079 0)
(7.32625 0.00472744 0)
(7.32653 0.00418947 0)
(7.32698 0.00361063 0)
(7.32757 0.00300257 0)
(7.32829 0.00237323 0)
(7.32912 0.00172789 0)
(7.33002 0.00106981 0)
(7.331 0.000400884 0)
(7.33202 -0.000278003 0)
(7.33308 -0.000966597 0)
(7.33417 -0.00166513 0)
(7.33528 -0.00237408 0)
(7.33639 -0.00309412 0)
(7.3375 -0.00382599 0)
(7.33861 -0.00457043 0)
(7.3397 -0.00532817 0)
(7.34078 -0.00609984 0)
(7.34183 -0.006886 0)
(7.34286 -0.00768711 0)
(7.34386 -0.00850352 0)
(7.34483 -0.00933552 0)
(7.34577 -0.0101834 0)
(7.34667 -0.0110475 0)
(7.33294 0.00108913 0)
(7.33211 0.00325429 0)
(7.33057 0.00496858 0)
(7.32876 0.00610678 0)
(7.32698 0.00673186 0)
(7.3254 0.00693463 0)
(7.32411 0.00681253 0)
(7.32315 0.00645678 0)
(7.32251 0.00593962 0)
(7.32218 0.0053148 0)
(7.32213 0.00462163 0)
(7.32232 0.00388782 0)
(7.32273 0.00313202 0)
(7.3233 0.00236631 0)
(7.32403 0.00159808 0)
(7.32487 0.000831511 0)
(7.32581 6.85626e-05 0)
(7.32682 -0.000690311 0)
(7.32789 -0.00144556 0)
(7.329 -0.00219827 0)
(7.33014 -0.00294981 0)
(7.3313 -0.00370174 0)
(7.33246 -0.00445563 0)
(7.33362 -0.00521305 0)
(7.33478 -0.00597542 0)
(7.33592 -0.0067441 0)
(7.33704 -0.00752024 0)
(7.33813 -0.00830487 0)
(7.3392 -0.00909883 0)
(7.34024 -0.00990287 0)
(7.34124 -0.0107175 0)
(7.34221 -0.0115434 0)
(7.34314 -0.0123811 0)
(7.33289 0.00153842 0)
(7.33145 0.00447303 0)
(7.32898 0.00660905 0)
(7.32621 0.00786907 0)
(7.32361 0.0084115 0)
(7.32136 0.00839658 0)
(7.31957 0.00798392 0)
(7.31826 0.00731162 0)
(7.31739 0.00647952 0)
(7.31693 0.00555662 0)
(7.31682 0.00459051 0)
(7.31701 0.00361234 0)
(7.31745 0.00264108 0)
(7.31809 0.00168749 0)
(7.31889 0.000756881 0)
(7.31983 -0.000148949 0)
(7.32086 -0.00103044 0)
(7.32198 -0.00188939 0)
(7.32315 -0.00272834 0)
(7.32437 -0.0035502 0)
(7.32561 -0.00435794 0)
(7.32687 -0.00515454 0)
(7.32813 -0.00594277 0)
(7.32938 -0.00672521 0)
(7.33063 -0.0075042 0)
(7.33185 -0.00828184 0)
(7.33305 -0.00905994 0)
(7.33422 -0.00984011 0)
(7.33536 -0.0106237 0)
(7.33647 -0.0114118 0)
(7.33753 -0.0122055 0)
(7.33856 -0.0130055 0)
(7.33954 -0.0138129 0)
(7.33277 0.00237459 0)
(7.33022 0.00655424 0)
(7.32624 0.009232 0)
(7.3221 0.0105485 0)
(7.31842 0.0108593 0)
(7.31541 0.0104449 0)
(7.31313 0.00956688 0)
(7.31155 0.00842946 0)
(7.31057 0.00716274 0)
(7.31011 0.00584827 0)
(7.31008 0.00453795 0)
(7.31039 0.00326201 0)
(7.31099 0.00203573 0)
(7.3118 0.00086524 0)
(7.31279 -0.00024876 0)
(7.31392 -0.00130875 0)
(7.31515 -0.00231904 0)
(7.31646 -0.00328475 0)
(7.31781 -0.00421133 0)
(7.31921 -0.0051041 0)
(7.32062 -0.00596814 0)
(7.32204 -0.00680813 0)
(7.32346 -0.00762836 0)
(7.32486 -0.00843263 0)
(7.32624 -0.00922435 0)
(7.3276 -0.0100065 0)
(7.32892 -0.0107817 0)
(7.33021 -0.0115521 0)
(7.33146 -0.0123198 0)
(7.33267 -0.0130863 0)
(7.33383 -0.013853 0)
(7.33495 -0.0146213 0)
(7.33602 -0.0153922 0)
(7.33248 0.00396231 0)
(7.32783 0.010156 0)
(7.32139 0.0134327 0)
(7.31537 0.0145615 0)
(7.31044 0.0142917 0)
(7.3067 0.0131278 0)
(7.30409 0.0114986 0)
(7.30245 0.00968501 0)
(7.30159 0.00783289 0)
(7.30135 0.00602149 0)
(7.30161 0.00429568 0)
(7.30225 0.0026753 0)
(7.30318 0.00116446 0)
(7.30434 -0.000240703 0)
(7.30567 -0.0015477 0)
(7.30712 -0.00276587 0)
(7.30867 -0.00390509 0)
(7.31028 -0.00497513 0)
(7.31193 -0.00598514 0)
(7.3136 -0.00694351 0)
(7.31528 -0.00785779 0)
(7.31695 -0.00873472 0)
(7.3186 -0.00958024 0)
(7.32022 -0.0103996 0)
(7.32181 -0.0111972 0)
(7.32337 -0.0119772 0)
(7.32488 -0.0127429 0)
(7.32634 -0.0134972 0)
(7.32776 -0.0142427 0)
(7.32912 -0.0149815 0)
(7.33043 -0.0157153 0)
(7.33168 -0.0164459 0)
(7.33288 -0.0171746 0)
(7.33192 0.0069234 0)
(7.32311 0.016136 0)
(7.31274 0.0198084 0)
(7.30432 0.0202548 0)
(7.29817 0.0188167 0)
(7.29399 0.0163579 0)
(7.29147 0.0135729 0)
(7.29022 0.0108081 0)
(7.28988 0.00818076 0)
(7.29022 0.00573983 0)
(7.29109 0.00350808 0)
(7.29235 0.00148374 0)
(7.29388 -0.000348856 0)
(7.29563 -0.00200949 0)
(7.29752 -0.0035181 0)
(7.2995 -0.00489382 0)
(7.30156 -0.00615446 0)
(7.30364 -0.00731607 0)
(7.30574 -0.00839289 0)
(7.30784 -0.00939736 0)
(7.30991 -0.0103403 0)
(7.31195 -0.0112312 0)
(7.31395 -0.0120781 0)
(7.31591 -0.0128879 0)
(7.31781 -0.0136668 0)
(7.31966 -0.0144198 0)
(7.32144 -0.0151514 0)
(7.32316 -0.0158653 0)
(7.32482 -0.0165649 0)
(7.32641 -0.0172528 0)
(7.32793 -0.0179316 0)
(7.32938 -0.0186033 0)
(7.33077 -0.0192702 0)
(7.33066 0.0138159 0)
(7.31338 0.0263446 0)
(7.29717 0.0284465 0)
(7.28626 0.0270595 0)
(7.27934 0.0238819 0)
(7.27544 0.0198554 0)
(7.27381 0.0158606 0)
(7.27367 0.0121993 0)
(7.2745 0.00887266 0)
(7.27603 0.00586353 0)
(7.27805 0.00316226 0)
(7.28042 0.000743368 0)
(7.28302 -0.00142556 0)
(7.28577 -0.00337481 0)
(7.28861 -0.00513114 0)
(7.29149 -0.00671888 0)
(7.29438 -0.0081602 0)
(7.29725 -0.00947477 0)
(7.30008 -0.0106799 0)
(7.30286 -0.0117905 0)
(7.30557 -0.0128199 0)
(7.30821 -0.0137794 0)
(7.31077 -0.0146789 0)
(7.31324 -0.0155269 0)
(7.31563 -0.0163307 0)
(7.31793 -0.0170968 0)
(7.32014 -0.0178307 0)
(7.32225 -0.0185369 0)
(7.32428 -0.0192196 0)
(7.32621 -0.0198821 0)
(7.32806 -0.0205273 0)
(7.32981 -0.0211572 0)
(7.33148 -0.0217738 0)
(7.32447 0.0352528 0)
(7.28905 0.0484149 0)
(7.26649 0.0395872 0)
(7.25598 0.0291983 0)
(7.2507 0.0198769 0)
(7.2489 0.0120322 0)
(7.24973 0.0059108 0)
(7.25205 0.00117329 0)
(7.25519 -0.00258561 0)
(7.25891 -0.00560197 0)
(7.26304 -0.00802923 0)
(7.26741 -0.0100064 0)
(7.2719 -0.011646 0)
(7.27643 -0.0130288 0)
(7.28094 -0.0142127 0)
(7.28539 -0.0152414 0)
(7.28973 -0.0161484 0)
(7.29396 -0.0169597 0)
(7.29806 -0.017695 0)
(7.30201 -0.0183697 0)
(7.30581 -0.0189959 0)
(7.30946 -0.0195833 0)
(7.31296 -0.0201392 0)
(7.3163 -0.0206699 0)
(7.3195 -0.0211802 0)
(7.32254 -0.0216741 0)
(7.32544 -0.0221547 0)
(7.3282 -0.0226249 0)
(7.33082 -0.0230868 0)
(7.3333 -0.0235425 0)
(7.33566 -0.0239942 0)
(7.3379 -0.024444 0)
(7.34002 -0.0248948 0)
(7.29541 0.0831414 0)
(7.21833 0.128044 0)
(7.18707 0.129005 0)
(7.18632 0.113963 0)
(7.19295 0.094133 0)
(7.20193 0.0760893 0)
(7.21231 0.06106 0)
(7.22297 0.0481494 0)
(7.2335 0.0368354 0)
(7.24384 0.0270197 0)
(7.25389 0.0186054 0)
(7.26354 0.0114349 0)
(7.27271 0.00533923 0)
(7.28139 0.000167324 0)
(7.28959 -0.00421558 0)
(7.29732 -0.00793104 0)
(7.30459 -0.0110859 0)
(7.31143 -0.0137713 0)
(7.31784 -0.0160639 0)
(7.32387 -0.0180283 0)
(7.32953 -0.0197183 0)
(7.33484 -0.021179 0)
(7.33982 -0.0224479 0)
(7.3445 -0.0235564 0)
(7.34888 -0.0245303 0)
(7.35299 -0.0253913 0)
(7.35685 -0.0261577 0)
(7.36046 -0.0268443 0)
(7.36384 -0.0274637 0)
(7.367 -0.0280261 0)
(7.36996 -0.0285399 0)
(7.37271 -0.0290111 0)
(7.37527 -0.029447 0)
(7.32717 -0.156814 0)
(7.19692 -0.284093 0)
(7.13361 -0.280647 0)
(7.11314 -0.247167 0)
(7.11508 -0.214556 0)
(7.13554 -0.184255 0)
(7.16564 -0.157031 0)
(7.19803 -0.134037 0)
(7.22997 -0.115224 0)
(7.26032 -0.0998993 0)
(7.28836 -0.0873966 0)
(7.31374 -0.0772177 0)
(7.33648 -0.0689538 0)
(7.35673 -0.0622471 0)
(7.37472 -0.0567962 0)
(7.39067 -0.0523581 0)
(7.40478 -0.0487391 0)
(7.41726 -0.0457834 0)
(7.42829 -0.0433655 0)
(7.43804 -0.0413846 0)
(7.44666 -0.0397598 0)
(7.45426 -0.0384261 0)
(7.46097 -0.0373312 0)
(7.46688 -0.0364328 0)
(7.47207 -0.0356966 0)
(7.47663 -0.0350949 0)
(7.48061 -0.0346051 0)
(7.48409 -0.0342089 0)
(7.4871 -0.0338909 0)
(7.4897 -0.0336388 0)
(7.49193 -0.0334414 0)
(7.49383 -0.0332904 0)
(7.49546 -0.0331739 0)
(7.33086 1.21499 0)
(7.63822 1.23053 0)
(7.81865 0.920168 0)
(7.8759 0.647915 0)
(7.88919 0.449902 0)
(7.88325 0.310866 0)
(7.8619 0.213001 0)
(7.83006 0.143228 0)