/*--------------------------------*- C++ -*----------------------------------*\
| =========                 |                                                 |
| \\      /  F ield         | OpenFOAM: The Open Source CFD Toolbox           |
|  \\    /   O peration     | Version:  4.1                                   |
|   \\  /    A nd           | Web:      www.OpenFOAM.org                      |
|    \\/     M anipulation  |                                                 |
\*---------------------------------------------------------------------------*/
FoamFile
{
    version     2.0;
    format      ascii;
    class       volScalarField;
    location    "1100";
    object      p;
}
// * * * * * * * * * * * * * * * * * * * * * * * * * * * * * * * * * * * * * //

dimensions      [0 2 -2 0 0 0 0];

internalField   nonuniform List<scalar> 
26785
(
-80.9886
-89.0009
-94.274
-97.2567
-97.6805
-95.1301
-89.9026
-82.9588
-75.6378
-68.8483
-62.8416
-57.5293
-52.7384
-48.3273
-44.2309
-40.4314
-37.011
-34.3042
-32.8883
-33.2028
-35.0592
-37.776
-40.7033
-43.457
-45.6974
-47.006
-47.1022
-45.9972
-43.9062
-41.2004
-38.3103
-35.7041
-33.8131
-32.9685
-33.4099
-35.2681
-38.5266
-43.0263
-48.5603
-54.9895
-62.3122
-70.7536
-80.8792
-93.3991
-108.688
-125.81
-141.709
-154.348
-162.624
-167.238
-170.795
-174.784
-179.355
-184.227
-189.081
-193.641
-197.676
-201.014
-203.597
-205.517
-206.881
-207.885
-208.923
-210.406
-213.202
-217.422
-222.259
-227.039
-231.506
-235.642
-239.481
-242.885
-245.429
-246.221
-243.996
-236.971
-223.979
-205.323
-183.138
-159.865
-136.827
-114.908
-95.2487
-79.0443
-66.9869
-58.8376
-54.0571
-52.9513
-57.2976
-68.8541
-87.6952
-111.006
-133.276
-149.58
-157.503
-154.799
-137.624
-107.436
-60.942
-26.8921
-81.0608
-89.0357
-94.3053
-97.2921
-97.7154
-95.1611
-89.9244
-82.9671
-75.6355
-68.8413
-62.8345
-57.5245
-52.7361
-48.3266
-44.2309
-40.4292
-37.0018
-34.2865
-32.8683
-33.1922
-35.0649
-37.7959
-40.7323
-43.4931
-45.7393
-47.0493
-47.1405
-46.0257
-43.9211
-41.1998
-38.2936
-35.674
-33.7728
-32.9192
-33.3533
-35.2077
-38.4667
-42.9684
-48.5031
-54.931
-62.2449
-70.6631
-80.7628
-93.2864
-108.631
-125.892
-141.891
-154.586
-162.891
-167.44
-170.924
-174.87
-179.419
-184.279
-189.129
-193.691
-197.73
-201.067
-203.645
-205.556
-206.905
-207.874
-208.877
-210.327
-213.17
-217.481
-222.377
-227.174
-231.635
-235.766
-239.621
-243.072
-245.705
-246.621
-244.558
-237.658
-224.67
-205.843
-183.459
-160.047
-136.872
-114.78
-94.9266
-78.5538
-66.4403
-58.3289
-53.5636
-52.4637
-56.9671
-68.9012
-88.3443
-112.291
-134.91
-151.335
-159.517
-157.173
-140.241
-109.701
-62.4716
-27.0601
-81.1683
-89.1001
-94.3667
-97.362
-97.7851
-95.2235
-89.9686
-82.984
-75.6307
-68.8269
-62.8199
-57.5145
-52.731
-48.3244
-44.2299
-40.4235
-36.9818
-34.2492
-32.8262
-33.1692
-35.0746
-37.8339
-40.7873
-43.5609
-45.8178
-47.1296
-47.2101
-46.0754
-43.9426
-41.1891
-38.2491
-35.6001
-33.6763
-32.8055
-33.2286
-35.0797
-38.3436
-42.8532
-48.3963
-54.8281
-62.1278
-70.5027
-80.5504
-93.0695
-108.491
-126.006
-142.289
-155.13
-163.482
-167.889
-171.211
-175.062
-179.558
-184.391
-189.23
-193.795
-197.841
-201.178
-203.745
-205.637
-206.957
-207.863
-208.806
-210.198
-213.138
-217.619
-222.615
-227.433
-231.878
-236.002
-239.894
-243.442
-246.25
-247.407
-245.663
-239.012
-226.014
-206.84
-184.082
-160.408
-136.973
-114.561
-94.3561
-77.6728
-65.4413
-57.4033
-52.6871
-51.6115
-56.4061
-69.0339
-89.5879
-114.686
-137.886
-154.471
-163.121
-161.451
-144.956
-113.728
-65.1189
-27.2635
-81.2987
-89.2021
-94.4627
-97.4668
-97.8885
-95.3158
-90.0338
-83.0088
-75.6237
-68.8058
-62.7984
-57.4996
-52.7235
-48.3216
-44.2297
-40.4169
-36.954
-34.1952
-32.7639
-33.1337
-35.0861
-37.8853
-40.8624
-43.6538
-45.926
-47.2412
-47.3077
-46.1458
-43.9738
-41.1745
-38.1855
-35.494
-33.5363
-32.6394
-33.0452
-34.8908
-38.1626
-42.6873
-48.2511
-54.701
-61.9942
-70.3178
-80.2864
-92.7746
-108.244
-126.013
-142.679
-155.708
-164.191
-168.486
-171.625
-175.355
-179.777
-184.567
-189.388
-193.956
-198.011
-201.348
-203.897
-205.762
-207.042
-207.862
-208.728
-210.049
-213.136
-217.846
-222.968
-227.803
-232.223
-236.339
-240.285
-243.973
-247.033
-248.534
-247.253
-240.972
-227.94
-208.239
-184.968
-160.938
-137.143
-114.308
-93.6506
-76.5667
-64.1705
-56.2462
-51.641
-50.6106
-55.8161
-69.3905
-91.468
-118.128
-142.027
-158.725
-168.001
-167.296
-151.43
-119.222
-68.6493
-27.4846
-81.448
-89.3341
-94.5876
-97.6024
-98.023
-95.4359
-90.1186
-83.0406
-75.614
-68.778
-62.77
-57.4797
-52.7134
-48.3185
-44.2312
-40.4111
-36.9209
-34.1275
-32.6845
-33.0882
-35.1008
-37.9508
-40.9566
-43.7691
-46.0605
-47.3806
-47.4301
-46.2348
-44.0136
-41.1555
-38.1032
-35.3552
-33.3522
-32.4197
-32.8025
-34.6411
-37.924
-42.474
-48.0729
-54.5561
-61.8523
-70.1182
-79.9797
-92.4068
-107.889
-125.881
-142.997
-156.211
-164.895
-169.146
-172.12
-175.73
-180.07
-184.807
-189.606
-194.178
-198.244
-201.577
-204.103
-205.931
-207.164
-207.885
-208.664
-209.913
-213.193
-218.168
-223.418
-228.258
-232.641
-236.75
-240.773
-244.649
-248.033
-249.969
-249.297
-243.519
-230.429
-210.02
-186.13
-161.666
-137.429
-114.095
-92.9267
-75.4104
-62.8003
-55.0117
-50.6013
-49.694
-55.4395
-70.1298
-94.0752
-122.618
-147.18
-163.821
-173.809
-174.314
-159.255
-125.792
-72.7108
-27.6111
-81.6686
-89.5045
-94.746
-97.7735
-98.1927
-95.5875
-90.2256
-83.0811
-75.6028
-68.7441
-62.7353
-57.4555
-52.7012
-48.3156
-44.2356
-40.4082
-36.8855
-34.0497
-32.5914
-33.0354
-35.1201
-38.03
-41.0682
-43.9046
-46.2194
-47.5472
-47.5785
-46.3452
-44.0667
-41.1377
-38.0086
-35.19
-33.1305
-32.1519
-32.5048
-34.3335
-37.6291
-42.2159
-47.8668
-54.3991
-61.7137
-69.924
-79.656
-91.9938
-107.449
-125.599
-143.157
-156.52
-165.467
-169.774
-172.64
-176.159
-180.424
-185.107
-189.88
-194.459
-198.538
-201.865
-204.362
-206.146
-207.326
-207.94
-208.629
-209.823
-213.328
-218.566
-223.921
-228.75
-233.097
-237.217
-241.353
-245.464
-249.237
-251.685
-251.759
-246.624
-233.453
-212.164
-187.589
-162.632
-137.895
-114.018
-92.3027
-74.3709
-61.5143
-53.9008
-49.7869
-49.1069
-55.3806
-71.2948
-97.4183
-128.013
-152.99
-169.304
-180.106
-182.105
-168.108
-133.209
-77.0339
-27.6094
-81.9573
-89.7115
-94.9383
-97.9793
-98.3963
-95.7692
-90.3539
-83.1296
-75.5896
-68.7043
-62.6945
-57.4269
-52.6871
-48.3134
-44.2438
-40.4095
-36.8496
-33.9645
-32.4882
-32.979
-35.1479
-38.1261
-41.1991
-44.0615
-46.4039
-47.7421
-47.7536
-46.4777
-44.1337
-41.1243
-37.8992
-34.9988
-32.8706
-31.8357
-32.151
-33.9673
-37.2783
-41.9124
-47.6333
-54.2333
-61.5841
-69.7463
-79.3306
-91.5556
-106.957
-125.196
-143.136
-156.595
-165.827
-170.294
-173.137
-176.614
-180.824
-185.457
-190.208
-194.796
-198.89
-202.209
-204.671
-206.404
-207.531
-208.036
-208.639
-209.81
-213.559
-219.014
-224.434
-229.242
-233.571
-237.738
-242.029
-246.418
-250.615
-253.607
-254.54
-250.158
-236.877
-214.584
-189.334
-163.844
-138.579
-114.162
-91.9025
-73.5976
-60.5199
-53.0879
-49.0133
-48.5621
-55.4921
-72.8366
-101.322
-133.875
-158.773
-174.374
-186.01
-189.872
-177.295
-141.139
-81.4233
-27.5232
-82.2789
-89.9557
-95.1633
-98.2161
-98.6298
-95.978
-90.5019
-83.1858
-75.5749
-68.6593
-62.6485
-57.3949
-52.6718
-48.3126
-44.2571
-40.417
-36.8158
-33.8753
-32.3784
-32.9238
-35.1892
-38.2433
-41.3517
-44.2405
-46.6138
-47.9644
-47.9543
-46.6315
-44.2135
-41.1185
-37.775
-34.7851
-32.5766
-31.4743
-31.7442
-33.5451
-36.8733
-41.5611
-47.3668
-54.0564
-61.4671
-69.5968
-79.0197
-91.1128
-106.446
-124.705
-142.952
-156.458
-165.933
-170.657
-173.573
-177.068
-181.254
-185.849
-190.581
-195.185
-199.298
-202.606
-205.029
-206.706
-207.777
-208.183
-208.707
-209.894
-213.884
-219.483
-224.926
-229.724
-234.073
-238.329
-242.809
-247.481
-252.074
-255.582
-257.442
-253.932
-240.493
-217.125
-191.336
-165.327
-139.527
-114.613
-91.8969
-73.3162
-60.1179
-52.5245
-48.0895
-48.0634
-55.9687
-74.7678
-105.44
-139.503
-163.707
-178.143
-190.054
-195.909
-185.131
-148.638
-85.4748
-27.402
-82.6288
-90.2364
-95.4168
-98.4789
-98.8894
-96.2111
-90.6677
-83.2486
-75.5587
-68.6095
-62.5977
-57.3599
-52.6559
-48.314
-44.2766
-40.4321
-36.7859
-33.7839
-32.2654
-32.8754
-35.2505
-38.386
-41.5273
-44.4394
-46.8442
-48.2079
-48.1741
-46.8011
-44.3014
-41.1144
-37.6384
-34.5488
-32.2499
-31.0688
-31.2853
-33.0682
-36.4147
-41.1574
-47.0558
-53.8563
-61.3585
-69.4825
-78.7329
-90.6768
-105.935
-124.154
-142.647
-156.168
-165.784
-170.836
-173.923
-177.503
-181.699
-186.27
-190.991
-195.619
-199.754
-203.049
-205.429
-207.044
-208.058
-208.375
-208.816
-210.068
-214.269
-219.926
-225.367
-230.187
-234.605
-238.991
-243.663
-248.582
-253.495
-257.372
-259.947
-257.447
-244.029
-219.639
-193.475
-167.022
-140.813
-115.444
-92.2534
-73.5207
-60.6114
-53.019
-48.7805
-48.8417
-57.3142
-77.1343
-109.41
-144.153
-167.148
-180.327
-192.19
-199.169
-189.47
-153.876
-88.534
-27.3915
-83.0054
-90.5445
-95.6951
-98.7662
-99.174
-96.4676
-90.8508
-83.3178
-75.5409
-68.5552
-62.5427
-57.3224
-52.6397
-48.3182
-44.3035
-40.4561
-36.7609
-33.6921
-32.1531
-32.841
-35.3381
-38.5564
-41.7222
-44.6501
-47.0842
-48.4605
-48.4012
-46.9769
-44.3914
-41.101
-37.4903
-34.2894
-31.891
-30.6204
-30.7757
-32.5375
-35.9032
-40.7003
-46.6912
-53.6131
-61.2411
-69.4045
-78.4788
-90.2542
-105.431
-123.556
-142.223
-155.769
-165.408
-170.823
-174.175
-177.905
-182.146
-186.71
-191.43
-196.091
-200.253
-203.533
-205.87
-207.421
-208.377
-208.608
-208.944
-210.307
-214.667
-220.326
-225.768
-230.645
-235.166
-239.696
-244.541
-249.665
-254.833
-258.837
-261.884
-259.772
-246.596
-221.878
-195.721
-168.86
-142.39
-116.962
-93.6638
-74.9824
-62.3434
-54.7359
-50.4518
-50.5222
-59.0932
-79.6173
-112.922
-147.369
-168.811
-181.192
-193.597
-200.411
-190.552
-155.234
-89.7577
-27.5858
-83.4534
-90.8759
-95.9961
-99.0771
-99.4827
-96.7465
-91.0504
-83.3927
-75.5214
-68.4968
-62.4838
-57.2827
-52.6237
-48.3258
-44.3387
-40.4904
-36.7425
-33.602
-32.0478
-32.8287
-35.4559
-38.7521
-41.9289
-44.8615
-47.3214
-48.7091
-48.6233
-47.1478
-44.4762
-41.066
-37.3244
-34.0042
-31.4987
-30.1291
-30.2158
-31.953
-35.339
-40.1909
-46.2683
-53.315
-61.0862
-69.3477
-78.2714
-89.8504
-104.939
-122.909
-141.637
-155.266
-164.841
-170.628
-174.325
-178.264
-182.585
-187.159
-191.887
-196.592
-200.785
-204.048
-206.338
-207.823
-208.72
-208.862
-209.082
-210.561
-215.047
-220.722
-226.214
-231.178
-235.803
-240.449
-245.42
-250.704
-256.015
-260.1
-263.977
-261.588
-247.907
-223.193
-197.61
-170.953
-144.392
-118.758
-95.4871
-76.8047
-64.2543
-56.9132
-52.8106
-53.0249
-61.5356
-82.1242
-115.578
-149.238
-169.224
-180.889
-193.018
-199.427
-189.501
-152.732
-89.2244
-27.8568
-83.9587
-91.2253
-96.3184
-99.4105
-99.8146
-97.0471
-91.266
-83.473
-75.5003
-68.4346
-62.4217
-57.2414
-52.6081
-48.3372
-44.3837
-40.5363
-36.7324
-33.5166
-31.9572
-32.8443
-35.6037
-38.9679
-42.1387
-45.0639
-47.5465
-48.9451
-48.8321
-47.3058
-44.5503
-40.9989
-37.1294
-33.6886
-31.0706
-29.5942
-29.606
-31.3148
-34.7215
-39.6292
-45.788
-52.9584
-60.8747
-69.2922
-78.1088
-89.4721
-104.464
-122.218
-140.853
-154.648
-164.118
-170.271
-174.379
-178.576
-183.007
-187.607
-192.355
-197.115
-201.344
-204.592
-206.836
-208.254
-209.095
-209.13
-209.25
-210.759
-215.421
-221.132
-226.676
-231.732
-236.456
-241.179
-246.196
-251.522
-256.736
-260.793
-264.634
-262.101
-248.838
-224.268
-199.069
-172.826
-146.497
-120.805
-97.5526
-78.9729
-66.8071
-59.7619
-55.9016
-56.2515
-64.4761
-84.4814
-117.215
-149.907
-168.733
-179.582
-190.417
-194.815
-183.48
-146.134
-87.1528
-27.2583
-84.481
-91.5962
-96.6621
-99.7652
-100.169
-97.3693
-91.4979
-83.5585
-75.4774
-68.3689
-62.3566
-57.1986
-52.5931
-48.3529
-44.4392
-40.595
-36.7315
-33.4395
-31.8892
-32.8898
-35.7782
-39.1974
-42.3448
-45.2522
-47.7562
-49.166
-49.0251
-47.4482
-44.6118
-40.8921
-36.8948
-33.3362
-30.6029
-29.0143
-28.946
-30.6227
-34.0499
-39.0155
-45.2514
-52.537
-60.6047
-69.2114
-77.9617
-89.1269
-104.02
-121.509
-139.85
-153.889
-163.261
-169.776
-174.348
-178.841
-183.407
-188.047
-192.823
-197.647
-201.915
-205.151
-207.352
-208.699
-209.484
-209.41
-209.48
-210.909
-215.845
-221.622
-227.226
-232.36
-237.167
-241.945
-246.975
-252.282
-257.341
-261.31
-264.447
-260.863
-248.059
-224.925
-200.388
-174.751
-148.677
-123.074
-100.059
-81.8868
-70.1057
-63.2313
-59.6328
-60.0844
-67.8275
-86.6149
-117.689
-149.116
-167.052
-176.996
-185.858
-187.77
-174.275
-137.471
-83.929
-25.5704
-85.021
-91.9857
-97.0241
-100.14
-100.545
-97.7132
-91.7465
-83.6493
-75.453
-68.3002
-62.2892
-57.1548
-52.579
-48.3731
-44.5059
-40.6672
-36.7398
-33.3766
-31.8496
-32.9635
-35.9744
-39.4352
-42.5431
-45.4242
-47.9505
-49.3731
-49.2043
-47.577
-44.6637
-40.7419
-36.6134
-32.9408
-30.0912
-28.387
-28.2352
-29.8769
-33.3238
-38.3493
-44.6589
-52.0512
-60.2761
-69.0784
-77.7985
-88.8163
-103.62
-120.832
-138.661
-152.966
-162.284
-169.174
-174.247
-179.061
-183.781
-188.469
-193.284
-198.184
-202.496
-205.72
-207.877
-209.157
-209.902
-209.706
-209.66
-211.221
-216.446
-222.298
-227.982
-233.197
-238.07
-242.869
-247.859
-253.063
-257.907
-261.672
-264.172
-259.922
-247.09
-225.191
-201.467
-176.516
-150.836
-125.571
-103.023
-85.3693
-73.8489
-67.1627
-63.8316
-64.3403
-71.456
-88.5422
-117.092
-146.889
-164.247
-173.291
-179.578
-178.753
-163.649
-128.402
-79.9533
-23.3332
-85.5756
-92.3876
-97.4032
-100.533
-100.942
-98.0791
-92.0122
-83.7454
-75.4272
-68.2289
-62.2203
-57.1106
-52.5659
-48.3982
-44.5844
-40.7537
-36.7578
-33.3358
-31.8409
-33.0612
-36.1872
-39.6771
-42.731
-45.5794
-48.131
-49.5693
-49.3734
-47.6962
-44.7118
-40.5496
-36.2818
-32.4974
-29.5308
-27.7099
-27.4726
-29.077
-32.5433
-37.6305
-44.0111
-51.4981
-59.885
-68.8796
-77.5963
-88.529
-103.271
-120.218
-137.34
-151.863
-161.214
-168.503
-174.094
-179.24
-184.127
-188.872
-193.729
-198.703
-203.063
-206.291
-208.423
-209.664
-210.375
-210.095
-209.912
-212.095
-217.351
-223.254
-228.978
-234.252
-239.17
-243.961
-248.852
-253.857
-258.41
-261.719
-263.239
-258.679
-245.932
-225.112
-202.239
-177.966
-152.898
-128.279
-106.39
-89.2816
-77.9844
-71.4914
-68.3622
-68.8575
-75.2367
-90.3124
-115.605
-143.196
-160.426
-169.018
-173.112
-169.506
-153.128
-120.118
-75.7684
-21.2836
-86.1748
-92.7973
-97.7964
-100.944
-101.361
-98.467
-92.2957
-83.8471
-75.4004
-68.1558
-62.1506
-57.0665
-52.5542
-48.4283
-44.675
-40.8545
-36.7872
-33.3262
-31.862
-33.1778
-36.4123
-39.9203
-42.9074
-45.7175
-48.2989
-49.7571
-49.5361
-47.8101
-44.7546
-40.3199
-35.9008
-32.0023
-28.9176
-26.9802
-26.6572
-28.223
-31.7086
-36.8591
-43.3078
-50.8789
-59.4253
-68.5923
-77.3356
-88.2414
-102.97
-119.655
-135.896
-150.548
-160.098
-167.805
-173.907
-179.388
-184.445
-189.254
-194.183
-199.257
-203.675
-206.928
-209.086
-210.344
-211.09
-210.909
-210.589
-213.475
-218.587
-224.503
-230.239
-235.544
-240.475
-245.215
-249.944
-254.65
-258.82
-261.639
-262.008
-257.01
-244.401
-224.718
-202.71
-179.197
-154.948
-131.206
-110.116
-93.5547
-82.4441
-76.0949
-73.0996
-73.4864
-79.0495
-91.9888
-113.541
-138.017
-155.167
-164.325
-167.476
-161.75
-144.535
-113.411
-71.3342
-19.612
-86.7998
-93.2128
-98.203
-101.372
-101.8
-98.8776
-92.5981
-83.9546
-75.3727
-68.0814
-62.081
-57.0233
-52.5442
-48.4638
-44.7777
-40.9681
-36.8331
-33.3546
-31.9082
-33.3084
-36.6467
-40.1637
-43.0717
-45.8383
-48.4547
-49.938
-49.6956
-47.9225
-44.7817
-40.0599
-35.4742
-31.4541
-28.2486
-26.1956
-25.788
-27.3149
-30.8204
-36.0357
-42.5495
-50.1981
-58.8975
-68.1857
-76.9955
-87.9348
-102.713
-119.085
-134.409
-148.956
-158.986
-167.119
-173.697
-179.527
-184.825
-189.766
-194.776
-199.92
-204.388
-207.719
-209.981
-211.338
-212.234
-212.269
-211.947
-215.154
-220.154
-226.038
-231.762
-237.069
-241.979
-246.629
-251.14
-255.467
-259.133
-261.388
-260.725
-255.235
-242.771
-224.148
-203.045
-180.403
-157.096
-134.342
-114.11
-98.0926
-87.1454
-80.8917
-77.9483
-78.122
-82.805
-93.6278
-111.337
-131.768
-147.465
-156.886
-160.102
-153.883
-136.647
-106.98
-66.8477
-18.1845
-87.4212
-93.6398
-98.6228
-101.816
-102.26
-99.3113
-92.9205
-84.0682
-75.3444
-68.006
-62.0122
-56.9816
-52.5366
-48.5046
-44.8928
-41.0912
-36.9046
-33.423
-31.9737
-33.4488
-36.8886
-40.4072
-43.2232
-45.9403
-48.5973
-50.112
-49.8541
-48.0364
-44.7833
-39.7779
-35.0065
-30.8523
-27.5215
-25.3544
-24.8643
-26.3532
-29.88
-35.1616
-41.7371
-49.4606
-58.309
-67.6552
-76.5687
-87.6102
-102.487
-118.407
-133.25
-147.11
-157.893
-166.482
-173.545
-179.758
-185.316
-190.383
-195.467
-200.696
-205.267
-208.765
-211.205
-212.716
-213.749
-213.973
-213.817
-217.038
-222.048
-227.849
-233.538
-238.817
-243.672
-248.193
-252.442
-256.349
-259.449
-260.965
-259.541
-253.542
-241.273
-223.611
-203.428
-181.706
-159.379
-137.639
-118.274
-102.796
-92.0033
-85.798
-82.8231
-82.6887
-86.4463
-95.261
-109.414
-125.636
-138.575
-146.619
-148.99
-142.834
-126.524
-99.3331
-62.9667
-17.135
-88.0382
-94.0763
-99.0536
-102.274
-102.739
-99.7685
-93.2638
-84.1878
-75.3156
-67.9302
-61.9451
-56.9425
-52.532
-48.5508
-45.021
-41.2214
-37.0122
-33.528
-32.0522
-33.5965
-37.1378
-40.6507
-43.3604
-46.0207
-48.7234
-50.2769
-50.0125
-48.1562
-44.7503
-39.4831
-34.5015
-30.1962
-26.7349
-24.4553
-23.886
-25.3389
-28.8894
-34.2388
-40.8722
-48.6702
-57.6707
-67.006
-76.0727
-87.2953
-102.254
-117.552
-132.369
-145.387
-156.936
-165.953
-173.444
-180.026
-185.852
-191.079
-196.302
-201.692
-206.428
-210.133
-212.779
-214.461
-215.61
-216.011
-216.097
-219.112
-224.209
-229.926
-235.546
-240.77
-245.535
-249.889
-253.848
-257.338
-259.872
-260.535
-258.508
-252.078
-240.05
-223.258
-203.964
-183.155
-161.8
-141.059
-122.542
-107.588
-96.9389
-90.7249
-87.635
-87.1225
-89.9341
-96.8784
-107.908
-120.372
-130.349
-136.325
-137.113
-130.369
-114.837
-90.6212
-58.8907
-16.1539
-88.6508
-94.5198
-99.4944
-102.746
-103.237
-100.249
-93.6287
-84.3132
-75.2862
-67.8543
-61.8805
-56.9066
-52.5313
-48.6026
-45.1619
-41.3598
-37.1646
-33.6626
-32.1389
-33.75
-37.3943
-40.8936
-43.4802
-46.0748
-48.8272
-50.4278
-50.1684
-48.2931
-44.6685
-39.1813
-33.9631
-29.4852
-25.8874
-23.4976
-22.8534
-24.2739
-27.8516
-33.2709
-39.958
-47.8302
-56.9912
-66.235
-75.5192
-87.0228
-101.908
-116.761
-131.516
-144.346
-156.116
-165.448
-173.347
-180.328
-186.476
-191.944
-197.396
-202.983
-207.895
-211.79
-214.639
-216.518
-217.808
-218.405
-218.776
-221.457
-226.568
-232.235
-237.775
-242.911
-247.555
-251.722
-255.388
-258.444
-260.359
-260.335
-257.727
-250.963
-239.183
-223.161
-204.699
-184.772
-164.357
-144.578
-126.864
-112.399
-101.881
-95.5781
-92.2896
-91.3641
-93.238
-98.4583
-106.781
-116.05
-123.332
-127.267
-126.588
-119.233
-104.286
-82.5606
-54.6606
-15.2607
-89.2922
-94.9682
-99.9429
-103.23
-103.752
-100.753
-94.016
-84.4439
-75.2562
-67.7785
-61.819
-56.8746
-52.5352
-48.6611
-45.3139
-41.5154
-37.3649
-33.8188
-32.231
-33.9098
-37.6586
-41.1341
-43.5785
-46.0968
-48.9009
-50.5575
-50.3167
-48.4591
-44.5313
-38.8677
-33.3927
-28.7195
-24.9787
-22.481
-21.7674
-23.1605
-26.7707
-32.2624
-38.9992
-46.9462
-56.2714
-65.3659
-74.9078
-86.7811
-101.382
-116.107
-130.625
-143.56
-155.332
-164.971
-173.31
-180.728
-187.248
-193.024
-198.75
-204.535
-209.611
-213.683
-216.736
-218.838
-220.296
-221.119
-221.821
-224.252
-229.12
-234.722
-240.19
-245.224
-249.734
-253.707
-257.069
-259.643
-260.948
-260.424
-257.273
-250.239
-238.696
-223.346
-205.651
-186.562
-167.043
-148.165
-131.192
-117.167
-106.762
-100.276
-96.7165
-95.3644
-96.3367
-99.986
-105.962
-112.531
-117.47
-119.562
-117.6
-109.778
-95.369
-75.6368
-50.6867
-14.4757
-89.9365
-95.42
-100.398
-103.725
-104.283
-101.28
-94.4263
-84.5792
-75.2251
-67.7022
-61.7606
-56.8468
-52.5442
-48.7286
-45.4736
-41.7039
-37.6104
-33.9904
-32.3279
-34.0773
-37.9302
-41.3689
-43.65
-46.0805
-48.9362
-50.6573
-50.4495
-48.6471
-44.3497
-38.5282
-32.7865
-27.8984
-24.0086
-21.4059
-20.6292
-22.0021
-25.6517
-31.2195
-38.0026
-46.027
-55.4981
-64.4658
-74.2692
-86.4712
-100.84
-115.237
-129.857
-142.845
-154.603
-164.593
-173.382
-181.251
-188.172
-194.295
-200.308
-206.295
-211.541
-215.799
-219.069
-221.415
-223.07
-224.134
-225.185
-227.561
-231.976
-237.39
-242.76
-247.688
-252.052
-255.805
-258.842
-260.943
-261.772
-260.783
-257.165
-249.909
-238.585
-223.821
-206.83
-188.527
-169.846
-151.793
-135.484
-121.846
-111.517
-104.769
-100.885
-99.0947
-99.2197
-101.459
-105.413
-109.686
-112.59
-113.058
-109.975
-101.742
-87.7618
-69.6355
-47.0933
-13.802
-90.5693
-95.8796
-100.86
-104.228
-104.83
-101.832
-94.861
-84.7187
-75.1932
-67.6254
-61.7056
-56.8232
-52.5576
-48.8082
-45.637
-41.9427
-37.895
-34.1732
-32.4311
-34.2545
-38.2076
-41.5938
-43.6896
-46.0203
-48.9253
-50.7199
-50.5586
-48.8258
-44.1277
-38.1492
-32.1381
-27.0207
-22.9771
-20.2727
-19.4407
-20.8026
-24.5011
-30.1498
-36.977
-45.0743
-54.65
-63.6313
-73.6369
-86.0679
-100.06
-114.336
-128.96
-142.106
-153.981
-164.327
-173.558
-181.884
-189.226
-195.718
-202.033
-208.237
-213.677
-218.147
-221.653
-224.264
-226.147
-227.459
-228.826
-231.276
-235.297
-240.357
-245.537
-250.317
-254.51
-258.019
-260.747
-262.469
-262.894
-261.449
-257.41
-249.97
-238.84
-224.588
-208.241
-190.666
-172.753
-155.439
-139.712
-126.402
-116.107
-109.051
-104.796
-102.546
-101.887
-102.881
-105.11
-107.449
-108.599
-107.647
-103.546
-94.91
-81.2836
-64.43
-43.8714
-13.2182
-91.1877
-96.3442
-101.325
-104.74
-105.391
-102.407
-95.3217
-84.8661
-75.1616
-67.5485
-61.6542
-56.8036
-52.5727
-48.9001
-45.8015
-42.2418
-38.2117
-34.3655
-32.5446
-34.4437
-38.4882
-41.8038
-43.6934
-45.9124
-48.8615
-50.741
-50.6376
-48.9615
-43.8522
-37.7224
-31.442
-26.085
-21.884
-19.0823
-18.204
-19.5664
-23.325
-29.0611
-35.9373
-44.0995
-53.6786
-62.8977
-72.973
-85.4689
-99.1256
-113.445
-128.043
-141.404
-153.455
-164.155
-173.823
-182.61
-190.39
-197.272
-203.912
-210.355
-216.019
-220.732
-224.495
-227.386
-229.527
-231.099
-232.734
-235.288
-239.087
-243.764
-248.655
-253.214
-257.202
-260.472
-262.912
-264.301
-264.317
-262.436
-258.013
-250.411
-239.452
-225.649
-209.885
-192.972
-175.749
-159.082
-143.856
-130.82
-120.521
-113.154
-108.467
-105.717
-104.351
-104.256
-105.03
-105.753
-105.417
-103.241
-98.2109
-89.1504
-75.8333
-59.9664
-40.9966
-12.7034
-91.7953
-96.8123
-101.794
-105.26
-105.965
-103.006
-95.8043
-85.0282
-75.1344
-67.4717
-61.6065
-56.7866
-52.5862
-48.9985
-45.9691
-42.5996
-38.5545
-34.5675
-32.6739
-34.6465
-38.768
-41.9944
-43.66
-45.7554
-48.7382
-50.7196
-50.6835
-49.0366
-43.5075
-37.2417
-30.6921
-25.0895
-20.7293
-17.8353
-16.9212
-18.299
-22.1358
-27.9705
-34.892
-43.0904
-52.6141
-62.1446
-72.2763
-84.6897
-98.2812
-112.545
-127.191
-140.742
-153.011
-164.069
-174.173
-183.425
-191.659
-198.958
-205.952
-212.657
-218.575
-223.56
-227.6
-230.782
-233.204
-235.056
-236.929
-239.566
-243.231
-247.618
-252.197
-256.494
-260.24
-263.257
-265.399
-266.438
-266.05
-263.749
-258.975
-251.227
-240.414
-227.002
-211.758
-195.437
-178.821
-162.713
-147.911
-135.097
-124.766
-117.104
-111.931
-108.643
-106.632
-105.592
-105.143
-104.524
-102.942
-99.6913
-93.8274
-84.3575
-71.2995
-56.1769
-38.4427
-12.2428
-92.4287
-97.2816
-102.265
-105.786
-106.551
-103.628
-96.3045
-85.2056
-75.1155
-67.3957
-61.5627
-56.7703
-52.5975
-49.0933
-46.1519
-43.0058
-38.9183
-34.7809
-32.8257
-34.8636
-39.0425
-42.1622
-43.5908
-45.5523
-48.5496
-50.6562
-50.6967
-49.0444
-43.0849
-36.6998
-29.8813
-24.0324
-19.5131
-16.5327
-15.5948
-17.0024
-20.9298
-26.8687
-33.8807
-42.1436
-51.5294
-61.19
-71.533
-83.8369
-97.3514
-111.693
-126.383
-140.119
-152.647
-164.072
-174.611
-184.332
-193.04
-200.79
-208.168
-215.157
-221.353
-226.634
-230.971
-234.454
-237.171
-239.319
-241.429
-244.134
-247.682
-251.833
-256.13
-260.154
-263.631
-266.37
-268.199
-268.883
-268.093
-265.39
-260.29
-252.409
-241.718
-228.642
-213.854
-198.049
-181.959
-166.326
-151.88
-139.244
-128.862
-120.914
-115.248
-111.39
-108.747
-106.892
-105.418
-103.686
-101.052
-96.8365
-90.2098
-80.3969
-67.5475
-52.9739
-36.183
-11.8266
-93.0589
-97.7502
-102.736
-106.317
-107.149
-104.273
-96.8282
-85.394
-75.1057
-67.3232
-61.5245
-56.7526
-52.6167
-49.18
-46.3765
-43.4492
-39.2985
-35.0091
-33.0066
-35.0948
-39.3068
-42.3049
-43.4906
-45.3093
-48.2966
-50.5538
-50.6778
-48.9843
-42.5915
-36.0909
-29.0026
-22.9118
-18.2356
-15.1742
-14.2253
-15.6916
-19.734
-25.7845
-32.8233
-41.0041
-50.4424
-59.9563
-70.4862
-82.9602
-96.4398
-110.85
-125.59
-139.529
-152.352
-164.156
-175.138
-185.342
-194.547
-202.779
-210.564
-217.864
-224.36
-229.956
-234.608
-238.402
-241.421
-243.871
-246.223
-249.006
-252.446
-256.371
-260.397
-264.146
-267.348
-269.799
-271.308
-271.631
-270.445
-267.355
-261.952
-253.946
-243.353
-230.559
-216.16
-200.799
-185.156
-169.923
-155.77
-143.27
-132.824
-124.596
-118.466
-114.029
-110.741
-108.156
-105.83
-103.169
-99.6005
-94.5175
-87.217
-77.1266
-64.4428
-50.2677
-34.1873
-11.4478
-93.6753
-98.2209
-103.205
-106.851
-107.755
-104.941
-97.382
-85.5907
-75.1053
-67.2579
-61.4927
-56.7357
-52.6629
-49.2649
-46.6764
-43.923
-39.6913
-35.2569
-33.2221
-35.3385
-39.5564
-42.4213
-43.3649
-45.0329
-47.9899
-50.419
-50.6291
-48.8528
-42.0549
-35.4134
-28.0502
-21.7269
-16.8951
-13.7619
-12.7812
-14.2554
-18.3506
-24.4223
-31.5128
-39.7332
-48.9376
-58.5683
-69.4877
-82.0083
-95.4949
-109.971
-124.786
-138.946
-152.095
-164.304
-175.752
-186.46
-196.187
-204.927
-213.142
-220.78
-227.596
-233.519
-238.503
-242.619
-245.946
-248.695
-251.284
-254.157
-257.508
-261.221
-264.981
-268.454
-271.377
-273.534
-274.715
-274.671
-273.096
-269.636
-263.95
-255.821
-245.299
-232.737
-218.665
-203.677
-188.41
-173.509
-159.593
-147.188
-136.663
-128.165
-121.597
-116.61
-112.699
-109.426
-106.341
-102.866
-98.4655
-92.6164
-84.7468
-74.4236
-61.8681
-47.9773
-32.4226
-11.1009
-94.272
-98.6901
-103.671
-107.387
-108.37
-105.629
-97.9654
-85.7952
-75.1154
-67.2046
-61.4673
-56.7261
-52.7469
-49.3539
-47.0682
-44.4245
-40.0943
-35.5307
-33.4761
-35.5924
-39.7867
-42.5101
-43.2175
-44.7279
-47.6429
-50.2572
-50.5861
-48.63
-41.5024
-34.67
-27.0203
-20.476
-15.4808
-12.2376
-11.1825
-12.6161
-16.7436
-22.864
-29.9334
-38.201
-47.4274
-57.1902
-68.3268
-80.9105
-94.4689
-109.029
-123.943
-138.338
-151.844
-164.494
-176.444
-187.683
-197.952
-207.224
-215.893
-223.9
-231.055
-237.317
-242.642
-247.087
-250.727
-253.768
-256.582
-259.546
-262.831
-266.354
-269.861
-273.063
-275.702
-277.555
-278.401
-277.991
-276.034
-272.22
-266.266
-258.015
-247.539
-235.159
-221.356
-206.68
-191.726
-177.096
-163.365
-151.02
-140.4
-131.642
-124.662
-119.151
-114.659
-110.74
-106.936
-102.716
-97.5803
-91.0644
-82.7061
-72.1812
-59.7202
-46.0294
-30.8636
-10.7825
-94.8518
-99.1551
-104.132
-107.923
-108.991
-106.339
-98.5763
-86.0077
-75.138
-67.1675
-61.4513
-56.7196
-52.8496
-49.4434
-47.5335
-44.9516
-40.5063
-35.837
-33.7698
-35.8538
-39.9936
-42.5687
-43.0491
-44.4003
-47.2561
-50.0667
-50.6195
-48.3383
-40.932
-33.8541
-25.9118
-19.1377
-13.9241
-10.5243
-9.42548
-10.936
-15.1645
-21.3291
-28.4346
-36.6494
-45.7598
-55.6297
-66.9706
-79.6668
-93.3447
-108.007
-123.041
-137.686
-151.575
-164.709
-177.198
-188.996
-199.829
-209.656
-218.805
-227.211
-234.725
-241.335
-247.005
-251.783
-255.736
-259.062
-262.09
-265.143
-268.376
-271.732
-275.006
-277.943
-280.296
-281.84
-282.347
-281.571
-279.244
-275.091
-268.883
-260.507
-250.052
-237.812
-224.226
-209.807
-195.11
-180.7
-167.111
-154.796
-144.069
-135.06
-127.691
-121.682
-116.627
-112.093
-107.617
-102.706
-96.9018
-89.7949
-81.0073
-70.3003
-57.902
-44.357
-29.5046
-10.4925
-95.4507
-99.6126
-104.582
-108.455
-109.615
-107.071
-99.2123
-86.2273
-75.1746
-67.1484
-61.4535
-56.7121
-52.9302
-49.5645
-48.0439
-45.498
-40.9264
-36.1819
-34.1023
-36.1201
-40.1731
-42.5932
-42.8618
-44.0599
-46.8071
-49.8433
-50.7403
-48.0131
-40.3171
-32.9548
-24.6856
-17.6344
-12.1844
-8.67185
-7.59929
-9.2404
-13.6206
-19.6917
-26.5737
-34.6651
-43.7898
-53.872
-65.4392
-78.279
-92.1078
-106.895
-122.074
-136.988
-151.289
-164.941
-178.002
-190.382
-201.802
-212.208
-221.862
-230.695
-238.588
-245.555
-251.572
-256.679
-260.943
-264.546
-267.779
-270.921
-274.114
-277.323
-280.381
-283.062
-285.132
-286.364
-286.532
-285.396
-282.71
-278.234
-271.782
-263.279
-252.822
-240.686
-227.273
-213.063
-198.576
-184.343
-170.862
-158.556
-147.715
-138.459
-130.715
-124.229
-118.626
-113.489
-108.372
-102.81
-96.3887
-88.7447
-79.5697
-68.6917
-56.3285
-42.9057
-28.3561
-10.2333
-96.031
-100.06
-105.019
-108.979
-110.235
-107.822
-99.8695
-86.4527
-75.2262
-67.1491
-61.4838
-56.7237
-52.9714
-49.8672
-48.6019
-46.0527
-41.3544
-36.5692
-34.4708
-36.3888
-40.3223
-42.5809
-42.6633
-43.7164
-46.2825
-49.5915
-50.862
-47.6045
-39.6163
-31.8856
-23.2784
-15.9607
-10.3226
-6.74162
-5.66421
-7.34007
-11.689
-17.4654
-24.1838
-32.3146
-41.5858
-51.9272
-63.7247
-76.7353
-90.7429
-105.684
-121.045
-136.257
-150.997
-165.193
-178.849
-191.831
-203.857
-214.863
-225.046
-234.33
-242.621
-249.955
-256.319
-261.752
-266.32
-270.194
-273.627
-276.862
-280.026
-283.106
-285.963
-288.397
-290.187
-291.109
-290.94
-289.453
-286.42
-281.637
-274.951
-266.318
-255.841
-243.776
-230.499
-216.457
-202.142
-188.051
-174.654
-162.34
-151.379
-141.877
-133.766
-126.812
-120.669
-114.939
-109.196
-103.012
-96.0071
-87.8639
-78.332
-67.2899
-54.9414
-41.641
-27.4206
-10.0061
-96.5824
-100.498
-105.441
-109.492
-110.846
-108.591
-100.543
-86.6833
-75.2942
-67.1714
-61.5459
-56.787
-53.0098
-50.4704
-49.2232
-46.6082
-41.7917
-37.0001
-34.8721
-36.6587
-40.4401
-42.5318
-42.4623
-43.3748
-45.7162
-49.2403
-50.8291
-46.9887
-38.774
-30.6129
-21.7054
-14.1646
-8.33698
-4.62799
-3.45396
-5.08086
-9.17869
-14.6933
-21.4405
-29.7124
-39.1749
-49.7827
-61.8126
-75.0208
-89.2376
-104.37
-119.956
-135.503
-150.707
-165.467
-179.732
-193.33
-205.981
-217.605
-228.337
-238.094
-246.801
-254.51
-261.224
-266.981
-271.851
-275.99
-279.619
-282.948
-286.097
-289.062
-291.733
-293.93
-295.446
-296.062
-295.564
-293.735
-290.37
-285.294
-278.384
-269.619
-259.104