/*--------------------------------*- C++ -*----------------------------------*\
| =========                 |                                                 |
| \\      /  F ield         | OpenFOAM: The Open Source CFD Toolbox           |
|  \\    /   O peration     | Version:  4.1                                   |
|   \\  /    A nd           | Web:      www.OpenFOAM.org                      |
|    \\/     M anipulation  |                                                 |
\*---------------------------------------------------------------------------*/
FoamFile
{
    version     2.0;
    format      ascii;
    class       surfaceScalarField;
    location    "1100";
    object      phi;
}
// * * * * * * * * * * * * * * * * * * * * * * * * * * * * * * * * * * * * * //

dimensions      [0 3 -1 0 0 0 0];

internalField   nonuniform List<scalar> 
52920
(
1569.28
-228.486
1781.24
-211.965
1971.03
-189.789
2130.67
-159.64
2257.34
-126.665
2353.01
-95.6648
2425.59
-72.5821
2488.64
-63.0452
2553.7
-65.0599
2625.64
-71.9381
2703.13
-77.4806
2781.56
-78.4295
2857.43
-75.8642
2931.77
-74.3469
3010.72
-78.9455
3103.87
-93.1426
3222.36
-118.494
3377.59
-155.221
3577.14
-199.549
3818.59
-241.446
4090.12
-271.536
4377.33
-287.206
4668.02
-290.686
4951.77
-283.746
5218.87
-267.102
5461.69
-242.819
5675.65
-213.96
5858.34
-182.689
6008.74
-150.393
6126.11
-117.375
6210.27
-84.1503
6262.02
-51.7543
6284.13
-22.1103
6282.27
1.8701
6263.98
18.2857
6236.47
27.5139
6205.64
30.8326
6177.7
27.9421
6161.92
15.779
6173.71
-11.7924
6236.76
-63.0428
6379.12
-142.356
6618.93
-239.811
6944.32
-325.395
7296.5
-352.173
7568.71
-272.214
7661.04
-92.3279
7503.05
157.994
7108.8
394.248
6589.66
519.14
6044.82
544.841
5525.56
519.267
5054.04
471.519
4638.33
415.715
4279.44
358.892
3973.54
305.895
3713.12
260.421
3489.42
223.705
3295.18
194.242
3125.57
169.611
2984.32
141.243
2891.05
93.2781
2886.85
4.19112
3046.62
-159.76
3368.32
-321.7
3770.51
-402.192
4177.56
-407.056
4554.62
-377.057
4901.42
-346.797
5234.85
-333.435
5571.18
-336.328
5914.46
-343.282
6248.66
-334.198
6539.03
-290.363
6730.33
-191.307
6779.42
-49.0885
6686.4
93.0194
6499.9
186.506
6273.56
226.34
6037.11
236.444
5807.58
229.531
5606.52
201.058
5466.79
139.731
5424.89
41.9
5504.87
-79.9765
5735.52
-230.656
6173.87
-438.346
6893.51
-719.643
7917.87
-1024.36
9184.68
-1266.81
10560.3
-1375.6
11886.4
-1326.11
13044.4
-1157.96
13967.2
-922.895
14586.2
-618.933
14836.1
-249.905
14679.5
156.578
14172.5
506.98
13413.4
759.088
825.567
1619.35
-462.058
1834.61
-427.217
2026.51
-381.69
2188.64
-321.768
2318.76
-256.777
2418.68
-195.582
2495.85
-149.758
2563.31
-130.497
2632.18
-133.926
2707.11
-146.866
2786.72
-157.097
2866.55
-158.251
2943.19
-152.501
3017.61
-148.764
3095.53
-156.863
3185.92
-183.529
3299.07
-231.65
3445.24
-301.384
3630.88
-385.191
3853.07
-463.636
4100.27
-518.727
4358.41
-545.347
4615.23
-547.503
4859.84
-528.354
5082.34
-489.604
5275.93
-436.409
5438.28
-376.304
5570.42
-314.827
5675.48
-255.451
5756.76
-198.654
5817.16
-144.547
5859.3
-93.8956
5886.04
-48.846
5900.93
-13.0277
5907.85
11.3721
5910.14
25.2247
5910.77
30.2041
5914.27
24.4427
5929.76
0.296595
5975.19
-57.2226
6075.76
-163.615
6254.04
-320.63
6519.19
-504.957
6858.82
-665.025
7231.3
-724.654
7545.92
-586.836
7679.47
-225.875
7532.78
304.689
7121.98
805.046
6574.97
1066.15
6004.76
1115.06
5467.49
1056.54
4985.31
953.699
4564.42
836.612
4203.59
719.723
3897.03
612.452
3635.92
521.536
3410.91
448.714
3214.74
390.415
3043.13
341.217
2899.25
285.124
2797.45
195.076
2779.64
22.006
2937.87
-317.987
3270.08
-653.911
3680.81
-812.927
4086.22
-812.458
4453.5
-744.337
4787.26
-680.555
5107.57
-653.745
5432.16
-660.921
5765.62
-676.74
6091.54
-660.119
6374.38
-573.2
6556.04
-372.968
6589.96
-83.0127
6479.52
203.466
6279.21
386.81
6041.2
464.353
5794.85
482.797
5556.24
468.141
5344.5
412.793
5189.78
294.453
5128.25
103.43
5185.03
-136.754
5382.28
-427.906
5773.52
-829.587
6433.98
-1380.11
7392.22
-1982.6
8596.6
-2471.19
9918.1
-2697.1
11195.9
-2603.91
12311.8
-2273.86
13204.3
-1815.4
13805.8
-1220.43
14050.7
-494.826
13898.4
308.901
13403.7
1001.65
12665.4
1497.37
1624.2
1636.45
-692.864
1848.21
-638.979
2036.92
-570.393
2197.25
-482.102
2327.05
-386.575
2427.79
-296.313
2506.52
-228.489
2575.93
-199.904
2646.9
-204.895
2724.06
-224.023
2806.26
-239.292
2889.23
-241.215
2969.41
-232.687
3047.11
-226.453
3127.06
-236.815
3217.33
-273.798
3327.26
-341.582
3466.23
-440.352
3640.75
-559.709
3849.09
-671.968
4080.95
-750.59
4322.45
-786.838
4560.29
-785.35
4782.23
-750.284
4977.3
-684.673
5138.4
-597.515
5263.75
-501.654
5355.65
-406.717
5419.22
-319.021
5460.43
-239.862
5484.8
-168.924
5497.06
-106.147
5502.6
-54.3831
5507.77
-18.2035
5517.18
1.97152
5532.4
9.9975
5553.24
9.37212
5580.31
-2.62267
5617.77
-37.1705
5676.78
-116.227
5773.26
-260.096
5922.37
-469.738
6134.36
-716.942
6409.59
-940.255
6734.41
-1049.47
7058.12
-910.548
7269.84
-437.597
7228.52
346.009
6895.64
1137.94
6391.75
1570.04
5843.5
1663.31
5317.55
1582.48
4841.83
1429.42
4425.2
1253.25
4067.4
1077.52
3762.71
917.144
3502.12
782.132
3276.33
674.504
3078.42
588.328
2904.74
514.896
2757.35
432.51
2644.11
308.314
2606.92
59.2046
2764.13
-475.202
3108.62
-998.402
3522.55
-1226.86
3915.95
-1205.86
4263.74
-1092.13
4578.21
-995.016
4881.88
-957.424
5190.97
-970.002
5508.51
-994.281
5818.17
-969.783
6085.09
-840.118
6246.17
-534.052
6247.19
-84.0248
6095.04
355.611
5855.15
626.702
5581.36
738.141
5303.47
760.691
5036.86
734.744
4797.79
651.869
4613.09
479.155
4514.88
201.642
4530.2
-152.077
4670.15
-567.854
4981.25
-1140.68
5550.96
-1949.82
6437.83
-2869.46
7607.5
-3640.86
8912.9
-4002.5
10167.9
-3858.87
11251.2
-3357.19
12114.8
-2679.03
12695.8
-1801.43
12929.6
-728.618
12772.5
465.992
12281.1
1493.07
11557.3
2221.18
2394.03
1623.59
-916.641
1831.37
-846.757
2017.45
-756.472
2175.32
-639.975
2302.14
-513.386
2399.14
-393.31
2473.66
-303.007
2538.93
-265.174
2606.3
-272.269
2680.81
-298.522
2761.77
-320.25
2845.39
-324.836
2928.21
-315.503
3009.86
-308.103
3093.9
-320.854
3187.09
-366.98
3297.56
-452.05
3434.04
-576.835
3603.53
-729.193
3805.34
-873.781
4029.77
-975.016
4262.62
-1019.68
4489.95
-1012.68
4698.92
-959.255
4878.25
-863.999
5020.73
-740.001
5124.7
-605.616
5192.6
-474.622
5230.04
-356.457
5243.81
-253.624
5240.18
-165.295
5224.61
-90.5732
5205.33
-35.1045
5192.18
-5.05362
5191.3
2.85249
5204.1
-2.79891
5228.15
-14.678
5259.01
-33.4796
5293.82
-71.9758
5334.93
-157.337
5390.69
-315.848
5477.25
-556.298
5614.5
-854.189
5815.94
-1141.7
6084.31
-1317.84
6393.92
-1220.16
6659.69
-703.362
6726.5
279.201
6493.39
1371.05
6062.69
2000.74
5565.44
2160.56
5074.17
2073.74
4621.87
1881.73
4221.18
1653.94
3874.48
1424.22
3577.46
1214.16
3321.85
1037.74
3098.95
897.408
2902.34
784.936
2729.03
688.207
2579.61
581.932
2454.38
433.543
2396.24
117.342
2554.76
-633.715
2904.99
-1348.63
3304.5
-1626.37
3667.94
-1569.3
3984.24
-1408.42
4271.52
-1282.3
4550.62
-1236.52
4837.11
-1256.49
5138.45
-1295.62
5440.95
-1272.28
5706.79
-1105.96
5859.59
-686.858
5830
-54.4274
5629.02
556.585
5337.05
918.671
5012.04
1063.15
4685.6
1087.14
4372.92
1047.43
4087.99
936.796
3856.46
710.68
3702.65
355.452
3670.06
-119.485
3746.34
-644.132
3965.43
-1359.77
4470.26
-2454.65
5359.4
-3758.61
6564.41
-4845.87
7885.12
-5323.22
9112.51
-5086.26
10140.3
-4384.97
10951.8
-3490.5
11490.5
-2340.13
11680.5
-918.632
11472
674.491
10946.7
2018.37
10224.8
2943.1
3129.52
1602.08
-1145.98
1815.74
-1060.42
2004.32
-945.05
2161.18
-796.836
2284.12
-636.32
2374.87
-484.058
2441.4
-369.536
2497.87
-321.638
2556.43
-330.827
2622.69
-364.778
2696.5
-394.058
2774.66
-403
2854.26
-395.101
2935.03
-388.869
3019.92
-405.739
3114.68
-461.743
3226.39
-563.754
3362.93
-713.372
3531.12
-897.383
3730.84
-1073.5
3953.16
-1197.34
4184.13
-1250.65
4409.36
-1237.91
4615.18
-1165.07
4789.55
-1038.37
4924.93
-875.373
5019.61
-700.292
5076.05
-531.065
5100.04
-380.444
5098.49
-252.069
5076.63
-143.443
5040.36
-54.2952
5000.58
4.67275
4968.67
26.8628
4951.78
19.7437
4951.61
-2.6235
4964.19
-27.2598
4980.72
-50.0051
4992.63
-83.892
4996.37
-161.074
4996.25
-315.72
5011.51
-571.555
5072.27
-914.955
5202.85
-1272.27
5416.06
-1531.04
5699.87
-1503.97
5993.23
-996.714
6145.57
126.853
5999.77
1516.86
5642.46
2358.04
5204.15
2598.88
4757.99
2519.91
4338.97
2300.75
3962.6
2030.3
3634
1752.83
3350.64
1497.52
3105.23
1283.15
2889.78
1112.86
2698.33
976.386
2528.56
857.979
2378.85
731.642
2242.43
569.96
2163.01
196.761
2313.53
-784.229
2641.78
-1676.89
2996.03
-1980.62
3308.57
-1881.84
3581.19
-1681.04
3833.74
-1534.85
4089.6
-1492.38
4371.44
-1538.33
4687.32
-1611.49
5012.21
-1597.18
5297.64
-1391.38
5454.47
-843.685
5398.11
1.9323
5147.34
807.354
4800
1266.01
4417.51
1445.65
4033.99
1470.65
3663.91
1417.51
3319.06
1281.64
3026.31
1003.43
2802.4
579.365
2711.89
-28.9748
2699.35
-631.59
2843.55
-1503.97
3382.33
-2993.43
4349.03
-4725.3
5585.22
-6082.06
6877.67
-6615.67
8025.33
-6233.91
8950.41
-5310.06
9684.1
-4224.18
10187.2
-2843.23
10349.3
-1080.76
10066.7
957.147
9453.34
2631.7
8702.71
3693.73
3826.67
1595.31
-1393.37
1815.87
-1280.98
2003.92
-1133.1
2156.82
-949.738
2274.15
-753.644
2357.98
-567.886
2416.25
-427.808
2463.41
-368.794
2512.04
-379.454
2568.18
-420.914
2632.12
-457.998
2701.17
-472.047
2773.01
-466.937
2847.85
-463.71
2928.73
-486.613
3021.19
-554.195
3131.64
-674.21
3266.99
-848.72
3434.07
-1064.45
3634.58
-1274.01
3861.26
-1424.02
4099.29
-1488.67
4331.73
-1470.34
4542.67
-1376.01
4719.01
-1214.71
4853.2
-1009.56
4944.02
-791.109
4994.27
-581.317
5010.28
-396.451
4998.32
-240.109
4962.03
-107.15
4908.75
-1.01197
4850.99
62.4326
4799.98
77.8737
4763.7
56.0239
4744.29
16.7909
4736.73
-19.6986
4729.6
-42.8755
4710.41
-64.6971
4671.9
-122.561
4616.19
-260.013
4563.95
-519.309
4554.24
-905.237
4620.61
-1338.64
4781.08
-1691.52
5031.96
-1754.84
5332.21
-1296.97
5546.05
-86.9875
5468.43
1594.48
5174.43
2652.05
4792.3
2981
4393
2919.21
4011.1
2682.66
3663.65
2377.75
3357.99
2058.48
3093.12
1762.39
2862.48
1513.8
2658.54
1316.8
2475.69
1159.23
2311.98
1021.69
2163.25
880.373
2018.53
714.686
1913.22
302.073
2029.56
-900.568
2296.85
-1944.18
2576.98
-2260.75
2824.77
-2129.63
3051.45
-1907.72
3281.49
-1764.89
3544.12
-1755.01
3855.32
-1849.54
4200.58
-1956.75
4537.63
-1934.23
4824.19
-1677.95
4973.79
-993.286
4885.01
90.7175
4585.84
1106.52
4189.97
1661.87
3756.12
1879.5
3320.53
1906.24
2895.37
1842.68
2489.3
1687.7
2131.81
1360.92
1835.5
875.679
1644.93
161.591
1535.04
-521.703
1723.42
-1692.35
2387.03
-3657.03
3385.89
-5724.17
4569.18
-7265.34
5764.97
-7811.46
6764.42
-7233.36
7516.72
-6062.36
8120.48
-4827.95
8584.5
-3307.25
8787.39
-1283.64
8508.72
1235.82
7818.15
3322.26
7018.79
4493.09
4486.6
1596.72
-1645.9
1813.4
-1497.67
1994.27
-1313.97
2140.09
-1095.55
2251.08
-864.635
2328.82
-645.628
2380.57
-479.552
2420.51
-408.737
2461.25
-420.185
2508.96
-468.625
2564.15
-513.188
2624.34
-532.23
2687.54
-530.134
2754.41
-530.581
2828.37
-560.574
2915.36
-641.185
3021.54
-780.382
3153.28
-980.455
3319.6
-1230.78
3526.24
-1480.65
3765.97
-1663.74
4018.88
-1741.58
4262.97
-1714.43
4480.43
-1593.46
4658.66
-1392.94
4791.51
-1142.41
4878.85
-878.447
4924.01
-626.483
4933.85
-406.285
4912.37
-218.632
4862.44
-57.218
4793.37
68.066
4717.43
138.37
4646.11
149.2
4588.22
113.913
4546.97
58.0389
4517.74
9.5317
4488.41
-13.5432
4443.23
-19.5125
4371.02
-50.3468
4270.98
-159.968
4162.7
-411.032
4094.03
-836.561
4108.06
-1352.67
4222.1
-1805.56
4433.56
-1966.31
4717.81
-1581.21
4963.61
-332.785
4931.25
1626.84
4687.15
2896.15
4354.29
3313.86
3999.31
3274.19
3654.66
3027.32
3337.93
2694.49
3058.12
2338.29
2815.19
2005.32
2602.76
1726.23
2413.39
1506.17
2241.62
1331.01
2085.18
1178.12
1938.87
1026.68
1790.14
863.422
1655.5
436.712
1717.53
-962.598
1897.01
-2123.66
2085.87
-2449.62
2266.58
-2310.33
2460.61
-2101.75
2693.72
-1998.01
2981.9
-2043.19
3311.6
-2179.23
3645.89
-2291.04
3948.49
-2236.83
4207.01
-1936.46
4340.54
-1126.82
4221.09
210.165
3887.54
1440.07
3460.73
2088.69
2987.52
2352.71
2508.5
2385.25
2032.96
2318.22
1565.63
2155.03
1140.4
1786.15
784.867
1231.22
479.645
466.814
388.039
-430.098
740.395
-2044.71
1435.77
-4352.41
2353.6
-6642.01
3421.2
-8332.93
4461.95
-8852.21
5235.64
-8007.06
5732.2
-6558.92
6128.59
-5224.34
6479.53
-3658.19
6736.44
-1540.56
6597.96
1374.3
5951.47
3968.76
5160.45
5284.11
5089.36
1588.7
-1894.78
1796
-1704.97
1967.49
-1485.46
2105.84
-1233.9
2210.91
-969.694
2283.35
-718.07
2329.75
-525.95
2364.18
-443.169
2399.19
-455.185
2440.88
-510.313
2489.64
-561.947
2542.76
-585.353
2598.18
-585.55
2656.76
-589.157
2722.48
-626.292
2802.08
-720.784
2901.56
-879.852
3028.19
-1107.09
3196.68
-1399.26
3416.85
-1700.82
3675.84
-1922.73
3943.98
-2009.73
4194.95
-1965.4
4412.56
-1811.06
4587.58
-1567.96
4716.39
-1271.22
4799.87
-961.922
4841.58
-668.189
4847.85
-412.562
4819.39
-190.163
4758.8
3.37229
4676.05
150.814
4582.83
231.593
4491.62
240.416
4412.44
193.092
4349.92
120.555
4301.24
58.2225
4255.32
32.3786
4195.19
40.6131
4104.35
40.4952
3974.45
-30.0581
3823.33
-259.915
3710.53
-723.751
3687.74
-1329.88
3763.74
-1881.56
3931
-2133.57
4177.92
-1828.12
4421.6
-576.463
4407.51
1640.93
4198.52
3105.14
3906.77
3605.61
3591.81
3589.15
3282.6
3336.52
2996.67
2980.42
2744.23
2590.72
2525.55
2224
2333.69
1918.1
2160.88
1678.98
2001.37
1490.52
1852.39
1327.1
1709.91
1169.17
1561.96
1011.38
1411.61
587.06
1424.23
-975.215
1502.34
-2201.77
1589.79
-2537.07
1707.31
-2427.86
1879.73
-2274.16
2116.18
-2234.46
2402.01
-2329.02
2700.4
-2477.62
2972.58
-2563.21
3204.01
-2468.26
3410.96
-2143.41
3515.29
-1231.15
3365.63
359.82
3026.56
1779.15
2601.05
2514.19
2108.35
2845.41
1596.91
2896.69
1073.5
2841.63
546.841
2681.69
74.8458
2258.14
-298.225
1604.29
-641.249
809.838
-637.691
-433.656
-211.553
-2470.85
406.861
-4970.83
1208.23
-7443.37
2120.61
-9245.31
2952.39
-9683.99
3457.95
-8512.62
3675.77
-6776.74
3839.92
-5388.48
3972.94
-3791.21
4156.94
-1724.55
4215.85
1315.39
3767.54
4417.07
3101.77
5949.88
5593.02
1573.44
-2134.42
1769.85
-1901.38
1932.52
-1648.12
2063.94
-1365.32
2162.94
-1068.69
2229.49
-784.617
2269.99
-566.446
2298.87
-472.048
2328.78
-485.096
2365.75
-547.278
2409.92
-606.115
2458.08
-633.517
2507.57
-635.032
2558.9
-640.491
2616.49
-683.873
2687.67
-791.967
2778.17
-970.344
2899.11
-1228.03
3074.3
-1574.44
3313.34
-1939.87
3589.99
-2199.38
3864.05
-2283.78
4110.04
-2211.39
4318.04
-2019.07
4483.95
-1733.87
4606.48
-1393.76
4686.77
-1042.21
4728.14
-709.552
4735.08
-419.503
4704.89
-159.977
4639.85
68.4192
4548.23
242.439
4441.49
338.329
4333.53
348.377
4235.91
290.719
4154.78
201.681
4089.48
123.531
4030.7
91.1591
3962.74
108.574
3868.42
134.814
3727.06
111.308
3548.56
-81.4098
3408
-583.196
3362.22
-1284.09
3405.1
-1924.43
3525.01
-2253.48
3721.82
-2024.93
3932.08
-786.722
3908.04
1664.97
3719.34
3293.84
3460.67
3864.29
3180.94
3868.88
2904.51
3612.95
2648.47
3236.47
2424.05
2815.15
2231.05
2417
2061.15
2088
1905.74
1834.38
1758.41
1637.85
1616.64
1468.87
1478.11
1307.69
1336.71
1152.78
1201.51
722.256
1182.49
-956.19
1153.16
-2172.44
1136.87
-2520.78
1192.48
-2483.47
1332.84
-2414.52
1540.87
-2442.49
1777.74
-2565.88
2001.85
-2701.73
2180.24
-2741.6
2317.24
-2605.26
2419.14
-2245.31
2440.58
-1252.59
2250.09
550.314
1959.99
2069.25
1591.89
2882.3
1111.04
3326.26
584.81
3422.92
9.59366
3416.85
-653.431
3344.71
-1356.49
2961.2
-1937.44
2185.24
-2161.21
1033.6
-1812.64
-782.225
-1271.47
-3012.01
-714.418
-5527.88
-49.6144
-8108.18
675.513
-9970.44
1285.66
-10294.1
1564.83
-8791.79
1577.02
-6788.94
1572.43
-5383.9
1533.71
-3752.49
1455.26
-1646.11
1492.94
1277.71
1299.14
4610.87
853.613
6395.41
5970.05
1557.16
-2365.16
1744.5
-2088.71
1899.28
-1802.9
2023.21
-1489.25
2114.55
-1160.03
2173.18
-843.244
2205.76
-599.02
2227.47
-493.76
2251.32
-508.944
2283.34
-579.293
2323.54
-646.31
2368.22
-678.2
2413.79
-680.601
2459.92
-686.61
2510.82
-734.777
2573.26
-854.406
2652.95
-1050.03
2769.68
-1344.76
2957.1
-1761.86
3215.77
-2198.53
3500.86
-2484.47
3766.84
-2549.75
3995.83
-2440.38
4186.63
-2209.86
4339.54
-1886.78
4454.34
-1508.55
4531.79
-1119.66
4574.91
-752.676
4586.06
-430.649
4559.71
-133.621
4497.29
130.839
4403.65
336.076
4289.41
452.572
4169.74
468.044
4058.09
402.38
3962.27
297.495
3883.47
202.339
3814.82
159.809
3742.03
181.373
3648.87
227.973
3515.41
244.77
3331.49
102.517
3175.53
-427.23
3112.97
-1221.54
3120.92
-1932.38
3191.22
-2323.78
3337.54
-2171.24
3494.52
-943.703
3437.05
1722.44
3255.66
3475.23
3022.97
4096.98
2773.86
4117.99
2527.18
3859.64
2299.65
3463.99
2103.42
3011.39
1936.99
2583.42
1789.82
2235.18
1651.84
1972.36
1515.82
1773.87
1380.53
1604.16
1243.63
1444.59
1113.44
1282.97
1021.93
813.769
981.633
-915.893
851.417
-2042.22
740.904
-2410.27
728.51
-2471.07
810.416
-2496.43
951.424
-2583.5
1103.38
-2717.85
1231.17
-2829.52
1307.01
-2817.44
1333.68
-2631.93
1256.85
-2168.48
1088.26
-1083.99
815.089
823.486
677.15
2207.19
462.487
3096.96
65.8756
3722.87
-481.864
3970.66
-1081.32
4016.31
-1652.19
3915.58
-2229.64
3538.65
-2626.07
2581.67
-2582.05
989.583
-2318.65
-1045.62
-2039.57
-3291.1
-1699.48
-5867.96
-1307.15
-8500.51
-846.148
-10431.4
-454.935
-10685.3
-333.426
-8913.3
-457.485
-6664.88
-582.735
-5258.65
-652.087
-3683.14
-990.51
-1307.69
-1333.83
1621.03
-1326.76
4603.81
-1481.64
6550.29
6208.38
1546.95
-2586.75
1725.1
-2266.86
1870.78
-1948.59
1985.57
-1604.04
2067.56
-1242.01
2116.47
-892.153
2139.18
-621.727
2151.86
-506.44
2168.13
-525.21
2194.19
-605.35
2230.03
-682.151
2271.55
-719.716
2314.18
-723.233
2356.68
-729.103
2402.38
-780.47
2455.73
-907.759
2524.43
-1118.73
2642.08
-1462.41
2847.5
-1967.28
3121.86
-2472.89
3403.27
-2765.89
3649.74
-2796.22
3855.28
-2645.91
4026.27
-2380.85
4164.96
-2025.47
4270.59
-1614.19
4343.54
-1192.6
4387.08
-796.214
4402.17
-445.742
4382.13
-113.572
4327.55
185.415
4238.43
425.203
4122.95
568.053
3997.16
593.836
3876.44
523.102
3770.38
403.554
3681.85
290.87
3606.29
235.375
3530.66
257.002
3438.92
319.717
3319.06
364.628
3148.39
273.197
2993.49
-272.328
2912.97
-1141.02
2878.92
-1898.32
2898.71
-2343.57
3004.14
-2276.67
3099.33
-1038.89
2993.51
1828.26
2810.4
3658.35
2598.09
4309.29
2375.36
4340.71
2155.31
4079.69
1954.72
3664.58
1786.67
3179.44
1647.31
2722.79
1522.6
2359.89
1400.61
2094.35
1273.8
1900.68
1143.21
1734.76
1006.69
1581.11
893.02
1396.64
846.67
860.122
773.042
-842.265
559.759
-1828.94
374.484
-2224.99
287.885
-2384.47
288.246
-2496.79
335.156
-2630.41
384.813
-2767.5
412.392
-2857.1
389.677
-2794.73
283.271
-2525.52
53.2251
-1938.43
-67.5156
-963.253
-305.844
1061.81
-600.48
2501.82
-861.264
3357.75
-1084.35
3945.96
-1442.94
4329.25
-1978.54
4551.91
-2564.13
4501.17
-3031
4005.53
-3199.04
2749.7
-3107.31
897.857
-2983.64
-1169.29
-2845.39
-3429.35
-2687.84
-6025.51
-2509.37
-8678.97
-2278.9
-10661.9
-2056.86
-10907.4
-1998.98
-8971.18
-2172.62
-6491.23
-2408.27
-5023
-2620.14
-3471.27
-2897.66
-1030.17
-3115.61
1838.98
-3243.11
4731.31
-3233.63
6540.81
6276.43
1541.35
-2796.53
1708.37
-2433.88
1844.17
-2084.38
1949.78
-1709.65
2022.4
-1314.63
2061.16
-930.908
2072.99
-633.559
2075.3
-508.75
2082.62
-532.521
2101.55
-624.281
2132.23
-712.824
2170.15
-757.634
2209.85
-762.93
2249.42
-768.667
2290.44
-821.495
2334.02
-951.337
2394.05
-1178.76
2520.68
-1589.03
2747.72
-2194.32
3030.29
-2755.46
3297.79
-3033.38
3519.77
-3018.2
3702.06
-2828.21
3855.21
-2533.99
3980.57
-2150.83
4075.67
-1709.28
4140.81
-1257.74
4180.31
-835.715
4194.82
-460.244
4178.93
-97.6851
4133.38
230.971
4052.63
505.956
3940.91
679.772
3814.02
720.722
3688.98
648.147
3577.09
515.447
3482.43
385.534
3402.26
315.553
3326.29
332.969
3239.03
406.984
3126.87
476.793
2978.94
421.131
2843.44
-136.829
2739.29
-1036.87
2653.27
-1812.29
2624.05
-2314.35
2704.38
-2356.99
2735.02
-1069.53
2573.96
1989.32
2384.64
3847.67
2188.75
4505.18
1988.55
4540.91
1792.02
4276.23
1616.76
3839.84
1477.05
3319.15
1365.43
2834.4
1263.27
2462.06
1156.94
2200.68
1039.1
2018.53
913.041
1860.81
779.097
1715.05
679.562
1496.18
628.813
910.875
495.874
-709.324
224.233
-1557.29
-10.7614
-1990
-168.211
-2227.02
-259.424
-2405.58
-319.101
-2570.73
-379.221
-2707.38
-461.639
-2774.68
-593.761
-2662.61
-844.628
-2274.66
-1182.32
-1600.74
-1501.4
-644.169
-1649.85
1210.26
-1657.06
2509.04
-1837.94
3538.63
-2005.72
4113.74
-2329.06
4652.58
-2820.24
5043.1
-3347.42
5028.35
-3682.5
4340.6
-3737.34
2804.54
-3677.55
838.068
-3645.87
-1200.97
-3627.89
-3447.33
-3649.21
-6004.18
-3696.64
-8631.55
-3696.57
-10662
-3604.73
-10999.2
-3535.13
-9040.77
-3704.3
-6322.07
-4051.32
-4675.97
-4387.51
-3135.08
-4714.61
-703.071
-4973.32
2097.69
-4994.81
4752.8
-4756.19
6302.19
6143.89
1534.3
-2993.15
1690.9
-2590.48
1818.37
-2211.85
1916.21
-1807.49
1980.3
-1378.71
2009.07
-959.675
2009.53
-634.017
2000.46
-499.676
1997.45
-529.513
2007.82
-634.645
2032.19
-737.199
2065.88
-791.321
2102.6
-799.646
2139.85
-805.916
2176.18
-857.821
2209.52
-984.68
2265.86
-1235.09
2410.01
-1733.18
2658.08
-2442.38
2939.68
-3037.06
3187.15
-3280.85
3385.52
-3216.57
3549.11
-2991.8
3688.82
-2673.7
3803.04
-2265.05
3887
-1793.25
3941.29
-1312.02
3971.75
-866.18
3979.03
-467.519
3961.54
-80.1908
3921.98
270.535
3850
577.932
3744.77
785.002
3620.43
845.063
3494.87
773.714
3380.85
629.464
3283.6
482.789
3202.12
397.04
3128.29
406.8
3044.83
490.447
2940.22
581.399
2823.22
538.142
2713.36
-26.9711
2580.34
-903.844
2433.95
-1665.9
2360.58
-2240.99
2432.27
-2428.67
2393.5
-1030.76
2175.31
2207.52
1978.8
4044.18
1796.56
4687.42
1615.28
4722.19
1439.14
4452.37
1287.78
3991.2
1177.12
3429.82
1094.49
2917.03
1014.1
2542.46
918.118
2296.66
799.272
2137.37
667.207
1992.88
532.96
1849.3
466.101
1563.04
352.159
1024.82
133.684
-490.849
-169.816
-1253.79
-424.198
-1735.61
-616.444
-2034.77
-766.433
-2255.59
-901.426
-2435.74
-1039.6
-2569.21
-1192.73
-2621.55
-1379.2
-2476.14
-1648.54
-2005.31
-2009.77
-1239.51
-2422.22
-231.721
-2553.07
1341.11
-2683.42
2639.39
-2830.01
3685.21
-2988.2
4271.93
-3272.34
4936.72
-3665.84
5436.6
-4039.94
5402.45
-4217.88
4518.54
-4230.93
2817.59
-4230.59
837.728
-4265.77
-1165.79
-4352.26
-3360.84
-4533.79
-5822.65
-4801.48
-8363.86
-5049.21
-10414.3
-5119.19
-10929.3
-5034.7
-9125.26
-5157.51
-6199.26
-5614.87
-4218.61
-6078.12
-2671.84
-6392.15
-389.035
-6527.94
2233.47
-6360.99
4585.85
-5933.21
5874.4
5850.75
1524.54
-3176.24
1672.27
-2738.22
1793.24
-2332.82
1884.57
-1898.81
1940.85
-1434.99
1959.89
-978.719
1948.71
-622.826
1927.45
-478.415
1912.78
-514.84
1912.88
-634.746
1929.4
-753.717
1957.86
-819.776
1991.52
-833.3
2027.21
-841.607
2058.74
-889.347
2082.75
-1008.69
2143.18
-1295.51
2311.79
-1901.79
2575.67
-2706.27
2847.34
-3308.73
3072.89
-3506.4
3252.03
-3395.7
3402.85
-3142.63
3533.82
-2804.66
3639.49
-2370.71
3712.76
-1866.51
3754.77
-1354.03
3772.98
-884.393
3766.96
-461.494
3740.83
-54.0565
3701.46
309.904
3635.68
643.708
3537.29
883.393
3417.5
964.862
3294.17
897.044
3181.24
742.4
3084.86
579.162
3004.74
477.164
2933.87
477.68
2856.18
568.137
2765.95
671.632
2685.94
618.151
2603.95
55.0291
2445.5
-745.391
2244.24
-1464.63
2136.57
-2133.32
2200.8
-2492.89
2072.17
-902.132
1795.9
2483.79
1593.13
4246.96
1422.37
4858.18
1256.44
4888.12
1097.49
4611.32
968.844
4119.84
888.741
3509.92
835.304
2970.46
772.064
2605.7
678.795
2389.93
552.811
2263.36
416.234
2129.45
324.997
1940.54
336.301
1551.73
145.071
1216.06
-281.074
-64.7024
-590.207
-944.658
-864.11
-1461.71
-1095.42
-1803.46
-1301.82
-2049.19
-1505.5
-2232.05
-1721.44
-2353.26
-1958.69
-2384.31
-2225.65
-2209.18
-2541
-1689.96
-2922.06
-858.447
-3358.54
204.753
-3566.85
1549.42
-3721
2793.54
-3865.38
3829.6
-4074.64
4481.19
-4326.51
5188.59
-4566.03
5676.12
-4709.01
5545.42
-4718.37
4527.91
-4706.79
2806.01
-4747.36
878.289
-4833.3
-1079.84
-5004.73
-3189.42
-5316.22
-5511.16
-5778.1
-7901.98
-6280.03
-9912.32
-6568.18
-10641.1
-6492.87
-9200.58
-6434.95
-6257.18
-6832.9
-3820.66
-7386.43
-2118.31
-7692.91
-82.5599
-7690.37
2230.93
-7346.73
4242.21
-6780.18
5307.85
5445.95
1510.91
-3346.45
1652.05
-2879.36
1768.14
-2448.9
1853.99
-1984.66
1903.27
-1484.27
1913.15
-988.602
1890.43
-600.101
1856.63
-444.606
1829.35
-487.564
1817.66
-623.056
1824.48
-760.528
1845.98
-841.272
1875.76
-863.085
1910.04
-875.884
1936.31
-915.614
1953.95
-1026.33
2028.39
-1369.94
2224.82
-2098.22
2495.62
-2977.07
2750.47
-3563.57
2955.83
-3711.76
3121.5
-3561.37
3264.86
-3285.98
3390.65
-2930.45
3489.88
-2469.95
3553.47
-1930.09
3583.4
-1383.97
3588.51
-889.493
3565.11
-438.095
3524.35
-13.2929
3478.59
355.659
3414.65
707.657
3321.65
976.394
3207.05
1079.46
3087.84
1016.25
2978.55
851.696
2885.76
671.955
2809.24
553.689
2743.52
543.402
2675.94
635.719
2606.92
740.651
2569
656.073
2523.03
101.003
2361.9
-584.256
2140.47
-1243.21
2004.53
-1997.37
2018.32
-2506.67
1763.35
-647.162
1434.35
2812.79
1227.7
4453.61
1066.39
5019.5
912.169
5042.34
767.885
4755.6
663.699
4224.03
620.273
3553.35
601.609
2989.13
558.763
2648.55
470.823
2477.87
332.055
2402.13
171.779
2289.73
42.7147
2069.61
-124.567
1719.01
-342.377
1433.87
-695.069
287.989
-1005.66
-634.066
-1302.74
-1164.63
-1577.79
-1528.41
-1843.08
-1783.9
-2115
-1960.13
-2405.55
-2062.71
-2721.6
-2068.27
-3062.19
-1868.59
-3425.18
-1326.97
-3830.54
-453.079
-4252.14
626.354
-4524.45
1821.73
-4742.66
3011.75
-4936.06
4023
-5163.34
4708.47
-5326.41
5351.66
-5372.41
5722.11
-5300.46
5473.48
-5191.73
4419.18
-5163.79
2778.06
-5224.13
938.632
-5349.19
-954.778
-5582.24
-2956.37
-5984.75
-5108.65
-6592.26
-7294.47
-7326.42
-9178.15
-7903.51
-10064
-7980.06
-9124.03
-7713.22
-6524.01
-7754.4
-3779.48
-8161.44
-1711.28
-8415.89
171.895
-8287.42
2102.46
-7796.59
3751.39
-7123.56
4634.82
4965.89
1493.86
-3508.18
1630.55
-3016.05
1742.74
-2561.09
1824.08
-2066
1867.47
-1527.66
1869.25
-990.38
1835.71
-566.553
1789.69
-398.589
1749.59
-447.459
1725.11
-598.565
1720.44
-755.862
1732.79
-853.616
1757.15
-887.44
1788.97
-907.701
1808.74
-935.385
1825.14
-1042.73
1923.72
-1468.52
2146.22
-2320.72
2413.37
-3244.22
2648.07
-3798.27
2837.68
-3901.37
2995.33
-3719.01
3134.6
-3425.25
3257
-3052.85
3350.97
-2563.92
3405.9
-1985.02
3424.98
-1403.04
3417.53
-882.044
3374.91
-395.477
3315.99
45.6349
3258.17
413.481
3191.16
774.668
3101.02
1066.53
2991.28
1189.21
2877.25
1130.28
2773.44
955.512
2686.49
758.906
2615.93
624.249
2557.93
601.407
2503.32
690.327
2456.72
787.258
2461.72
651.079
2464.96
97.7686
2337.94
-457.237
2148.43
-1053.69
1976.94
-1825.88
1859.49
-2389.22
1451.14
-238.804
1088.87
3175.06
882.149
4660.33
728.513
5173.14
576.81
5194.04
419.007
4913.41
293.068
4349.97
251.291
3595.13
279.543
2960.87
292.18
2635.91
220.733
2549.32
60.0178
2562.85
-156.261
2506.01
-389.23
2302.58
-631.717
1961.5
-795.981
1598.13
-1096.28
588.285
-1412.57
-317.77
-1730.88
-846.317
-2045.4
-1213.89
-2361.91
-1467.39
-2691.3
-1630.73
-3043.31
-1710.7
-3424.34
-1687.24
-3828.59
-1464.33
-4241.23
-914.334
-4667.78
-26.5285
-5062.77
1021.34
-5372.42
2131.38
-5634.68
3274.01
-5839.5
4227.82
-6007.27
4876.24
-6050.72
5395.12
-5950.31
5621.7
-5766.97
5290.14
-5619.29
4271.5
-5590.35
2749.12
-5663.11
1011.39
-5817.86
-800.021
-6092.26
-2681.97
-6547.73
-4653.17
-7237.19
-6605.02
-8133.36
-8281.98
-9010.08
-9187.3
-9447.34
-8686.77
-9265.51
-6705.84
-8916.82
-4128.17
-8849.96
-1778.14
-8908.08
230.02
-8776.31
1970.68
-8421.08
3396.16
-8033.54
4247.28
4677.47
1474.93
-3663.34
1607.62
-3148.74
1716.63
-2670.09
1794.53
-2143.91
1833.27
-1566.4
1828.22
-985.321
1784.97
-523.306
1727.68
-341.295
1675.12
-394.899
1637.31
-560.751
1619.74
-738.284
1620.95
-854.83
1638.35
-904.837
1665.76
-935.107
1677.6
-947.226
1700.21
-1065.33
1830.94
-1599.24
2072.35
-2562.13
2326.17
-3498.03
2541.27
-4013.37
2720.55
-4080.65
2873.78
-3872.24
3009.86
-3561.33
3128.83
-3171.82
3217.82
-2652.91
3265.05
-2032.25
3275.17
-1413.15
3256.56
-863.439
3194.87
-333.778
3116.51
123.989
3042.72
487.279
2968.22
849.167
2878.01
1156.74
2772.13
1295.09
2663.71
1238.71
2566.72
1052.5
2487.55
838.078
2425.05
686.75
2376.3
650.156
2334.66
731.973
2306.89
815.035
2344.7
613.271
2399.22
43.248
2337.78
-395.79
2207.69
-923.59
2005.65
-1623.84
1700.42
-2083.98
1130.68
330.942
756.746
3549
543.906
4873.17
375.312
5341.73
205.136
5364.22
37.2113
5081.33
-83.7713
4470.95
-103.178
3614.54
-59.0624
2916.76
-74.2049
2651.06
-205.441
2680.55
-425.544
2782.95
-681.12
2761.58
-908.613
2530.07
-1086.7
2139.58
-1201.35
1712.78
-1488.13
875.071
-1812.14
6.23567
-2148.27
-510.181
-2494.6
-867.567
-2851.53
-1110.47
-3224.68
-1257.58
-3620.92
-1314.46
-4045.16
-1262.99
-4489.7
-1019.8
-4934.7
-469.33
-5360.81
399.576
-5726.47
1387.01
-6038.12
2443.03
-6282.42
3518.31
-6442.27
4387.67
-6526.82
4960.79
-6487.66
5355.96
-6332.08
5466.12
-6134.55
5092.61
-5998.13
4135.08
-5978.01
2729
-6061.99
1095.37
-6239.76
-622.249
-6542.3
-2379.43
-7024.21
-4171.27
-7739.09
-5890.14
-8697.18
-7323.89
-9769.62
-8114.86
-10624.8
-7831.55
-10948.5
-6382.19
-10830
-4246.64
-10642.9
-1965.31
-10576.1
163.302
-10568.7
1963.29
-10579.7
3407.09
-10648.9
4316.5
4667.4
1453.46
-3812.42
1582.85
-3278.13
1689.51
-2776.75
1764.79
-2219.19
1799.79
-1601.4
1788.99
-974.516
1737.22
-471.532
1669.91
-273.978
1605.71
-330.703
1554.47
-509.509
1522.91
-706.717
1511.53
-843.448
1520.93
-914.229
1541.59
-955.769
1545.34
-950.97
1583.84
-1103.83
1750.44
-1765.84
1999.39
-2811.08
2232.95
-3731.59
2431.82
-4212.24
2605.34
-4254.16
2755
-4021.91
2886.29
-3692.62
3000.4
-3285.92
3084.2
-2736.71
3124.81
-2072.86
3128.46
-1416.8
3100.88
-835.857
3021.54
-254.44
2923.99
221.544
2832.43
578.839
2747.24
934.361
2654.25
1249.74
2550.99
1398.35
2448.24
1341.47
2359.08
1141.66
2289.15
908.008
2236.4
739.504
2198.24
688.318
2168.77
761.449
2155.47
828.334
2221.18
547.564
2314.13
-49.687
2318.35
-400.012
2266.84
-872.074
2261.98
-1618.97
1737.75
-1559.73
804.229
1264.46
393.407
3959.82
175.304
5091.28
13.2735
5503.77
-147.15
5524.64
-305.396
5239.58
-419.126
4584.68
-461.04
3656.45
-512.118
2967.84
-650.325
2789.27
-841.978
2872.21
-1036.18
2977.16
-1208.44
2933.84
-1347.79
2669.42
-1477.37
2269.17
-1590.78
1826.19
-1859.85
1144.14
-2194.38
340.768
-2544.48
-160.084
-2913.17
-498.872
-3297.86
-725.776