/*--------------------------------*- C++ -*----------------------------------*\
| =========                 |                                                 |
| \\      /  F ield         | OpenFOAM: The Open Source CFD Toolbox           |
|  \\    /   O peration     | Version:  4.1                                   |
|   \\  /    A nd           | Web:      www.OpenFOAM.org                      |
|    \\/     M anipulation  |                                                 |
\*---------------------------------------------------------------------------*/
FoamFile
{
    version     2.0;
    format      ascii;
    class       volVectorField;
    location    "1100";
    object      U;
}
// * * * * * * * * * * * * * * * * * * * * * * * * * * * * * * * * * * * * * //

dimensions      [0 1 -1 0 0 0 0];

internalField   nonuniform List<vector> 
26785
(
(-8.87522e-16 -0.0657124 11.977)
(-8.75086e-16 -0.0545655 13.3146)
(-9.01625e-16 -0.0441676 14.3616)
(3.30093e-16 -0.0317111 15.1313)
(-1.39755e-15 -0.0188021 15.6285)
(1.02933e-15 -0.00722351 15.8708)
(1.4349e-15 0.000981007 15.9113)
(1.77286e-15 0.00409508 15.8417)
(-3.16542e-16 0.00305138 15.7595)
(4.85222e-16 0.00028917 15.7216)
(-9.94403e-16 -0.00199232 15.7332)
(-1.17521e-15 -0.00267094 15.7681)
(-9.87828e-16 -0.00213795 15.7974)
(-1.70498e-16 -0.0019736 15.8121)
(9.80167e-16 -0.00389845 15.8323)
(1.87729e-15 -0.00903645 15.8997)
(1.88583e-15 -0.0178844 16.0605)
(9.82343e-16 -0.0304567 16.3601)
(-6.22355e-16 -0.0453531 16.837)
(-4.56939e-16 -0.0591456 17.4953)
(-5.52858e-17 -0.0687684 18.2872)
(-4.67393e-16 -0.0734606 19.1389)
(1.35372e-15 -0.074044 19.9865)
(1.62595e-15 -0.0711028 20.7856)
(2.85191e-15 -0.0647958 21.4999)
(3.14959e-15 -0.0556517 22.0986)
(2.55998e-15 -0.044481 22.5635)
(1.53807e-15 -0.0318411 22.8889)
(2.31158e-15 -0.0181852 23.0766)
(4.26702e-15 -0.00380093 23.1312)
(6.28817e-15 0.0107457 23.0579)
(5.05337e-15 0.0246944 22.8661)
(4.54163e-15 0.0369883 22.5689)
(2.60478e-15 0.0463057 22.1874)
(3.58507e-15 0.0519933 21.7507)
(4.23465e-15 0.0544553 21.2873)
(5.58753e-15 0.0543826 20.8197)
(6.84046e-15 0.0519304 20.3664)
(7.27251e-15 0.0466171 19.9498)
(7.05915e-15 0.0372384 19.6061)
(4.90901e-15 0.0215085 19.3944)
(3.7234e-15 -0.00300569 19.3912)
(2.55e-15 -0.0349866 19.6653)
(3.91587e-15 -0.064838 20.2335)
(2.15962e-15 -0.0743054 20.987)
(2.22635e-15 -0.0463087 21.6671)
(3.74364e-15 0.0168991 21.9456)
(5.05678e-15 0.101881 21.5167)
(4.93218e-15 0.177006 20.3201)
(4.76109e-15 0.213984 18.6325)
(5.26177e-15 0.218415 16.8234)
(9.67156e-15 0.205805 15.1105)
(1.23205e-14 0.185742 13.5764)
(1.57379e-14 0.163054 12.2441)
(1.71036e-14 0.14039 11.1113)
(1.75732e-14 0.11967 10.1615)
(8.41558e-15 0.10219 9.36713)
(6.31948e-15 0.0880958 8.69684)
(1.30306e-14 0.07653 8.12406)
(2.10415e-14 0.0664856 7.62815)
(6.25496e-15 0.0546109 7.20975)
(-1.82691e-15 0.0355906 6.89401)
(-3.21906e-15 0.00335315 6.72572)
(1.33521e-15 -0.051028 6.85513)
(-1.01972e-14 -0.104684 7.40113)
(-9.22387e-15 -0.132671 8.23735)
(-7.33231e-15 -0.135337 9.13607)
(-8.05199e-15 -0.125162 9.96177)
(-1.17097e-14 -0.113871 10.6872)
(-1.38902e-14 -0.107727 11.3437)
(-1.77117e-14 -0.106629 11.976)
(-2.21092e-14 -0.106258 12.6097)
(-1.60784e-14 -0.0997941 13.2319)
(-1.16733e-14 -0.081339 13.7897)
(-7.7131e-15 -0.0451596 14.1902)
(-4.05372e-15 0.00314857 14.3349)
(2.94982e-15 0.0512168 14.1805)
(2.49932e-15 0.0843198 13.7754)
(2.58449e-15 0.099639 13.2296)
(2.43727e-15 0.104466 12.6457)
(2.57673e-15 0.103224 12.0683)
(2.74176e-15 0.0944212 11.5198)
(-3.23458e-15 0.073984 11.045)
(-4.73344e-15 0.0390185 10.716)
(-6.04724e-15 -0.00950887 10.6108)
(-1.33153e-14 -0.0711252 10.8015)
(-1.83734e-14 -0.150451 11.3481)
(-1.86289e-14 -0.250982 12.3485)
(-2.12221e-14 -0.355437 13.8836)
(-2.1078e-14 -0.435659 15.901)
(-1.73126e-14 -0.467747 18.2011)
(-1.60575e-14 -0.443762 20.5037)
(-1.56317e-14 -0.37823 22.5481)
(-1.51954e-14 -0.290075 24.1733)
(-1.48618e-14 -0.1796 25.3041)
(-1.32282e-14 -0.0494473 25.8247)
(-1.13577e-14 0.0919865 25.7492)
(-1.00395e-14 0.214788 24.842)
(-8.51087e-15 0.306581 23.9142)
(-6.87018e-15 0.332269 21.4269)
(-8.2271e-16 -0.183987 12.3657)
(5.46669e-16 -0.155671 13.7158)
(-6.74996e-16 -0.126595 14.7669)
(-3.15698e-16 -0.0909009 15.5392)
(-2.48858e-15 -0.0536094 16.0442)
(1.04688e-15 -0.0197699 16.3004)
(-2.74687e-15 0.00462424 16.3577)
(-1.67973e-15 0.0143286 16.3038)
(-7.25729e-16 0.0118527 16.2334)
(-6.58485e-16 0.00427546 16.2019)
(3.03175e-16 -0.00192205 16.2144)
(1.3286e-15 -0.0034652 16.2454)
(2.32493e-15 -0.00154835 16.2672)
(2.58886e-15 -0.000746456 16.2714)
(3.36777e-15 -0.00595872 16.2769)
(2.10752e-15 -0.0203878 16.3229)
(-7.68465e-16 -0.0454786 16.4524)
(-3.34415e-15 -0.0812306 16.7072)
(-4.8425e-15 -0.123285 17.1211)
(-6.33019e-15 -0.161249 17.6956)
(-4.0269e-15 -0.186124 18.3842)
(-5.25185e-15 -0.196025 19.1161)
(-3.86102e-15 -0.193718 19.829)
(-2.54143e-15 -0.181141 20.4773)
(-3.04377e-15 -0.159164 21.023)
(-1.40718e-15 -0.130187 21.4368)
(-7.84192e-16 -0.0976528 21.7075)
(-5.28087e-16 -0.0639588 21.8417)
(-4.66474e-16 -0.0305647 21.8565)
(9.07689e-16 0.00233466 21.7719)
(1.76853e-15 0.0341987 21.6058)
(1.58449e-15 0.0641372 21.3742)
(1.28087e-15 0.0907005 21.0927)
(4.5432e-16 0.111707 20.7769)
(1.25809e-15 0.125705 20.4413)
(8.4748e-16 0.13312 20.0975)
(-3.60201e-16 0.134915 19.7554)
(-1.79382e-15 0.130327 19.4249)
(-3.0584e-15 0.115436 19.1254)
(-4.19781e-15 0.0828248 18.899)
(-5.09914e-15 0.024838 18.8182)
(-6.5594e-15 -0.0601089 18.952)
(-5.96793e-15 -0.160646 19.3391)
(-6.23081e-15 -0.247795 19.9699)
(-4.83813e-15 -0.274107 20.7609)
(-5.06897e-15 -0.18713 21.5285)
(-3.03335e-15 0.0207 21.9647)
(-2.61375e-15 0.309907 21.633)
(2.15955e-16 0.559497 20.4317)
(-2.78776e-16 0.676564 18.6762)
(4.09538e-15 0.684676 16.7914)
(1.00262e-15 0.638214 15.0186)
(4.07722e-15 0.570083 13.4441)
(2.31935e-15 0.49614 12.0877)
(3.61273e-15 0.424396 10.9416)
(1.38718e-14 0.360189 9.98438)
(8.39464e-15 0.306838 9.18488)
(-2.58685e-15 0.264299 8.50947)
(-1.36363e-14 0.229664 7.93079)
(-1.42652e-14 0.199482 7.42825)
(-9.87584e-15 0.163897 7.00382)
(-1.4004e-14 0.108855 6.6807)
(-3.27768e-14 0.0135343 6.48489)
(-1.26283e-14 -0.156824 6.59062)
(1.38851e-14 -0.325356 7.15495)
(2.02765e-14 -0.407552 8.02294)
(2.48754e-14 -0.407779 8.93093)
(2.64934e-14 -0.37051 9.7422)
(2.34078e-14 -0.333324 10.4421)
(1.56977e-14 -0.314029 11.0711)
(2.4281e-14 -0.311519 11.6784)
(2.88493e-14 -0.312891 12.2919)
(2.21109e-14 -0.297175 12.8988)
(1.58018e-14 -0.245467 13.4453)
(1.15714e-14 -0.138952 13.8341)
(1.22233e-14 0.00597232 13.9608)
(2.48247e-15 0.150535 13.7788)
(-7.48673e-17 0.2487 13.3466)
(-3.13805e-15 0.293923 12.7765)
(-9.08348e-15 0.308232 12.1749)
(-6.8103e-15 0.305035 11.5845)
(-1.02228e-14 0.280214 11.0241)
(-1.39222e-14 0.221639 10.5333)
(-9.1038e-15 0.120394 10.1794)
(-8.82422e-15 -0.0215169 10.0319)
(-1.72826e-14 -0.201719 10.1717)
(-2.58769e-14 -0.433482 10.6437)
(-2.89623e-14 -0.729388 11.5437)
(-2.56786e-14 -1.03681 12.9597)
(-2.38545e-14 -1.27181 14.8616)
(-2.32396e-14 -1.36428 17.0678)
(-2.13378e-14 -1.29101 19.2963)
(-1.98901e-14 -1.09671 21.2767)
(-1.59564e-14 -0.838383 22.8511)
(-1.47005e-14 -0.513388 23.954)
(-1.31492e-14 -0.128349 24.4682)
(-9.72853e-15 0.291233 24.4091)
(-9.06004e-15 0.652579 23.528)
(-7.4953e-15 0.91893 22.6298)
(-5.74473e-15 0.985622 20.2149)
(-3.13526e-16 -0.308739 12.5157)
(-3.21471e-16 -0.263837 13.8288)
(4.3503e-16 -0.213929 14.8489)
(-2.31888e-15 -0.154321 15.6011)
(-2.94064e-15 -0.0928617 16.0979)
(7.55542e-16 -0.037088 16.3552)
(-2.02227e-15 0.00338894 16.4196)
(-1.44821e-15 0.0199027 16.3757)
(-1.50509e-15 0.0165016 16.3158)
(-9.92742e-16 0.00475513 16.2943)
(-3.306e-17 -0.00470532 16.3174)
(1.12697e-15 -0.00648488 16.3613)
(1.97551e-15 -0.00249483 16.3986)
(2.03237e-15 -0.000155679 16.4183)
(7.88846e-16 -0.00745528 16.4344)
(1.57868e-16 -0.029653 16.4811)
(-2.44701e-15 -0.0689799 16.5983)
(-2.13059e-15 -0.125205 16.8234)
(-2.78032e-15 -0.191303 17.1891)
(-1.82054e-15 -0.250796 17.7017)
(-4.62727e-16 -0.289316 18.3234)
(-3.62344e-15 -0.303412 18.9873)
(-5.30018e-15 -0.296838 19.6282)
(-2.45929e-15 -0.272262 20.1944)
(-1.24572e-15 -0.23137 20.6425)
(1.37383e-15 -0.179164 20.9409)
(3.02496e-15 -0.122697 21.0799)
(3.31153e-15 -0.0670911 21.0704)
(3.2032e-15 -0.0155482 20.9366)
(3.46972e-15 0.0314703 20.7079)
(4.1742e-15 0.0737137 20.4128)
(3.58245e-15 0.110696 20.0755)
(4.71635e-15 0.141104 19.7182)
(4.95849e-15 0.163285 19.3671)
(3.00961e-15 0.176874 19.0421)
(7.18621e-16 0.183253 18.7499)
(-1.04995e-15 0.183569 18.4885)
(-2.51484e-15 0.175343 18.2545)
(-3.95554e-15 0.150329 18.0538)
(-5.00391e-15 0.0954583 17.9115)
(-4.97665e-15 0.00139414 17.8726)
(-3.62909e-15 -0.129285 17.9747)
(-1.57265e-15 -0.278569 18.2448)
(4.69755e-17 -0.410049 18.6965)
(7.793e-16 -0.462778 19.3095)
(6.45452e-16 -0.349424 20.0019)
(-1.70728e-16 -0.0256517 20.5964)
(-1.47853e-15 0.472067 20.617)
(-2.24757e-15 0.918252 19.7248)
(-1.09255e-15 1.13196 18.1493)
(-1.07296e-15 1.15056 16.3572)
(-1.03809e-15 1.0718 14.6317)
(-1.99931e-16 0.955168 13.0819)
(-4.52256e-16 0.829123 11.7391)
(2.16216e-15 0.70771 10.6012)
(2.97899e-15 0.59993 9.6491)
(-9.28661e-15 0.511047 8.85185)
(-3.1421e-15 0.44054 8.17574)
(-7.19786e-15 0.38315 7.59406)
(-1.47317e-14 0.332781 7.08691)
(-8.76925e-15 0.27412 6.6573)
(-1.63362e-14 0.186938 6.3266)
(-8.09162e-15 0.0323719 6.09316)
(1.1046e-14 -0.262794 6.1673)
(1.14544e-14 -0.555778 6.76174)
(-3.75149e-15 -0.68961 7.66159)
(-2.00939e-15 -0.679086 8.55994)
(-2.18123e-15 -0.60924 9.33411)
(-2.02593e-15 -0.544879 9.99273)
(-5.36653e-16 -0.513797 10.5876)
(-1.67023e-15 -0.512139 11.1666)
(-9.96034e-15 -0.516741 11.7522)
(-2.02071e-14 -0.491497 12.3304)
(-3.14236e-14 -0.405051 12.8503)
(-4.05859e-14 -0.224289 13.21)
(-4.61657e-14 0.0234489 13.2935)
(-4.67691e-14 0.26854 13.0465)
(-4.49031e-14 0.429548 12.5396)
(-4.22012e-14 0.501157 11.8989)
(-3.89395e-14 0.521448 11.24)
(-3.57134e-14 0.513344 10.6035)
(-3.13415e-14 0.47148 10.0035)
(-3.44951e-14 0.376533 9.47248)
(-3.72457e-14 0.214678 9.07194)
(-3.23996e-14 -0.0143993 8.84794)
(-3.14539e-14 -0.304454 8.90288)
(-3.25625e-14 -0.676687 9.26076)
(-3.44228e-14 -1.15775 10.001)
(-3.24941e-14 -1.6657 11.2588)
(-2.83744e-14 -2.06911 13.0759)
(-2.10266e-14 -2.23935 15.2628)
(-1.49608e-14 -2.12614 17.4834)
(-9.69889e-15 -1.80934 19.432)
(-8.35781e-15 -1.39133 20.9635)
(-5.80602e-15 -0.863213 22.0369)
(-4.83762e-15 -0.233836 22.538)
(-9.50337e-16 0.459084 22.4887)
(-7.0652e-16 1.05747 21.6277)
(-5.22375e-16 1.49466 20.7517)
(-3.75465e-16 1.59686 18.4097)
(1.58695e-16 -0.427181 12.4285)
(2.76356e-16 -0.365424 13.7018)
(1.91565e-16 -0.295922 14.7053)
(-1.68721e-15 -0.21425 15.4469)
(-8.92554e-16 -0.130179 15.9311)
(-2.56181e-15 -0.0536765 16.1712)
(-7.57185e-16 0.00179741 16.215)
(1.77621e-15 0.024031 16.15)
(4.51663e-16 0.0186682 16.0721)
(4.87683e-16 0.00172702 16.0381)
(6.60563e-16 -0.0121386 16.0559)
(1.02987e-15 -0.0153556 16.1045)
(1.36704e-15 -0.0101623 16.158)
(5.13337e-16 -0.00631618 16.2029)
(-2.87898e-17 -0.0147004 16.2467)
(-4.64094e-16 -0.0428246 16.3169)
(2.53313e-16 -0.0938822 16.447)
(-1.2761e-16 -0.167796 16.67)
(1.19612e-15 -0.255828 17.0189)
(1.13766e-15 -0.33604 17.5067)
(9.32779e-16 -0.38812 18.1011)
(-1.57558e-15 -0.405897 18.7355)
(-2.77673e-15 -0.393498 19.3418)
(-2.4592e-15 -0.354431 19.8653)
(-1.90805e-15 -0.291605 20.2609)
(-1.64165e-15 -0.213018 20.4967)
(-1.49804e-15 -0.129618 20.5632)
(-1.93172e-15 -0.0494241 20.4728)
(-2.58943e-15 0.022281 20.2506)
(-2.48076e-15 0.0842365 19.9288)
(-3.09179e-15 0.136378 19.5401)
(-4.74133e-15 0.178537 19.1109)
(-4.44942e-15 0.208658 18.6691)
(-3.62771e-15 0.224566 18.2548)
(-1.19266e-15 0.228657 17.8955)
(-2.64559e-15 0.225476 17.5999)
(-2.74278e-15 0.218023 17.3597)
(-3.0307e-15 0.203431 17.1599)
(-4.03998e-15 0.171108 16.9856)
(-7.32403e-16 0.104472 16.8361)
(1.64304e-16 -0.0082373 16.7245)
(5.29493e-16 -0.166337 16.6785)
(1.68772e-15 -0.35286 16.745)
(1.49675e-15 -0.528393 16.9793)
(9.05444e-17 -0.624242 17.4074)
(-2.34279e-16 -0.528709 17.9935)
(-1.57748e-15 -0.153913 18.6525)
(-2.01684e-15 0.520328 18.9937)
(-2.41454e-15 1.18424 18.4606)
(-2.71729e-15 1.52529 17.1545)
(-2.37399e-15 1.5768 15.5482)
(8.64809e-17 1.48008 13.9489)
(-5.57214e-15 1.32364 12.483)
(1.05715e-16 1.15068 11.1955)
(4.26074e-15 0.982704 10.095)
(1.02221e-15 0.833436 9.16878)
(-9.25522e-16 0.710613 8.38952)
(-9.1667e-15 0.613319 7.72515)
(-2.13596e-15 0.53394 7.15082)
(-8.58275e-15 0.463741 6.64735)
(-5.04929e-15 0.383307 6.21873)
(-1.53522e-14 0.269352 5.88485)
(1.24383e-14 0.0608789 5.60864)
(1.78809e-14 -0.373097 5.65708)
(-8.0932e-15 -0.799976 6.28628)
(-4.01022e-14 -0.975424 7.18613)
(-5.45874e-14 -0.941802 8.0304)
(-6.49962e-14 -0.835402 8.73547)
(-6.82771e-14 -0.746239 9.33626)
(-7.02407e-14 -0.706094 9.88415)
(-7.47444e-14 -0.704609 10.4186)
(-7.64773e-14 -0.710493 10.9679)
(-7.93619e-14 -0.675913 11.5297)
(-7.06851e-14 -0.55689 12.0539)
(-6.85949e-14 -0.299188 12.4172)
(-6.73026e-14 0.0610292 12.4756)
(-5.87655e-14 0.414935 12.1629)
(-5.74143e-14 0.637901 11.5609)
(-4.97257e-14 0.732067 10.8225)
(-4.67081e-14 0.753857 10.0778)
(-4.3065e-14 0.736525 9.36478)
(-3.91236e-14 0.675106 8.69373)
(-3.46952e-14 0.543656 8.09214)
(-3.9646e-14 0.327405 7.62213)
(-4.53342e-14 0.0147551 7.29031)
(-4.61651e-14 -0.376055 7.25778)
(-4.88137e-14 -0.871657 7.48534)
(-3.87445e-14 -1.5303 8.05255)
(-2.51789e-14 -2.26869 9.26135)
(-1.23047e-14 -2.88195 11.1502)
(-4.83238e-15 -3.14128 13.4109)
(-1.39667e-15 -2.9718 15.6415)
(-7.64392e-16 -2.51529 17.5262)
(-2.01785e-15 -1.93449 18.9674)
(-9.01275e-16 -1.20414 19.9738)
(-2.22855e-15 -0.333714 20.421)
(-2.28174e-15 0.62731 20.3124)
(-2.98638e-15 1.45242 19.3957)
(3.29999e-16 2.04952 18.5039)
(2.64715e-15 2.17464 16.2413)
(5.42236e-16 -0.541334 12.2219)
(-5.01165e-16 -0.468412 13.5576)
(4.45879e-16 -0.380763 14.5998)
(-1.34712e-15 -0.276013 15.3499)
(-1.36831e-15 -0.167662 15.8193)
(1.55039e-15 -0.068932 16.028)
(1.06375e-15 0.00243954 16.0286)
(1.38295e-15 0.0304745 15.9145)
(3.07695e-16 0.0225369 15.7878)
(-5.83839e-16 -0.000710223 15.7096)
(-8.60051e-16 -0.020517 15.6907)
(-1.976e-15 -0.0271025 15.7123)
(-1.12681e-15 -0.0227992 15.7517)
(-2.06917e-15 -0.0191667 15.7964)
(-1.40625e-15 -0.0294501 15.8515)
(1.19853e-16 -0.0632249 15.9387)
(1.10558e-15 -0.124749 16.0857)
(1.56268e-15 -0.214566 16.3201)
(1.04087e-15 -0.3229 16.6728)
(-1.93449e-16 -0.422563 17.1589)
(-1.3139e-15 -0.487079 17.7506)
(-2.37431e-15 -0.507342 18.3845)
(-2.60914e-15 -0.487852 18.9913)
(-2.56114e-15 -0.432955 19.5126)
(-1.16673e-15 -0.346768 19.8998)
(-1.71085e-16 -0.240335 20.1186)
(3.12595e-15 -0.128575 20.1594)
(2.81107e-15 -0.0223632 20.035)
(9.52924e-16 0.0708602 19.7711)
(1.08225e-16 0.148959 19.4013)
(-6.92221e-16 0.212033 18.9581)
(-1.22763e-15 0.260112 18.4635)
(-7.61956e-16 0.288681 17.9552)
(-1.48899e-15 0.295465 17.4799)
(1.58623e-16 0.286215 17.0692)
(3.12775e-15 0.269496 16.7353)
(4.7806e-15 0.251497 16.4673)
(5.2631e-15 0.230981 16.2415)
(5.25256e-15 0.196503 16.0235)
(4.68375e-15 0.128126 15.7952)
(3.15653e-15 0.0096951 15.5517)
(9.29212e-16 -0.165144 15.3191)
(1.73622e-15 -0.385626 15.1666)
(7.35475e-16 -0.610016 15.1893)
(2.19386e-15 -0.761162 15.4474)
(2.17231e-15 -0.704824 15.925)
(7.76534e-16 -0.319648 16.5835)
(-1.08131e-15 0.487867 17.1593)
(-2.28353e-15 1.37015 16.9315)
(-3.33418e-15 1.85264 15.8853)
(-3.00589e-15 1.9516 14.4837)
(-1.92188e-15 1.8498 13.0426)
(-2.82278e-15 1.66378 11.6928)
(-2.88718e-16 1.45128 10.4887)
(-1.41618e-15 1.24176 9.44867)
(-1.21566e-15 1.05454 8.56796)
(6.14171e-15 0.900458 7.82344)
(7.87937e-15 0.778388 7.18516)
(9.14218e-15 0.678562 6.63031)
(2.97091e-15 0.589551 6.14032)
(-8.83752e-15 0.489626 5.72015)
(-5.5327e-15 0.355661 5.38614)
(2.69317e-14 0.099058 5.06889)
(6.14388e-15 -0.488088 5.09418)
(-3.43599e-14 -1.04721 5.71143)
(-7.02157e-14 -1.24726 6.53364)
(-8.77511e-14 -1.18239 7.26572)
(-9.06308e-14 -1.04234 7.87163)
(-1.00564e-13 -0.932722 8.39737)
(-9.69249e-14 -0.884861 8.88963)
(-9.74525e-14 -0.887426 9.40096)
(-8.72758e-14 -0.905959 9.97542)
(-7.42805e-14 -0.874629 10.5943)
(-5.12472e-14 -0.729111 11.1772)
(-3.84197e-14 -0.387413 11.5748)
(-3.03009e-14 0.103326 11.6246)
(-2.90324e-14 0.582808 11.2529)
(-2.62308e-14 0.873517 10.5489)
(-2.30261e-14 0.991641 9.70294)
(-2.48895e-14 1.0142 8.86008)
(-2.29047e-14 0.986918 8.05363)
(-3.80966e-14 0.906394 7.28923)
(-4.84032e-14 0.738521 6.59284)
(-3.82546e-14 0.474484 6.03162)
(-5.19767e-14 0.0773417 5.57926)
(-6.80428e-14 -0.399684 5.42712)
(-5.54798e-14 -1.00796 5.46149)
(-2.87729e-14 -1.89088 5.98556)
(-9.63378e-15 -2.92469 7.36555)
(-1.23931e-15 -3.75184 9.37288)
(7.32706e-16 -4.06405 11.6401)
(-2.38785e-15 -3.79896 13.7916)
(-3.65425e-15 -3.18414 15.5219)
(-4.58105e-15 -2.45066 16.8001)
(-5.56945e-15 -1.52976 17.7194)
(-6.99495e-15 -0.412293 18.1526)
(-1.03481e-14 0.832203 18.001)
(-8.35383e-15 1.86985 16.9487)
(-1.7386e-15 2.58809 15.9512)
(3.70471e-15 2.70409 13.7644)
(3.75951e-16 -0.68189 12.119)
(-6.44177e-16 -0.581238 13.5471)
(1.5272e-16 -0.467225 14.6036)
(-1.55778e-15 -0.335463 15.3329)
(-1.35065e-15 -0.200801 15.7681)
(-5.42846e-16 -0.0784908 15.9361)
(-3.82276e-16 0.00976885 15.89)
(-2.98207e-16 0.0440491 15.7237)
(2.39692e-16 0.03338 15.5421)
(1.77305e-15 0.00316343 15.4098)
(1.39213e-15 -0.0236599 15.3399)
(-3.99607e-16 -0.0351225 15.3162)
(-1.10816e-15 -0.0336821 15.3185)
(-2.09691e-15 -0.0324711 15.3373)
(-2.15722e-15 -0.046628 15.378)
(-1.26976e-15 -0.0874785 15.4611)
(-4.54338e-16 -0.160166 15.6116)
(3.07565e-16 -0.265788 15.8518)
(-2.11103e-16 -0.393921 16.2077)
(-2.28228e-15 -0.51291 16.6995)
(-3.35491e-15 -0.590483 17.3124)
(-1.42011e-15 -0.613931 17.9843)
(-9.78114e-16 -0.587254 18.6345)
(-1.64899e-15 -0.515325 19.1922)
(3.04971e-16 -0.40374 19.602)
(3.18973e-15 -0.267134 19.8285)
(4.58796e-15 -0.124787 19.8645)
(5.83547e-15 0.00956112 19.7253)
(5.53831e-15 0.126107 19.4379)
(6.89923e-15 0.222418 19.0393)
(6.23225e-15 0.298835 18.5555)
(5.82012e-15 0.354766 18.0067)
(5.60781e-15 0.382203 17.4422)
(5.74622e-15 0.379795 16.9067)
(5.71637e-15 0.356231 16.4346)
(2.28539e-15 0.324569 16.0418)
(-1.3794e-15 0.295518 15.7169)
(-3.33973e-15 0.271006 15.4285)
(-2.91532e-15 0.239561 15.1317)
(-2.96912e-15 0.17778 14.7966)
(-1.45581e-15 0.0637018 14.413)
(1.81766e-15 -0.119518 14.0022)
(4.50178e-15 -0.372439 13.6457)
(9.32337e-15 -0.651487 13.4769)
(9.98921e-15 -0.870248 13.5846)
(1.12253e-14 -0.874232 13.9507)
(9.06728e-15 -0.513917 14.5665)
(3.47303e-15 0.386031 15.2944)
(-7.19813e-16 1.48565 15.3053)
(-2.64409e-15 2.11767 14.4819)
(-2.18446e-15 2.27325 13.2708)
(-3.12296e-15 2.17627 11.9906)
(-3.85258e-15 1.96992 10.7681)
(-3.99632e-15 1.72528 9.66145)
(-4.47574e-15 1.47957 8.69685)
(-9.8427e-16 1.25836 7.87651)
(3.80313e-15 1.07621 7.18087)
(9.02495e-15 0.931916 6.58128)
(9.8821e-15 0.813747 6.05636)
(3.82971e-15 0.707419 5.58865)
(2.63759e-15 0.591478 5.18168)
(1.10638e-14 0.444542 4.85002)
(2.78155e-14 0.147606 4.50372)
(-3.25529e-15 -0.594678 4.47504)
(-3.69126e-14 -1.27162 4.98874)
(-4.53271e-14 -1.48334 5.65047)
(-5.45572e-14 -1.38934 6.2282)
(-6.76223e-14 -1.22445 6.72224)
(-7.75108e-14 -1.10382 7.18327)
(-7.20596e-14 -1.06341 7.67021)
(-6.36767e-14 -1.09162 8.24324)
(-4.5526e-14 -1.13755 8.90714)
(-3.262e-14 -1.10785 9.58374)
(-1.84762e-14 -0.926249 10.1846)
(-1.27586e-14 -0.485661 10.5804)
(2.82442e-17 0.156454 10.6084)
(-3.35366e-16 0.776649 10.1819)
(-1.50833e-16 1.13829 9.38446)
(2.69822e-15 1.28147 8.44668)
(-2.27592e-15 1.30272 7.51998)
(-8.29443e-15 1.26383 6.63008)
(-2.23251e-14 1.16575 5.77656)
(-3.40661e-14 0.962919 4.98586)
(-2.43254e-14 0.654194 4.32781)
(-1.67897e-14 0.17331 3.77475)
(-3.76517e-14 -0.359897 3.34758)
(-2.42743e-14 -1.15184 3.29373)
(-6.49374e-15 -2.34556 4.09094)
(1.11769e-15 -3.64727 5.64264)
(1.63247e-15 -4.62334 7.59482)
(-9.76109e-16 -4.95162 9.73824)
(-5.79704e-15 -4.56367 11.7022)
(-5.85874e-15 -3.78199 13.1557)
(-8.94986e-15 -2.9278 14.1552)
(-1.66208e-14 -1.87053 14.921)
(-1.80069e-14 -0.523969 15.393)
(-1.93022e-14 1.05262 15.3866)
(-1.623e-14 2.33676 14.2938)
(-1.10815e-14 3.13694 13.1509)
(-1.74847e-16 3.1845 11.0179)
(-3.38381e-16 -0.815919 12.135)
(-5.63321e-16 -0.690987 13.5497)
(-1.44201e-15 -0.550561 14.5547)
(-2.08299e-15 -0.392152 15.2319)
(-1.94186e-15 -0.231681 15.6239)
(-2.52004e-16 -0.0858669 15.756)
(2.01281e-16 0.0197036 15.6756)
(9.79343e-16 0.0608037 15.4725)
(2.66677e-15 0.047899 15.2512)
(3.93008e-15 0.0109807 15.0775)
(2.18247e-15 -0.0228868 14.9662)
(1.97468e-15 -0.0396044 14.902)
(1.15015e-15 -0.0418521 14.8663)
(9.32928e-16 -0.0443046 14.8516)
(9.45904e-16 -0.063802 14.865)
(1.99212e-15 -0.113279 14.9287)
(8.6698e-16 -0.198321 15.0686)
(-1.50514e-15 -0.320192 15.3019)
(-1.83212e-15 -0.468889 15.6539)
(-2.31872e-15 -0.609706 16.1657)
(1.14883e-16 -0.703644 16.8379)
(2.76825e-15 -0.731789 17.59)
(2.02392e-15 -0.696698 18.3111)
(1.92883e-15 -0.604806 18.9154)
(2.67942e-15 -0.464564 19.3479)
(3.50218e-15 -0.29504 19.5798)
(6.309e-15 -0.120028 19.6105)
(1.00706e-14 0.0441349 19.4584)
(9.32372e-15 0.185105 19.1528)
(9.24179e-15 0.30143 18.7323)
(1.03881e-14 0.393712 18.208)
(9.7774e-15 0.45863 17.6106)
(8.87295e-15 0.486006 16.9901)
(8.10453e-15 0.475422 16.3909)
(7.60546e-15 0.43793 15.8504)
(6.56713e-15 0.391154 15.3882)
(5.76462e-15 0.35155 14.9972)
(5.8374e-15 0.325204 14.6433)
(5.87185e-15 0.300504 14.2742)
(4.48744e-15 0.250458 13.8498)
(4.52334e-15 0.147589 13.3574)
(4.80496e-15 -0.0365366 12.8063)
(9.84827e-15 -0.320061 12.2789)
(1.29077e-14 -0.658512 11.9537)
(1.54957e-14 -0.951472 11.9453)
(1.62003e-14 -1.02627 12.2026)
(1.46807e-14 -0.713616 12.7288)
(5.50309e-15 0.238252 13.5085)
(5.10826e-16 1.5473 13.6773)
(-3.14936e-15 2.32976 13.0312)
(-5.93284e-16 2.54585 11.9848)
(2.45543e-16 2.46006 10.8553)
(3.01982e-15 2.24058 9.759)
(-6.19564e-16 1.97008 8.75418)
(-3.15373e-15 1.69288 7.87291)
(-3.70002e-15 1.44146 7.12301)
(-2.25417e-15 1.23459 6.48684)
(5.5313e-15 1.0711 5.93538)
(9.3372e-15 0.937287 5.44808)
(-1.58464e-15 0.816192 5.00881)
(4.50815e-15 0.688447 4.6157)
(1.33181e-14 0.534896 4.29368)
(8.76391e-15 0.212708 3.93173)
(-1.99428e-14 -0.670664 3.81882)
(-2.46606e-14 -1.44854 4.16587)
(-1.53344e-14 -1.66961 4.61375)
(-2.24671e-14 -1.55949 5.01753)
(-4.22576e-14 -1.38862 5.41387)
(-4.32699e-14 -1.28042 5.85943)
(-4.26931e-14 -1.27177 6.40659)
(-3.97783e-14 -1.33426 7.05788)
(-1.79147e-14 -1.39367 7.74874)
(-8.58959e-15 -1.34584 8.37716)
(9.08438e-15 -1.12491 8.91222)
(1.88068e-14 -0.590847 9.27025)
(1.54873e-14 0.218225 9.2763)
(1.63176e-14 0.988982 8.82752)
(1.96587e-14 1.41743 7.96872)
(1.89763e-14 1.58841 6.97283)
(1.12274e-14 1.61159 5.98636)
(9.46484e-15 1.56276 5.02849)
(2.26572e-15 1.449 4.09598)
(-3.08798e-15 1.21636 3.21723)
(1.26962e-14 0.873206 2.45917)
(1.15176e-14 0.366574 1.87541)
(1.85836e-14 -0.254229 1.12163)
(3.86547e-15 -1.31402 1.42603)
(-1.03111e-15 -2.81966 2.41455)
(2.67097e-15 -4.32943 3.86489)
(3.06359e-15 -5.43578 5.62468)
(-5.69538e-15 -5.76888 7.56032)
(-9.1075e-15 -5.21981 9.22121)
(-1.06586e-14 -4.25189 10.2577)
(-2.04419e-14 -3.31563 10.8432)
(-2.93565e-14 -2.21367 11.3265)
(-4.03763e-14 -0.746188 11.7056)
(-4.0065e-14 1.17336 12.0383)
(-3.34769e-14 2.79623 11.2012)
(-2.08485e-14 3.68608 10.0512)
(-4.86299e-15 3.61208 8.02055)
(-2.25075e-15 -0.957189 12.1034)
(-1.8099e-15 -0.80089 13.4491)
(-2.32007e-15 -0.631558 14.3802)
(-2.7822e-15 -0.447233 15.0028)
(-1.98713e-15 -0.262107 15.3572)
(-1.50478e-15 -0.0933576 15.4617)
(-1.71763e-15 0.0296044 15.357)
(7.07692e-16 0.0778976 15.1296)
(-2.00684e-16 0.0632639 14.8835)
(4.46476e-16 0.0201613 14.6848)
(1.04561e-15 -0.0202692 14.5481)
(1.60094e-15 -0.0418245 14.4571)
(1.78031e-15 -0.0475726 14.392)
(1.54549e-15 -0.0538894 14.346)
(1.1379e-15 -0.0793851 14.3278)
(-5.59764e-16 -0.138652 14.364)
(-1.67455e-15 -0.237116 14.4835)
(-1.66467e-15 -0.376287 14.6978)
(1.52515e-16 -0.548906 15.0457)
(1.77379e-15 -0.71762 15.6069)
(2.31623e-15 -0.832339 16.3785)
(3.24557e-15 -0.864412 17.2271)
(1.28148e-15 -0.816626 18.0051)
(1.81497e-16 -0.700296 18.6277)
(8.79898e-16 -0.528315 19.057)
(1.28582e-15 -0.324198 19.2786)
(4.19612e-15 -0.115526 19.2996)
(4.04178e-15 0.0792727 19.1381)
(3.99118e-15 0.245543 18.8255)
(4.0537e-15 0.384141 18.3938)
(4.05777e-15 0.495228 17.8404)
(4.3413e-15 0.571004 17.2056)
(4.71771e-15 0.600365 16.5342)
(4.73527e-15 0.583091 15.8735)
(5.0554e-15 0.532262 15.2658)
(3.41857e-15 0.46987 14.7351)
(2.47322e-15 0.418489 14.2811)
(1.55611e-15 0.389999 13.8747)
(1.13648e-15 0.374021 13.4599)
(1.85043e-15 0.33939 12.9847)
(4.57813e-15 0.25409 12.4264)
(6.85301e-15 0.0778677 11.7766)
(1.19192e-14 -0.233712 11.1188)
(1.44757e-14 -0.636767 10.686)
(1.84342e-14 -1.00652 10.6039)
(1.92139e-14 -1.15386 10.7576)
(1.73872e-14 -0.90037 11.1521)
(1.24524e-14 0.0689114 11.8784)
(5.40037e-15 1.57342 12.1056)
(-1.56034e-15 2.49973 11.5857)
(4.2114e-17 2.77549 10.6752)
(1.71711e-15 2.70413 9.68103)
(5.62947e-15 2.47663 8.70385)
(3.66009e-15 2.18507 7.7995)
(7.43713e-16 1.88005 7.00466)
(-8.77535e-16 1.60164 6.3315)
(2.10043e-16 1.3734 5.76217)
(-2.82098e-15 1.19386 5.26515)
(1.76943e-15 1.04708 4.82024)
(-4.98523e-15 0.913823 4.41159)
(1.55235e-14 0.777251 4.03193)
(2.83665e-14 0.622144 3.72809)
(1.3951e-14 0.290681 3.3659)
(-3.42624e-14 -0.709811 3.21075)
(-2.49704e-14 -1.56378 3.37494)
(-1.1839e-14 -1.79538 3.57019)
(-2.87162e-14 -1.69313 3.79382)
(-3.30975e-14 -1.54691 4.11662)
(-3.02484e-14 -1.47649 4.57119)
(-2.52158e-14 -1.50519 5.15386)
(-6.48871e-15 -1.58464 5.78692)
(1.17193e-14 -1.63353 6.39064)
(2.75374e-14 -1.55777 6.87454)
(4.21392e-14 -1.31784 7.29492)
(4.99797e-14 -0.719433 7.56942)
(5.58553e-14 0.251772 7.54348)
(4.14045e-14 1.19586 7.1325)
(3.33871e-14 1.69758 6.26974)
(2.8621e-14 1.89808 5.2732)
(2.10448e-14 1.92299 4.26174)
(1.19225e-14 1.87616 3.25028)
(4.53398e-15 1.7511 2.24259)
(-1.85053e-15 1.46251 1.3014)
(1.39756e-14 1.046 0.532634)
(4.08283e-14 0.563384 -0.0792331)
(2.40864e-14 -0.0170885 -0.787545)
(-5.61555e-15 -1.43296 -0.210263)
(1.66429e-15 -3.23784 0.639981)
(2.29807e-15 -4.95198 1.90944)
(-4.17373e-16 -6.1759 3.43403)
(-8.36802e-15 -6.47553 5.06519)
(-1.01965e-14 -5.71314 6.33795)
(-1.66571e-14 -4.5477 6.91699)
(-3.6347e-14 -3.56503 7.07071)
(-5.05477e-14 -2.43409 7.23093)
(-6.58243e-14 -1.0026 7.17136)
(-6.10092e-14 1.09407 7.78396)
(-4.5723e-14 3.11514 7.50219)
(-3.06712e-14 4.1625 6.58004)
(-9.17671e-15 3.9631 4.77617)
(-3.6989e-15 -1.0916 12.0252)
(-3.05085e-15 -0.903285 13.2796)
(-3.82461e-15 -0.708029 14.1409)
(-2.83419e-15 -0.500394 14.7174)
(-9.09701e-16 -0.292072 15.0375)
(-8.57473e-16 -0.101043 15.1127)
(-3.17577e-15 0.039077 14.9809)
(-1.64334e-15 0.0943838 14.7286)
(-8.53977e-16 0.0779516 14.4613)
(-9.47881e-16 0.0287598 14.2451)
(5.60213e-16 -0.0178862 14.0937)
(1.30346e-15 -0.0435762 13.9886)
(2.03599e-15 -0.0519018 13.9067)
(2.26785e-15 -0.0612727 13.8382)
(2.06967e-15 -0.0925306 13.7912)
(1.73048e-15 -0.162124 13.7984)
(1.02654e-15 -0.274565 13.889)
(2.42858e-15 -0.433023 14.0705)
(3.7897e-15 -0.636194 14.4225)
(2.89066e-15 -0.840895 15.0679)
(2.33597e-15 -0.978095 15.9533)
(2.41783e-15 -1.00866 16.8687)
(-4.18414e-17 -0.941649 17.6504)
(1.92518e-15 -0.79736 18.2429)
(7.10073e-16 -0.593161 18.6377)
(-1.02362e-15 -0.355524 18.8355)
(-4.13713e-15 -0.114368 18.8468)
(-2.45575e-15 0.110213 18.6863)
(-9.13396e-16 0.30218 18.3858)
(-6.10623e-16 0.465099 17.9615)
(3.79487e-15 0.59777 17.4053)
(6.05118e-15 0.687799 16.7545)
(8.1712e-15 0.722399 16.0485)
(9.51874e-15 0.700483 15.3391)
(9.68108e-15 0.637299 14.675)
(8.01726e-15 0.559096 14.0857)
(7.25161e-15 0.493941 13.5772)
(6.93715e-15 0.460856 13.1293)
(8.01634e-15 0.45322 12.6878)
(9.82154e-15 0.435155 12.1964)
(1.13991e-14 0.372971 11.6215)
(1.11961e-14 0.213957 10.9183)
(1.36072e-14 -0.124104 10.1789)
(1.63868e-14 -0.59608 9.69137)
(2.172e-14 -1.0381 9.56325)
(2.38028e-14 -1.25017 9.60999)
(2.12277e-14 -1.05676 9.84719)
(1.47558e-14 -0.0939301 10.4437)
(6.78339e-15 1.58488 10.6228)
(-1.06897e-16 2.63888 10.1758)
(-2.01061e-15 2.96861 9.37329)
(1.55195e-15 2.91228 8.49824)
(3.763e-15 2.68009 7.63044)
(5.25897e-15 2.3708 6.82195)
(4.68489e-15 2.04042 6.11358)
(5.30302e-15 1.73765 5.5208)
(5.14967e-15 1.49144 5.02294)
(-4.75027e-16 1.29967 4.5838)
(1.11065e-14 1.14446 4.1826)
(8.7716e-15 1.00368 3.80334)
(1.18623e-14 0.860995 3.43792)
(1.3979e-14 0.708555 3.15407)
(-1.55406e-14 0.365723 2.82251)
(-6.65683e-14 -0.723685 2.72189)
(-1.59867e-14 -1.60536 2.69939)
(-1.11823e-14 -1.84817 2.62389)
(-2.70994e-14 -1.78531 2.67307)
(-4.07431e-14 -1.69312 2.91914)
(-1.82955e-14 -1.67191 3.33667)
(-2.66567e-15 -1.7277 3.86055)
(1.20371e-14 -1.80586 4.37019)
(3.26829e-14 -1.82911 4.8139)
(5.28042e-14 -1.7271 5.09995)
(7.50329e-14 -1.47968 5.37379)
(8.46032e-14 -0.80504 5.38992)
(7.79184e-14 0.25841 5.27202)
(6.699e-14 1.32385 5.01143)
(5.21998e-14 1.92983 4.241)
(3.43715e-14 2.20716 3.33688)
(2.97684e-14 2.24065 2.33991)
(5.50041e-15 2.18685 1.30493)
(-9.27845e-15 2.08427 0.204969)
(2.7843e-17 1.77778 -1.05713)
(1.17949e-14 1.23403 -2.47312)
(-1.28742e-14 0.516101 -3.45648)
(-3.04694e-14 -0.603209 -3.29989)
(-3.38504e-15 -2.00912 -2.15247)
(3.4393e-15 -3.73944 -1.29741)
(2.85773e-15 -5.53647 -0.217862)
(-1.7465e-15 -6.81778 1.02194)
(-1.11888e-14 -7.04605 2.28512)
(-1.29047e-14 -6.04336 3.20449)
(-2.64478e-14 -4.69211 3.46515)
(-4.23115e-14 -3.70781 3.33011)
(-4.67925e-14 -2.54629 3.27422)
(-6.69602e-14 -1.19689 2.81901)
(-7.91046e-14 0.884575 3.10618)
(-5.56353e-14 3.2309 3.33593)
(-3.87409e-14 4.46907 2.78009)
(-1.21767e-14 4.18728 1.30824)
(-4.49202e-15 -1.21938 11.9312)
(-4.16539e-15 -1.00059 13.11)
(-3.62602e-15 -0.780956 13.9148)
(-3.12191e-15 -0.550803 14.4451)
(-1.77086e-15 -0.31973 14.7216)
(-8.65399e-16 -0.10683 14.7542)
(1.90344e-15 0.049904 14.5817)
(8.5247e-16 0.111351 14.2932)
(1.40147e-15 0.0922115 13.9974)
(1.94691e-15 0.0361849 13.7611)
(1.3169e-15 -0.0171153 13.5973)
(2.28637e-15 -0.046816 13.4854)
(2.67051e-15 -0.0568708 13.3982)
(2.55262e-15 -0.0679445 13.3194)
(3.02369e-15 -0.103837 13.2539)