/*--------------------------------*- C++ -*----------------------------------*\
| =========                 |                                                 |
| \\      /  F ield         | OpenFOAM: The Open Source CFD Toolbox           |
|  \\    /   O peration     | Version:  4.1                                   |
|   \\  /    A nd           | Web:      www.OpenFOAM.org                      |
|    \\/     M anipulation  |                                                 |
\*---------------------------------------------------------------------------*/
FoamFile
{
    version     2.0;
    format      ascii;
    class       volScalarField;
    location    "1800";
    object      p;
}
// * * * * * * * * * * * * * * * * * * * * * * * * * * * * * * * * * * * * * //

dimensions      [0 2 -2 0 0 0 0];

internalField   nonuniform List<scalar> 
6820
(
-8.24312
-8.50068
-8.5983
-8.61902
-8.65226
-8.69759
-8.73922
-8.7754
-8.80914
-8.84127
-8.87136
-8.89927
-8.92527
-8.94961
-8.97247
-8.99403
-9.01443
-9.03384
-9.05238
-9.07018
-9.08735
-9.10397
-9.12012
-9.1359
-9.15136
-9.16656
-9.18157
-9.19643
-9.21125
-9.22588
-9.24127
-9.25514
-9.28528
-8.35591
-8.52196
-8.60068
-8.62158
-8.64852
-8.68379
-8.71542
-8.74236
-8.76768
-8.79244
-8.81633
-8.83924
-8.86131
-8.88271
-8.90348
-8.92367
-8.94332
-8.96247
-8.98118
-8.99948
-9.01741
-9.03501
-9.05231
-9.06935
-9.08617
-9.1028
-9.11928
-9.13564
-9.15194
-9.16817
-9.18456
-9.20108
-9.2178
-8.41216
-8.51687
-8.5949
-8.62682
-8.65503
-8.68824
-8.71871
-8.74504
-8.76968
-8.79362
-8.81665
-8.83864
-8.85973
-8.88006
-8.8997
-8.91869
-8.9371
-8.95499
-8.9724
-8.9894
-9.00602
-9.02232
-9.03832
-9.05407
-9.06962
-9.08499
-9.10023
-9.11537
-9.13047
-9.1455
-9.16069
-9.17558
-9.19111
-8.46195
-8.53694
-8.6096
-8.64477
-8.67225
-8.70383
-8.73387
-8.76022
-8.78462
-8.80806
-8.83044
-8.8517
-8.87199
-8.89149
-8.91027
-8.92842
-8.94601
-8.9631
-8.97975
-8.99601
-9.01193
-9.02755
-9.04292
-9.05806
-9.07303
-9.08784
-9.10253
-9.11715
-9.13172
-9.14627
-9.16087
-9.17545
-9.19011
-8.50344
-8.55467
-8.61488
-8.64975
-8.677
-8.70726
-8.73651
-8.76255
-8.7867
-8.80992
-8.8322
-8.85348
-8.8739
-8.89357
-8.91258
-8.93098
-8.94882
-8.96617
-8.98306
-8.99955
-9.01568
-9.03148
-9.047
-9.06227
-9.07732
-9.09219
-9.10692
-9.12153
-9.13607
-9.15056
-9.16506
-9.17957
-9.19417
-8.53823
-8.57408
-8.62493
-8.66022
-8.68788
-8.71694
-8.7453
-8.77102
-8.79499
-8.818
-8.84007
-8.86117
-8.88139
-8.90085
-8.91961
-8.93775
-8.95533
-8.97239
-8.98899
-9.00519
-9.02103
-9.03654
-9.05176
-9.06674
-9.08151
-9.09609
-9.11053
-9.12485
-9.13909
-9.15329
-9.16747
-9.1817
-9.19604
-8.56807
-8.59363
-8.63553
-8.6687
-8.69519
-8.72229
-8.7492
-8.77413
-8.79751
-8.81999
-8.84162
-8.86238
-8.88234
-8.90161
-8.92025
-8.93832
-8.95586
-8.97293
-8.98956
-9.0058
-9.02169
-9.03727
-9.05256
-9.06759
-9.0824
-9.09702
-9.11148
-9.1258
-9.14001
-9.15415
-9.16825
-9.18235
-9.1965
-8.59401
-8.61259
-8.64701
-8.67786
-8.70359
-8.72947
-8.75538
-8.77979
-8.80281
-8.82496
-8.84634
-8.8669
-8.88671
-8.90584
-8.92436
-8.94231
-8.95972
-8.97666
-8.99316
-9.00926
-9.02499
-9.0404
-9.05551
-9.07035
-9.08496
-9.09936
-9.11359
-9.12766
-9.1416
-9.15544
-9.16921
-9.18293
-9.19663
-8.61686
-8.6307
-8.659
-8.6871
-8.71156
-8.73587
-8.76034
-8.78376
-8.80604
-8.82754
-8.84836
-8.86847
-8.88789
-8.9067
-8.92494
-8.94265
-8.95986
-8.97663
-8.99299
-9.00897
-9.0246
-9.03991
-9.05493
-9.0697
-9.08422
-9.09854
-9.11266
-9.12662
-9.14043
-9.15411
-9.16768
-9.18116
-9.19456
-8.63724
-8.64778
-8.67113
-8.69644
-8.71953
-8.74247
-8.76572
-8.78833
-8.81005
-8.83109
-8.85153
-8.87133
-8.89052
-8.90913
-8.92721
-8.94478
-8.96188
-8.97854
-8.99478
-9.01065
-9.02617
-9.04136
-9.05625
-9.07087
-9.08524
-9.09937
-9.1133
-9.12703
-9.14059
-9.15398
-9.16723
-9.18032
-9.19325
-8.65557
-8.66377
-8.68319
-8.70583
-8.72743
-8.749
-8.77096
-8.79259
-8.81354
-8.83392
-8.85378
-8.8731
-8.89186
-8.91011
-8.92786
-8.94514
-8.96198
-8.9784
-8.99443
-9.01009
-9.02542
-9.04043
-9.05514
-9.06959
-9.08378
-9.09773
-9.11146
-9.12499
-9.13832
-9.15146
-9.16442
-9.1772
-9.18979
-8.67218
-8.6787
-8.69498
-8.71516
-8.73523
-8.75548
-8.77623
-8.7969
-8.81713
-8.83691
-8.85628
-8.87519
-8.89362
-8.91158
-8.92909
-8.94617
-8.96283
-8.97909
-8.99497
-9.0105
-9.02569
-9.04056
-9.05514
-9.06943
-9.08346
-9.09723
-9.11077
-9.12408
-9.13716
-9.15003
-9.16268
-9.1751
-9.18726
-8.68732
-8.69258
-8.70637
-8.72434
-8.74291
-8.76189
-8.78146
-8.80117
-8.82062
-8.83974
-8.85853
-8.87695
-8.89495
-8.91253
-8.9297
-8.94646
-8.96284
-8.97884
-8.99447
-9.00977
-9.02473
-9.03938
-9.05373
-9.0678
-9.0816
-9.09514
-9.10842
-9.12147
-9.13428
-9.14685
-9.15917
-9.17125
-9.18305
-8.70115
-8.70545
-8.71726
-8.73328
-8.75042
-8.76818
-8.78664
-8.80539
-8.82407
-8.84255
-8.86078
-8.87872
-8.89631
-8.91354
-8.9304
-8.9469
-8.96304
-8.97882
-8.99425
-9.00935
-9.02413
-9.03861
-9.05278
-9.06666
-9.08027
-9.09361
-9.10669
-9.1195
-9.13206
-9.14435
-9.15638
-9.16812
-9.17955
-8.71381
-8.71737
-8.72757
-8.74191
-8.7577
-8.77431
-8.79171
-8.80955
-8.82746
-8.84528
-8.86294
-8.88037
-8.89753
-8.91437
-8.93088
-8.94705
-8.96289
-8.9784
-8.99357
-9.00842
-9.02295
-9.03718
-9.05111
-9.06475
-9.07811
-9.09118
-9.10399
-9.11652
-9.12878
-9.14076
-9.15245
-9.16386
-9.17494
-8.7254
-8.72837
-8.73728
-8.75017
-8.76471
-8.78025
-8.79665
-8.81361
-8.83077
-8.84794
-8.86503
-8.88197
-8.89869
-8.91514
-8.93131
-8.94717
-8.96273
-8.97797
-8.9929
-9.00751
-9.02182
-9.03583
-9.04955
-9.06297
-9.0761
-9.08895
-9.10151
-9.11379
-9.12579
-9.13749
-9.1489
-9.15999
-9.17075
-8.73598
-8.73849
-8.74633
-8.75798
-8.7714
-8.78593
-8.80142
-8.81754
-8.83397
-8.85051
-8.86704
-8.88349
-8.89976
-8.91582
-8.93162
-8.94716
-8.96241
-8.97736
-8.99202
-9.00637
-9.02042
-9.03418
-9.04763
-9.0608
-9.07367
-9.08625
-9.09853
-9.11053
-9.12223
-9.13363
-9.14472
-9.15549
-9.16593
-8.74561
-8.74774
-8.75471
-8.7653
-8.77772
-8.79133
-8.80596
-8.8213
-8.83704
-8.85297
-8.86896
-8.88491
-8.90075
-8.91641
-8.93186
-8.94706
-8.96201
-8.97668
-8.99106
-9.00516
-9.01896
-9.03246
-9.04568
-9.0586
-9.07122
-9.08355
-9.09558
-9.10732
-9.11875
-9.12987
-9.14067
-9.15116
-9.16129
-8.75433
-8.75614
-8.7624
-8.77208
-8.78361
-8.7964
-8.81024
-8.82485
-8.83994
-8.85528
-8.87075
-8.88622
-8.90163
-8.91691
-8.932
-8.94687
-8.96151
-8.97588
-8.98999
-9.00381
-9.01734
-9.03059
-9.04354
-9.0562
-9.06856
-9.08062
-9.09238
-9.10383
-9.11498
-9.12581
-9.13632
-9.14651
-9.15635
-8.76216
-8.76371
-8.76938
-8.7783
-8.78905
-8.80108
-8.81421
-8.82816
-8.84264
-8.85743
-8.87239
-8.88741
-8.90241
-8.9173
-8.93204
-8.94659
-8.96091
-8.97499
-8.98882
-9.00237
-9.01564
-9.02863
-9.04132
-9.05373
-9.06583
-9.07763
-9.08913
-9.10032
-9.11119
-9.12176
-9.132
-9.14191
-9.15148
-8.7691
-8.77045
-8.77562
-8.78389
-8.79397
-8.80535
-8.81784
-8.83118
-8.8451
-8.85938
-8.87387
-8.88846
-8.90305
-8.91757
-8.93197
-8.94619
-8.96022
-8.97401
-8.98755
-9.00083
-9.01384
-9.02656
-9.039
-9.05114
-9.06298
-9.07452
-9.08575
-9.09667
-9.10728
-9.11757
-9.12754
-9.13718
-9.14648
-8.77516
-8.77633
-8.7811
-8.78884
-8.79835
-8.80915
-8.82108
-8.83388
-8.84729
-8.86109
-8.87515
-8.88933
-8.90355
-8.91772
-8.93178
-8.94569
-8.95942
-8.97292
-8.98619
-8.9992
-9.01194
-9.02441
-9.03658
-9.04847
-9.06005
-9.07133
-9.08231
-9.09297
-9.10332
-9.11335
-9.12305
-9.13244
-9.14149
-8.78032
-8.78135
-8.7858
-8.7931
-8.80213
-8.81245
-8.82389
-8.83621
-8.84917
-8.86255
-8.8762
-8.89001
-8.90387
-8.91771
-8.93146
-8.94507
-8.9585
-8.97173
-8.98473
-8.99748
-9.00996
-9.02217
-9.03409
-9.04572
-9.05705
-9.06808
-9.0788
-9.08921
-9.0993
-9.10908
-9.11854
-9.12768
-9.13649
-8.78456
-8.78548
-8.78967
-8.79663
-8.80527
-8.81518
-8.82621
-8.83814
-8.8507
-8.8637
-8.877
-8.89046
-8.904
-8.91753
-8.93098
-8.9443
-8.95746
-8.97042
-8.98315
-8.99564
-9.00787
-9.01982
-9.03149
-9.04287
-9.05395
-9.06473
-9.0752
-9.08536
-9.09521
-9.10474
-9.11395
-9.12285
-9.13142
-8.78783
-8.78868
-8.79269
-8.79938
-8.80773
-8.81732
-8.82802
-8.83961
-8.85184
-8.86452
-8.8775
-8.89066
-8.9039
-8.91714
-8.93032
-8.94338
-8.95627
-8.96897
-8.98146
-8.9937
-9.00568
-9.01739
-9.02882
-9.03997
-9.05081
-9.06135
-9.07159
-9.08151
-9.09113
-9.10043
-9.10942
-9.11809
-9.12644
-8.79009
-8.79089
-8.79477
-8.80129
-8.80942
-8.81878
-8.82923
-8.84056
-8.85252
-8.86493
-8.87765
-8.89054
-8.90352
-8.91651
-8.92943
-8.94223
-8.95488
-8.96734
-8.97958
-8.99157
-9.00331
-9.01478
-9.02597
-9.03687
-9.04747
-9.05777
-9.06777
-9.07745
-9.08683
-9.0959
-9.10465
-9.1131
-9.12123
-8.79126
-8.79204
-8.79585
-8.80227
-8.81029
-8.8195
-8.82978
-8.84092
-8.85268
-8.86489
-8.87738
-8.89006
-8.90282
-8.91558
-8.92828
-8.94086
-8.95329
-8.96552
-8.97754
-8.98932
-9.00084
-9.0121
-9.02307
-9.03375
-9.04414
-9.05423
-9.06401
-9.07349
-9.08266
-9.09152
-9.10007
-9.10832
-9.11624
-8.79127
-8.79206
-8.79588
-8.80229
-8.81029
-8.81945
-8.82965
-8.84069
-8.85233
-8.86439
-8.87672
-8.88922
-8.90179
-8.91435
-8.92685
-8.93922
-8.95143
-8.96344
-8.97524
-8.98679
-8.99808
-9.00911
-9.01985
-9.0303
-9.04046
-9.05031
-9.05986
-9.06911
-9.07805
-9.08669
-9.09502
-9.10306
-9.11079
-8.79002
-8.79087
-8.79478
-8.8013
-8.80939
-8.81861
-8.82883
-8.83986
-8.85145
-8.86344
-8.87568
-8.88806
-8.9005
-8.91292
-8.92526
-8.93747
-8.94952
-8.96136
-8.97298
-8.98436
-8.99548
-9.00632
-9.01688
-9.02715
-9.03712
-9.0468
-9.05617
-9.06524
-9.074
-9.08246
-9.09061
-9.09846
-9.10599
-8.78738
-8.78834
-8.79244
-8.79921
-8.80752
-8.81693
-8.82728
-8.83839
-8.85003
-8.862
-8.87419
-8.88649
-8.89881
-8.91109
-8.92327
-8.93531
-8.94716
-8.95881
-8.97023
-8.98139
-8.9923
-9.00292
-9.01326
-9.02331
-9.03306
-9.04252
-9.05167
-9.06052
-9.06906
-9.07731
-9.08526
-9.09292
-9.1003
-8.78319
-8.7843
-8.78874
-8.79592
-8.80463
-8.81436
-8.82498
-8.8363
-8.84809
-8.86017
-8.87242
-8.88474
-8.89706
-8.9093
-8.92142
-8.93338
-8.94514
-8.95668
-8.96798
-8.97902
-8.98979
-9.00028
-9.01048
-9.02038
-9.02999
-9.03929
-9.04829
-9.05698
-9.06537
-9.07346
-9.08125
-9.08873
-9.09589
-8.77719
-8.77856
-8.78352
-8.79135
-8.80065
-8.81085
-8.82185
-8.83345
-8.84543
-8.85762
-8.8699
-8.88221
-8.89446
-8.90661
-8.91861
-8.93042
-8.94203
-8.9534
-8.96452
-8.97537
-8.98594
-8.99623
-9.00623
-9.01593
-9.02534
-9.03444
-9.04324
-9.05173
-9.05993
-9.06784
-9.07545
-9.08279
-9.08985
-8.76907
-8.77082
-8.77659
-8.78537
-8.79552
-8.80644
-8.81806
-8.83021
-8.84264
-8.85516
-8.8677
-8.88019
-8.89257
-8.90479
-8.91681
-8.92862
-8.94019
-8.9515
-8.96254
-8.9733
-8.98378
-8.99396
-9.00384
-9.01341
-9.02269
-9.03165
-9.04031
-9.04867
-9.05672
-9.06448
-9.07192
-9.07906
-9.08588
-8.75837
-8.76072
-8.76775
-8.7779
-8.78908
-8.80072
-8.81289
-8.82547
-8.8382
-8.85091
-8.86356
-8.8761
-8.88848
-8.90067
-8.91262
-8.92434
-8.93579
-8.94698
-8.95788
-8.96849
-8.97881
-8.98882
-8.99854
-9.00795
-9.01705
-9.02586
-9.03435
-9.04255
-9.05045
-9.05806
-9.06539
-9.07244
-9.07923
-8.74436
-8.74768
-8.75675
-8.76909
-8.78202
-8.79508
-8.80847
-8.82201
-8.83544
-8.84865
-8.86165
-8.87443
-8.88695
-8.89921
-8.91119
-8.92289
-8.9343
-8.94541
-8.95623
-8.96673
-8.97693
-8.98682
-8.9964
-9.00567
-9.01463
-9.02328
-9.03162
-9.03965
-9.04738
-9.05481
-9.06193
-9.06875
-9.07525
-8.72597
-8.73106
-8.74315
-8.75765
-8.7716
-8.78547
-8.79976
-8.81406
-8.82802
-8.84162
-8.85491
-8.86789
-8.88055
-8.89287
-8.90486
-8.91653
-8.92789
-8.93892
-8.94964
-8.96004
-8.97013
-8.9799
-8.98936
-8.99851
-9.00736
-9.0159
-9.02413
-9.03206
-9.0397
-9.04705
-9.05411
-9.0609
-9.06743
-8.70104
-8.71019
-8.72959
-8.74933
-8.76576
-8.78116
-8.79668
-8.81179
-8.82617
-8.83997
-8.85335
-8.86635
-8.87896
-8.89119
-8.90306
-8.9146
-8.9258
-8.93667
-8.9472
-8.95741
-8.9673
-8.97687
-8.98612
-8.99505
-9.00367
-9.01199
-9.01999
-9.02769
-9.0351
-9.04221
-9.04903
-9.05556
-9.06178
-8.6661
-8.67976
-8.70539
-8.72865
-8.7476
-8.76562
-8.78326
-8.79971
-8.81493
-8.8293
-8.84307
-8.85627
-8.86895
-8.88117
-8.893
-8.90445
-8.91555
-8.92632
-8.93676
-8.94688
-8.95669
-8.96619
-8.97539
-8.98428
-8.99287
-9.00116
-9.00915
-9.01685
-9.02425
-9.03135
-9.03816
-9.04465
-9.05081
-8.61871
-8.66637
-8.70575
-8.72602
-8.74229
-8.76064
-8.7786
-8.79455
-8.8091
-8.82303
-8.83647
-8.84935
-8.86173
-8.87366
-8.88521
-8.8964
-8.90724
-8.91775
-8.92794
-8.93782
-8.94739
-8.95667
-8.96566
-8.97435
-8.98275
-8.99088
-8.99872
-9.0063
-9.01362
-9.0207
-9.02756
-9.03426
-9.04082
-8.48438
-8.60656
-8.68121
-8.70544
-8.72176
-8.74278
-8.76326
-8.78046
-8.79579
-8.81061
-8.82513
-8.83924
-8.85296
-8.86638
-8.87952
-8.8924
-8.905
-8.91731
-8.92933
-8.94105
-8.95246
-8.96355
-8.97431
-8.98475
-8.99484
-9.0046
-9.01402
-9.02309
-9.03181
-9.04019
-9.04821
-9.05586
-9.06326
-9.33276
-9.48858
-9.70591
-9.81056
-9.92166
-10.0278
-10.1089
-10.1715
-10.2206
-10.2574
-10.2829
-10.2979
-10.304
-10.3036
-10.2993
-10.2942
-10.289
-10.281
-10.2766
-10.2796
-10.2914
-10.3118
-10.3395
-10.3726
-10.4091
-10.4472
-10.4855
-10.523
-10.5591
-10.593
-10.6238
-10.6506
-10.6728
-10.6895
-10.7006
-10.7057
-10.7046
-10.6972
-10.6833
-10.6627
-10.6352
-10.6005
-10.5585
-10.509
-10.4519
-10.3869
-10.314
-10.2329
-10.1434
-10.0454
-9.9386
-9.82278
-9.69773
-9.56327
-9.41925
-9.26555
-9.10213
-8.92898
-8.74615
-8.55376
-8.352
-8.14113
-7.92148
-7.69348
-7.45763
-7.21452
-6.96482
-6.70925
-6.44859
-6.18364
-5.91523
-5.64422
-5.3715
-5.09802
-4.82476
-4.55276
-4.28313
-4.01702
-3.75566
-3.50023
-3.25173
-3.01084
-2.77792
-2.55333
-2.33736
-2.1303
-1.93235
-1.74364
-1.56417
-1.3939
-1.23249
-1.07982
-0.934787
-0.797852
-0.665112
-0.541369
-0.410658
-0.302196
-0.144504
-0.094969
-9.24811
-9.30066
-9.39283
-9.43911
-9.49274
-9.56038
-9.62652
-9.68958
-9.75008
-9.80562
-9.85421
-9.89493
-9.92788
-9.95404
-9.97538
-9.99455
-10.0139
-10.0295
-10.0454
-10.0659
-10.0928
-10.1261
-10.1652
-10.2082
-10.2536
-10.2994
-10.3447
-10.3883
-10.4296
-10.468
-10.5026
-10.5327
-10.5575
-10.5765
-10.5894
-10.596
-10.5961
-10.5896
-10.5763
-10.5562
-10.529
-10.4945
-10.4526
-10.4032
-10.3462
-10.2813
-10.2084
-10.1274
-10.0381
-9.94031
-9.8338
-9.71836
-9.59381
-9.45997
-9.31671
-9.16392
-9.00157
-8.82966
-8.64825
-8.45747
-8.2575
-8.04861
-7.83114
-7.6055
-7.37219
-7.1318
-6.88497
-6.63242
-6.3749
-6.1132
-5.84813
-5.58053
-5.31129
-5.04131
-4.77157
-4.50307
-4.23689
-3.97414
-3.71601
-3.46362
-3.21793
-2.97961
-2.74905
-2.5266
-2.31258
-2.10725
-1.91082
-1.72343
-1.54507
-1.37571
-1.21504
-1.06294
-0.918331
-0.781723
-0.649247
-0.525871
-0.395739
-0.288574
-0.133525
-0.0881321
-9.20954
-9.23087
-9.2754
-9.30304
-9.32653
-9.35917
-9.39433
-9.42891
-9.46391
-9.4988
-9.53234
-9.56371
-9.5926
-9.6194
-9.64534
-9.67225
-9.70142
-9.7317
-9.76306
-9.79814
-9.83856
-9.88449
-9.93511
-9.98898
-10.0444
-10.0996
-10.1536
-10.2052
-10.2538
-10.2987
-10.3391
-10.3742
-10.4036
-10.4267
-10.4432
-10.4529
-10.4558
-10.4517
-10.4406
-10.4223
-10.3967
-10.3636
-10.3231
-10.2749
-10.219
-10.1552
-10.0835
-10.0036
-9.91537
-9.81873
-9.71344
-9.59931
-9.47617
-9.34385
-9.20223
-9.05123
-8.89081
-8.72098
-8.54181
-8.35342
-8.15601
-7.94985
-7.73527
-7.51267
-7.28256
-7.04551
-6.80214
-6.55315
-6.29929
-6.04131
-5.78002
-5.51623
-5.25081
-4.98465
-4.71869
-4.45393
-4.19139
-3.93216
-3.67738
-3.42812
-3.18531
-2.94959
-2.72141
-2.5011
-2.28899
-2.08535
-1.89038
-1.70422
-1.52689
-1.35836
-1.19833
-1.0467
-0.902428
-0.766055
-0.633787
-0.510696
-0.381196
-0.275183
-0.123173
-0.0811604
-9.20742
-9.23045
-9.26678
-9.29498
-9.31397
-9.33451
-9.35481
-9.37203
-9.38734
-9.40162
-9.4147
-9.42651
-9.43748
-9.44846
-9.46079
-9.47611
-9.49576
-9.52011
-9.54814
-9.58133
-9.62089
-9.66685
-9.71832
-9.77387
-9.83177
-9.89035
-9.94819
-10.0042
-10.0573
-10.1068
-10.1517
-10.1913
-10.225
-10.2523
-10.2727
-10.2862
-10.2925
-10.2916
-10.2834
-10.2678
-10.2448
-10.2141
-10.1759
-10.1299
-10.076
-10.0143
-9.9445
-9.86658
-9.78039
-9.68576
-9.58252
-9.47051
-9.34955
-9.21951
-9.08028
-8.93178
-8.77398
-8.6069
-8.43062
-8.24526
-8.05102
-7.84817
-7.63703
-7.41802
-7.19161
-6.95836
-6.71889
-6.47388
-6.22404
-5.97012
-5.7129
-5.45318
-5.19181
-4.92966
-4.66765
-4.40673
-4.14793
-3.89229
-3.64089
-3.39477
-3.15482
-2.92169
-2.69582
-2.47759
-2.26731
-2.06526
-1.87165
-1.68662
-1.5102
-1.34237
-1.18285
-1.03158
-0.887518
-0.75126
-0.619121
-0.496203
-0.367367
-0.262307
-0.113676
-0.0742008
-9.21177
-9.23382
-9.26158
-9.28525
-9.30214
-9.31897
-9.33596
-9.35066
-9.36314
-9.37385
-9.38255
-9.38907
-9.39381
-9.39761
-9.40174
-9.40777
-9.4172
-9.43082
-9.44877
-9.47208
-9.50179
-9.53806
-9.58029
-9.62734
-9.67781
-9.7302
-9.78315
-9.83548
-9.88613
-9.93409
-9.97842
-10.0182
-10.0527
-10.0812
-10.1034
-10.1188
-10.1272
-10.1286
-10.1227
-10.1094
-10.0887
-10.0604
-10.0244
-9.9806
-9.92901
-9.86949
-9.80195
-9.72628
-9.64236
-9.55004
-9.44917
-9.33959
-9.22115
-9.09373
-8.95723
-8.81157
-8.65674
-8.49277
-8.31971
-8.13772
-7.94699
-7.74776
-7.54037
-7.32522
-7.10278
-6.87358
-6.63822
-6.39737
-6.15172
-5.90199
-5.64896
-5.39341
-5.13615
-4.87805
-4.61999
-4.36293
-4.10784
-3.85573
-3.60766
-3.3646
-3.12743
-2.89679
-2.67314
-2.45686
-2.24828
-2.04768
-1.85528
-1.67123
-1.49557
-1.32828
-1.16913
-1.01804
-0.874061
-0.737777
-0.605659
-0.482784
-0.354598
-0.250282
-0.105222
-0.0675139
-9.21315
-9.23372
-9.25735
-9.27978
-9.29801
-9.31504
-9.33151
-9.34573
-9.35736
-9.36674
-9.37386
-9.37875
-9.38177
-9.38369
-9.38557
-9.38867
-9.39424
-9.40312
-9.41586
-9.43309
-9.45565
-9.4838
-9.51716
-9.55494
-9.59605
-9.63933
-9.68363
-9.72794
-9.7713
-9.81279
-9.85151
-9.88659
-9.91726
-9.94284
-9.96279
-9.97672
-9.98429
-9.98524
-9.97936
-9.96645
-9.94634
-9.9189
-9.88398
-9.84147
-9.79127
-9.73327
-9.66737
-9.59345
-9.51138
-9.42103
-9.32224
-9.21487
-9.09877
-8.97382
-8.83994
-8.69704
-8.54513
-8.3842
-8.21436
-8.03571
-7.84845
-7.65284
-7.44919
-7.23788
-7.01938
-6.79419
-6.56292
-6.32618
-6.08466
-5.83907
-5.59016
-5.33868
-5.08544
-4.83128
-4.57708
-4.32375
-4.07223
-3.82353
-3.57863
-3.33849
-3.10394
-2.87564
-2.65405
-2.43956
-2.23251
-2.0332
-1.84183
-1.65858
-1.48349
-1.31658
-1.1576
-1.00654
-0.862475
-0.726005
-0.593783
-0.470798
-0.343215
-0.239412
-0.0979988
-0.0613096
-9.21319
-9.23295
-9.25428
-9.27493
-9.29256
-9.30844
-9.32338
-9.33653
-9.34752
-9.35655
-9.36369
-9.36896
-9.37265
-9.37535
-9.37791
-9.38133
-9.38664
-9.39461
-9.40584
-9.42082
-9.44018
-9.46418
-9.4925
-9.5245
-9.55929
-9.59588
-9.63332
-9.6707
-9.70718
-9.74196
-9.77425
-9.80329
-9.82839
-9.84894
-9.86442
-9.87444
-9.87865
-9.87676
-9.86853
-9.85373
-9.83217
-9.80365
-9.76801
-9.72511
-9.67481
-9.61698
-9.55148
-9.4782
-9.39698
-9.30767
-9.21013
-9.10421
-8.98975
-8.86665
-8.7348
-8.59413
-8.44463
-8.28632
-8.11925
-7.94356
-7.75942
-7.56708
-7.36684
-7.15907
-6.94421
-6.72276
-6.49529
-6.2624
-6.02477
-5.78306
-5.53802
-5.29039
-5.04094
-4.79051
-4.53993
-4.29011
-4.04196
-3.79644
-3.55451
-3.31709
-3.08497
-2.85881
-2.63908
-2.42619
-2.22049
-2.02226
-1.83174
-1.64909
-1.47439
-1.30765
-1.14868
-0.997457
-0.853129
-0.716304
-0.583836
-0.46058
-0.333516
-0.229985
-0.0921589
-0.0558046
-9.21259
-9.23132
-9.25084
-9.26983
-9.28689
-9.30242
-9.31698
-9.33007
-9.34127
-9.35063
-9.35821
-9.36405
-9.36844
-9.37189
-9.37514
-9.37905
-9.38448
-9.39216
-9.40265
-9.41644
-9.43398
-9.45546
-9.48062
-9.50892
-9.5396
-9.57178
-9.60462
-9.63726
-9.66893
-9.69887
-9.72635
-9.75067
-9.7712
-9.78738
-9.79874
-9.8049
-9.80553
-9.80035
-9.78912
-9.77164
-9.74768
-9.71708
-9.67966
-9.63527
-9.58376
-9.52499
-9.45882
-9.38511
-9.30371
-9.21447
-9.11724
-9.01186
-8.89819
-8.7761
-8.6455
-8.50632
-8.35853
-8.20214
-8.03722
-7.86387
-7.68228
-7.49266
-7.29531
-7.09058
-6.87889
-6.66073
-6.43664
-6.20721
-5.97307
-5.73489
-5.49338
-5.24926
-5.0033
-4.75629
-4.50906
-4.26248
-4.01744
-3.77486
-3.53566
-3.30072
-3.07082
-2.84659
-2.62853
-2.41704
-2.21248
-2.01514
-1.82527
-1.64304
-1.46853
-1.30178
-1.14262
-0.991059
-0.8463
-0.708949
-0.576089
-0.452396
-0.325739
-0.222235
-0.0878145
-0.0511725
-9.21013
-9.22805
-9.24636
-9.2642
-9.28069
-9.29582
-9.30981
-9.32243
-9.33339
-9.34268
-9.3504
-9.35666
-9.36173
-9.36606
-9.37025
-9.37503
-9.3811
-9.3891
-9.39954
-9.41286
-9.42938
-9.44925
-9.47226
-9.49796
-9.52567
-9.55465
-9.58411
-9.61329
-9.64144
-9.66785
-9.69182
-9.71271
-9.72991
-9.74288
-9.75117
-9.7544
-9.75225
-9.74444
-9.73074
-9.71092
-9.68481
-9.65221
-9.61298
-9.56694
-9.51397
-9.45393
-9.38667
-9.31207
-9.22997
-9.14023
-9.04271
-8.93726
-8.82374
-8.70203
-8.57204
-8.4337
-8.28699
-8.1319
-7.96851
-7.79692
-7.61728
-7.42983
-7.23482
-7.03262
-6.82361
-6.60826
-6.3871
-6.16069
-5.92964
-5.6946
-5.45625
-5.21531
-4.97251
-4.72862
-4.48445
-4.24083
-3.99864
-3.75875
-3.52205
-3.28938
-3.06149
-2.839
-2.62241
-2.41214
-2.20854
-2.01192
-1.82251
-1.64052
-1.46603
-1.2991
-1.13959
-0.987508
-0.842156
-0.704118
-0.570723
-0.446431
-0.320049
-0.216329
-0.0850243
-0.047544
-9.20808
-9.22515
-9.24236
-9.25917
-9.27491
-9.2895
-9.30302
-9.31536
-9.32631
-9.33583
-9.34398
-9.35088
-9.35674
-9.36196
-9.36705
-9.37259
-9.37922
-9.38747
-9.39781
-9.41063
-9.4262
-9.44463
-9.46576
-9.48918
-9.51431
-9.54051
-9.56706
-9.59327
-9.61843
-9.64188
-9.66295
-9.68102
-9.69553
-9.70594
-9.71182
-9.71277
-9.70849
-9.69867
-9.68309
-9.66152
-9.63377
-9.59964
-9.55899
-9.51166
-9.45751
-9.3964
-9.3282
-9.25277
-9.16999
-9.07971
-8.98179
-8.8761
-8.76253
-8.64094
-8.51127
-8.37346
-8.22747
-8.07332
-7.91108
-7.74084
-7.56276
-7.37706
-7.184
-6.98392
-6.7772
-6.56428
-6.34568
-6.12193
-5.89364
-5.66141
-5.42593
-5.18786
-4.94794
-4.70691
-4.46556
-4.22468
-3.98512
-3.74771
-3.51332
-3.28273
-3.05667
-2.83577
-2.6205
-2.4113
-2.20851
-2.01245
-1.82337
-1.64146
-1.46684
-1.29958
-1.13956
-0.986826
-0.84074
-0.701874
-0.567811
-0.44277
-0.316518
-0.212348
-0.0837825
-0.0449856
-9.20424
-9.22063
-9.23702
-9.25302
-9.26816
-9.2823
-9.2955
-9.30761
-9.3185
-9.32811
-9.33651
-9.34382
-9.35024
-9.35613
-9.36191
-9.3681
-9.37522
-9.38375
-9.39409
-9.40656
-9.42142
-9.4387
-9.45829
-9.47981
-9.50277
-9.52659
-9.55065
-9.5743
-9.59687
-9.61775
-9.63632
-9.65197
-9.66417
-9.67241
-9.67626
-9.67533
-9.6693
-9.65787
-9.64079
-9.61783
-9.58881
-9.55352
-9.5118
-9.4635
-9.40847
-9.34657
-9.27767
-9.20165
-9.11837
-9.02769
-8.92949
-8.82365
-8.71006
-8.58861
-8.45922
-8.32186
-8.1765
-8.02316
-7.86191
-7.69285
-7.51614
-7.33198
-7.14065
-6.94246
-6.73779
-6.52707
-6.31079
-6.08948
-5.8637
-5.63408
-5.40124
-5.16586
-4.92863
-4.69028
-4.45156
-4.21325
-3.97616
-3.74109
-3.50885
-3.28021
-3.05588
-2.83644
-2.62238
-2.41413
-2.21204
-2.01644
-1.82757
-1.64564
-1.47077
-1.30306
-1.14243
-0.988914
-0.841978
-0.702166
-0.56732
-0.4414
-0.315128
-0.210288
-0.0840187
-0.0434971
-9.20107
-9.21678
-9.2324
-9.24766
-9.26223
-9.27591
-9.28872
-9.30058
-9.31136
-9.32105
-9.32968
-9.33739
-9.34436
-9.35088
-9.35732
-9.36411
-9.37167
-9.38042
-9.39071
-9.40282
-9.41696
-9.43314
-9.45125
-9.47099
-9.49191
-9.5135
-9.5352
-9.55642
-9.57656
-9.59503
-9.61123
-9.62461
-9.63466
-9.64087
-9.64284
-9.64017
-9.63254
-9.61965
-9.60124
-9.57708
-9.54696
-9.51069
-9.4681
-9.41902
-9.36331
-9.30083
-9.23144
-9.15501
-9.0714
-8.9805
-8.88219
-8.77633
-8.66284
-8.54162
-8.4126
-8.27575
-8.13105
-7.97853
-7.81826
-7.65035
-7.47495
-7.29228
-7.10259
-6.9062
-6.70348
-6.49485
-6.28077
-6.06177
-5.8384
-5.61125
-5.38095
-5.14813
-4.91347
-4.67769
-4.44151
-4.20567
-3.97095
-3.73812
-3.50796
-3.2812
-3.0585
-2.84045
-2.62754
-2.42017
-2.21872
-2.02349
-1.83476
-1.65272
-1.47753
-1.30929
-1.14795
-0.993574
-0.845698
-0.704849
-0.569123
-0.442212
-0.315769
-0.210058
-0.0856028
-0.0430106
-9.1965
-9.21163
-9.22662
-9.24127
-9.25533
-9.26864
-9.28111
-9.29274
-9.30346
-9.31322
-9.32206
-9.3301
-9.33749
-9.3445
-9.35143
-9.35865
-9.36652
-9.37539
-9.38558
-9.39731
-9.41074
-9.42591
-9.4427
-9.46082
-9.47988
-9.49945
-9.51901
-9.53803
-9.55594
-9.57219
-9.58623
-9.59754
-9.6056
-9.60997
-9.61021
-9.60596
-9.59688
-9.58267
-9.56307
-9.53784
-9.50677
-9.46966
-9.42633
-9.37661
-9.32035
-9.25741
-9.18765
-9.11093
-9.02714
-8.93614
-8.83782
-8.73207
-8.61878
-8.49789
-8.36933
-8.23306
-8.08909
-7.93744
-7.77819
-7.61146
-7.43739
-7.2562
-7.06815
-6.87354
-6.67274
-6.46615
-6.25424
-6.03751
-5.8165
-5.59178
-5.36395
-5.13364
-4.90151
-4.66825
-4.43454
-4.20113
-3.96873
-3.7381
-3.50997
-3.28504
-3.06395
-2.84726
-2.63545
-2.42894
-2.22808
-2.03319
-1.84454
-1.66236
-1.48679
-1.31796
-1.15585
-1.00055
-0.851666
-0.70971
-0.573026
-0.445031
-0.318269
-0.2115
-0.088361
-0.0434038
-9.19247
-9.20705
-9.22147
-9.23555
-9.24911
-9.26202
-9.27417
-9.28555
-9.29615
-9.30593
-9.31492
-9.32321
-9.33094
-9.33835
-9.34568
-9.35325
-9.36136
-9.37031
-9.38035
-9.39168
-9.40442
-9.41862
-9.43413
-9.45071
-9.46802
-9.48565
-9.50317
-9.52006
-9.53583
-9.54994
-9.5619
-9.57118
-9.57733
-9.57989
-9.57845
-9.57265
-9.56215
-9.54666
-9.5259
-9.49964
-9.46766
-9.42974
-9.38572
-9.33541
-9.27867
-9.21533
-9.14527
-9.06835
-8.98444
-8.89343
-8.79518
-8.68961
-8.57662
-8.45614
-8.32811
-8.1925
-8.04932
-7.8986
-7.74043
-7.57491
-7.40221
-7.22254
-7.03614
-6.84333
-6.64446
-6.43992
-6.23018
-6.01571
-5.79705
-5.57474
-5.34938
-5.12157
-4.89196
-4.6612
-4.42996
-4.19895
-3.96887
-3.74042
-3.51431
-3.2912
-3.07171
-2.85637
-2.64566
-2.43999
-2.23971
-2.04514
-1.85656
-1.67419
-1.49821
-1.32875
-1.16583
-1.00956
-0.859626
-0.716511
-0.578802
-0.449644
-0.322415
-0.214415
-0.0920962
-0.04452
-9.1875
-9.20158
-9.21548
-9.22906
-9.24219
-9.25474
-9.26662
-9.27779
-9.28826
-9.29803
-9.30713
-9.31562
-9.32362
-9.33133
-9.33896
-9.34677
-9.35502
-9.36395
-9.37378
-9.38467
-9.39672
-9.40994
-9.42423
-9.43935
-9.455
-9.47082
-9.48641
-9.50132
-9.51507
-9.52718
-9.53716
-9.54454
-9.54888
-9.54973
-9.54671
-9.53944
-9.52761
-9.51091
-9.48908
-9.46185
-9.42902
-9.39037
-9.34572
-9.29488
-9.23771
-9.17404
-9.10374
-9.02668
-8.94271
-8.85174
-8.75363
-8.64831
-8.53567
-8.41565
-8.2882
-8.1533
-8.01097
-7.86123
-7.70418
-7.53992
-7.36862
-7.1905
-7.00579
-6.8148
-6.61787
-6.41541
-6.20785
-5.99566
-5.77935
-5.55947
-5.33659
-5.11129
-4.8842
-4.65596
-4.4272
-4.1986
-3.97083
-3.74458
-3.5205
-3.29922
-3.08133
-2.86736
-2.65776
-2.45293
-2.25324
-2.05899
-1.87046
-1.6879
-1.51149
-1.34138
-1.17763
-1.02035
-0.869327
-0.725012
-0.586219
-0.455828
-0.327983
-0.218592
-0.09661
-0.0461918
-9.18287
-9.19649
-9.20992
-9.22305
-9.23577
-9.24797
-9.25959
-9.27057
-9.2809
-9.29061
-9.29974
-9.30835
-9.31654
-9.32445
-9.33229
-9.34025
-9.34855
-9.3574
-9.36697
-9.37739
-9.38875
-9.40102
-9.41412
-9.42784
-9.44191
-9.456
-9.46975
-9.48275
-9.49456
-9.50472
-9.51279
-9.51832
-9.52088
-9.52006
-9.51547
-9.50675
-9.49359
-9.47569
-9.45277
-9.42458
-9.3909
-9.35151
-9.30623
-9.25488
-9.19729
-9.1333
-9.06278
-8.98559
-8.9016
-8.81069
-8.71276
-8.60771
-8.49546
-8.37595
-8.24912
-8.11498
-7.97353
-7.82481
-7.66891
-7.50595
-7.33609
-7.15953
-6.97654
-6.7874
-6.59245
-6.39208
-6.18672
-5.97682
-5.7629
-5.54547
-5.32508
-5.10232
-4.87777
-4.65206
-4.4258
-4.19963
-3.97421
-3.75017
-3.52814
-3.30872
-3.09246
-2.87988
-2.67141
-2.46745
-2.26835
-2.07443
-1.88597
-1.70321
-1.52636
-1.35559
-1.19099
-1.03269
-0.880542
-0.734993
-0.59506
-0.463372
-0.334762
-0.22383
-0.101723
-0.0482669
-9.1777
-9.19088
-9.20387
-9.21658
-9.22891
-9.24079
-9.25215
-9.26294
-9.27316
-9.28279
-9.2919
-9.30056
-9.30887
-9.31692
-9.32487
-9.3329
-9.34118
-9.34987
-9.35913
-9.36906
-9.3797
-9.39101
-9.40295
-9.41533
-9.42789
-9.44034
-9.45234
-9.46353
-9.47349
-9.4818
-9.48804
-9.4918
-9.49265
-9.49022
-9.48412
-9.47401
-9.45957
-9.4405
-9.41654
-9.38742
-9.35293
-9.31284
-9.26697
-9.21512
-9.15714
-9.09287
-9.02216
-8.94487
-8.86088
-8.77007
-8.67234
-8.5676
-8.45577
-8.33678
-8.21061
-8.07725
-7.9367
-7.78902
-7.6343
-7.47266
-7.30426
-7.1293
-6.94804
-6.76076
-6.5678
-6.36955
-6.1664
-5.95883
-5.7473
-5.53234
-5.31447
-5.09426
-4.87229
-4.64913
-4.4254
-4.2017
-3.97864
-3.75684
-3.53689
-3.31936
-3.10477
-2.89362
-2.68631
-2.48325
-2.28477
-2.0912
-1.90282
-1.71988
-1.54259
-1.37116
-1.2057
-1.04636
-0.893072
-0.746264
-0.605139
-0.472096
-0.342568
-0.229959
-0.107291
-0.0506322
-9.1727
-9.18548
-9.19807
-9.21039
-9.22237
-9.23395
-9.24506
-9.25566
-9.26574
-9.2753
-9.28437
-9.29302
-9.30135
-9.30946
-9.31746
-9.32548
-9.33366
-9.34213
-9.35102
-9.36041
-9.3703
-9.38069
-9.39152
-9.4026
-9.41372
-9.42461
-9.43495
-9.4444
-9.45258
-9.4591
-9.46358
-9.46561
-9.4648
-9.46078
-9.45319
-9.4417
-9.42598
-9.40575
-9.38074
-9.35069
-9.31537
-9.27457
-9.22809
-9.17574
-9.11736
-9.05279
-8.98188
-8.90449
-8.82051
-8.7298
-8.63228
-8.52785
-8.41645
-8.29801
-8.1725
-8.03993
-7.9003
-7.75368
-7.60015
-7.43983
-7.2729
-7.09955
-6.92003
-6.73463
-6.54368
-6.34754
-6.14663
-5.94138
-5.73227
-5.51979
-5.30447
-5.08684
-4.86745
-4.64688
-4.4257
-4.20449
-3.98383
-3.76431
-3.54647
-3.33087
-3.11799
-2.90829
-2.70219
-2.50006
-2.30224
-2.10904
-1.92076
-1.73765
-1.55995
-1.38786
-1.22154
-1.06117
-0.906723
-0.758639
-0.616277
-0.481828
-0.351239
-0.236835
-0.1132
-0.0532147
-9.16743
-9.17983
-9.19203
-9.20399
-9.21563
-9.2269
-9.23775
-9.24815
-9.25808
-9.26754
-9.27656
-9.28517
-9.29345
-9.30153
-9.30948
-9.31742
-9.32545
-9.33366
-9.34214
-9.35095
-9.36011
-9.3696
-9.37935
-9.3892
-9.39894
-9.40833
-9.41707
-9.42486
-9.43134
-9.43615
-9.43892
-9.43929
-9.43688
-9.43132
-9.42229
-9.40945
-9.39249
-9.37112
-9.34508
-9.31411
-9.27799
-9.23649
-9.18941
-9.13658
-9.07781
-9.01295
-8.94185
-8.86438
-8.78041
-8.68982
-8.59251
-8.48841
-8.37744
-8.25955
-8.13472
-8.00294
-7.86424
-7.71867
-7.56634
-7.40735
-7.24189
-7.07015
-6.89237
-6.70885
-6.5199
-6.32588
-6.12721
-5.92429
-5.71761
-5.50762
-5.29485
-5.07981
-4.86304
-4.64507
-4.42647
-4.20778
-3.98955
-3.77233
-3.55664
-3.34299
-3.13185
-2.92365
-2.71879
-2.51763
-2.3205
-2.12771
-1.93955
-1.7563
-1.57819
-1.40546
-1.23829
-1.07688
-0.921283
-0.771913
-0.628279
-0.492387
-0.360603
-0.244311
-0.119342
-0.0559639
-9.16224
-9.17427
-9.18612
-9.19774
-9.20906
-9.22005
-9.23066
-9.24085
-9.25062
-9.25996
-9.26889
-9.27743
-9.28564
-9.29361
-9.30144
-9.30921
-9.317
-9.32488
-9.33292
-9.34116
-9.34962
-9.35825
-9.36696
-9.37563
-9.38405
-9.392
-9.39922
-9.40541
-9.41026
-9.41342
-9.41455
-9.41331
-9.40933
-9.40228
-9.39183
-9.37765