/*--------------------------------*- C++ -*----------------------------------*\
| =========                 |                                                 |
| \\      /  F ield         | OpenFOAM: The Open Source CFD Toolbox           |
|  \\    /   O peration     | Version:  4.1                                   |
|   \\  /    A nd           | Web:      www.OpenFOAM.org                      |
|    \\/     M anipulation  |                                                 |
\*---------------------------------------------------------------------------*/
FoamFile
{
    version     2.0;
    format      ascii;
    class       surfaceScalarField;
    location    "1800";
    object      phi;
}
// * * * * * * * * * * * * * * * * * * * * * * * * * * * * * * * * * * * * * //

dimensions      [0 3 -1 0 0 0 0];

internalField   nonuniform List<scalar> 
13452
(
5.95313e-05
7.37189e-07
5.86592e-05
8.72055e-07
5.78162e-05
8.43023e-07
5.69811e-05
8.35093e-07
5.61551e-05
8.26045e-07
5.53509e-05
8.04137e-07
5.4576e-05
7.74946e-07
5.38328e-05
7.43204e-07
5.31224e-05
7.10329e-07
5.24455e-05
6.76898e-07
5.1802e-05
6.43566e-07
5.11911e-05
6.10909e-07
5.06118e-05
5.79288e-07
5.00629e-05
5.48891e-07
4.95431e-05
5.19807e-07
4.9051e-05
4.9207e-07
4.85853e-05
4.65672e-07
4.81448e-05
4.40578e-07
4.7728e-05
4.16737e-07
4.73339e-05
3.94091e-07
4.69614e-05
3.72576e-07
4.66092e-05
3.5213e-07
4.62765e-05
3.3269e-07
4.59624e-05
3.14195e-07
4.56658e-05
2.96588e-07
4.5386e-05
2.79816e-07
4.51221e-05
2.63814e-07
4.48736e-05
2.48586e-07
4.46397e-05
2.33884e-07
4.44192e-05
2.20432e-07
4.42137e-05
2.05582e-07
4.40179e-05
1.9579e-07
1.67928e-07
4.38499e-05
6.23701e-05
3.5739e-07
6.26549e-05
5.87255e-07
6.28762e-05
6.21724e-07
6.30527e-05
6.58587e-07
6.31874e-05
6.91411e-07
6.32837e-05
7.07861e-07
6.33451e-05
7.1353e-07
6.33748e-05
7.135e-07
6.33761e-05
7.09032e-07
6.33524e-05
7.00535e-07
6.33073e-05
6.88732e-07
6.32438e-05
6.74417e-07
6.31648e-05
6.58229e-07
6.30731e-05
6.40652e-07
6.29708e-05
6.2208e-07
6.286e-05
6.02837e-07
6.27425e-05
5.83188e-07
6.26197e-05
5.6334e-07
6.2493e-05
5.43455e-07
6.23635e-05
5.23661e-07
6.2232e-05
5.0406e-07
6.20994e-05
4.84727e-07
6.19663e-05
4.6572e-07
6.18335e-05
4.4708e-07
6.17012e-05
4.28836e-07
6.157e-05
4.11009e-07
6.14402e-05
3.936e-07
6.13122e-05
3.76646e-07
6.1186e-05
3.60029e-07
6.10624e-05
3.4408e-07
6.09402e-05
3.27732e-07
6.08228e-05
3.13248e-07
2.97019e-07
6.06937e-05
6.38365e-05
2.82304e-07
6.38978e-05
5.25936e-07
6.39331e-05
5.86407e-07
6.39614e-05
6.303e-07
6.39849e-05
6.67943e-07
6.40043e-05
6.88446e-07
6.40213e-05
6.96576e-07
6.40366e-05
6.98201e-07
6.40503e-05
6.95272e-07
6.40624e-05
6.88412e-07
6.40728e-05
6.78396e-07
6.40812e-05
6.66034e-07
6.40874e-05
6.5195e-07
6.40915e-05
6.36592e-07
6.40933e-05
6.20312e-07
6.40927e-05
6.03399e-07
6.40898e-05
5.8608e-07
6.40846e-05
5.68533e-07
6.40772e-05
5.50894e-07
6.40676e-05
5.33272e-07
6.40559e-05
5.15747e-07
6.40422e-05
4.98384e-07
6.40267e-05
4.81229e-07
6.40095e-05
4.64315e-07
6.39907e-05
4.47667e-07
6.39704e-05
4.313e-07
6.39487e-05
4.15214e-07
6.3926e-05
3.99428e-07
6.39021e-05
3.83888e-07
6.38775e-05
3.6869e-07
6.38516e-05
3.53593e-07
6.3826e-05
3.3888e-07
3.24585e-07
6.37984e-05
6.5644e-05
2.21346e-07
6.57108e-05
4.59203e-07
6.57547e-05
5.4244e-07
6.57894e-05
5.95593e-07
6.5819e-05
6.38407e-07
6.58438e-05
6.63646e-07
6.5865e-05
6.75384e-07
6.58835e-05
6.79618e-07
6.59001e-05
6.78756e-07
6.59148e-05
6.73632e-07
6.59282e-05
6.6509e-07
6.59402e-05
6.53995e-07
6.59511e-05
6.41014e-07
6.59611e-05
6.2663e-07
6.59702e-05
6.11222e-07
6.59785e-05
5.95098e-07
6.59861e-05
5.785e-07
6.5993e-05
5.61618e-07
6.59993e-05
5.44597e-07
6.6005e-05
5.27549e-07
6.60102e-05
5.10559e-07
6.60149e-05
4.93693e-07
6.60191e-05
4.76996e-07
6.60229e-05
4.60503e-07
6.60264e-05
4.44233e-07
6.60295e-05
4.28202e-07
6.60323e-05
4.1241e-07
6.60348e-05
3.96863e-07
6.60372e-05
3.8153e-07
6.60394e-05
3.66449e-07
6.60415e-05
3.51525e-07
6.60435e-05
3.36864e-07
3.22828e-07
6.60453e-05
6.75014e-05
1.76691e-07
6.75606e-05
4.00048e-07
6.7606e-05
4.97073e-07
6.76451e-05
5.56442e-07
6.76814e-05
6.02162e-07
6.77143e-05
6.30727e-07
6.77441e-05
6.45523e-07
6.77716e-05
6.52146e-07
6.77972e-05
6.53211e-07
6.7821e-05
6.49744e-07
6.78435e-05
6.42668e-07
6.78646e-05
6.32878e-07
6.78845e-05
6.2107e-07
6.79034e-05
6.07749e-07
6.79213e-05
5.93311e-07
6.79383e-05
5.78072e-07
6.79546e-05
5.62283e-07
6.797e-05
5.46139e-07
6.79848e-05
5.29791e-07
6.7999e-05
5.13356e-07
6.80127e-05
4.96922e-07
6.80258e-05
4.80556e-07
6.80385e-05
4.64308e-07
6.80508e-05
4.48212e-07
6.80627e-05
4.32291e-07
6.80744e-05
4.16557e-07
6.80858e-05
4.01013e-07
6.8097e-05
3.85661e-07
6.8108e-05
3.70483e-07
6.8119e-05
3.55481e-07
6.81299e-05
3.40626e-07
6.81408e-05
3.2593e-07
3.11557e-07
6.81521e-05
6.94169e-05
1.43865e-07
6.94686e-05
3.48321e-07
6.95132e-05
4.52411e-07
6.95533e-05
5.1634e-07
6.95912e-05
5.64288e-07
6.96263e-05
5.95615e-07
6.96587e-05
6.13121e-07
6.9689e-05
6.21899e-07
6.97175e-05
6.24713e-07
6.97444e-05
6.22776e-07
6.977e-05
6.17078e-07
6.97944e-05
6.08534e-07
6.98176e-05
5.97853e-07
6.98398e-05
5.85556e-07
6.98611e-05
5.72048e-07
6.98815e-05
5.57654e-07
6.99011e-05
5.42634e-07
6.99201e-05
5.27187e-07
6.99384e-05
5.1147e-07
6.99561e-05
4.95605e-07
6.99734e-05
4.79685e-07
6.99902e-05
4.63781e-07
7.00065e-05
4.47944e-07
7.00225e-05
4.32211e-07
7.00382e-05
4.16607e-07
7.00536e-05
4.01145e-07
7.00688e-05
3.8583e-07
7.00838e-05
3.70659e-07
7.00987e-05
3.55618e-07
7.01135e-05
3.40696e-07
7.01282e-05
3.25872e-07
7.0143e-05
3.11094e-07
2.96429e-07
7.01582e-05
7.13907e-05
1.1945e-07
7.14348e-05
3.04264e-07
7.14764e-05
4.10818e-07
7.1515e-05
4.77779e-07
7.15522e-05
5.27083e-07
7.15874e-05
5.60333e-07
7.16206e-05
5.79991e-07
7.16519e-05
5.906e-07
7.16816e-05
5.94957e-07
7.171e-05
5.94403e-07
7.17371e-05
5.89964e-07
7.17631e-05
5.82562e-07
7.1788e-05
5.72916e-07
7.1812e-05
5.6156e-07
7.18352e-05
5.48911e-07
7.18575e-05
5.35303e-07
7.18791e-05
5.20999e-07
7.19001e-05
5.06206e-07
7.19205e-05
4.91087e-07
7.19404e-05
4.75766e-07
7.19597e-05
4.60341e-07
7.19786e-05
4.44884e-07
7.19971e-05
4.2945e-07
7.20152e-05
4.14078e-07
7.2033e-05
3.98793e-07
7.20506e-05
3.83609e-07
7.20679e-05
3.68533e-07
7.2085e-05
3.53559e-07
7.21019e-05
3.38676e-07
7.21187e-05
3.23863e-07
7.21355e-05
3.09094e-07
7.21523e-05
2.94298e-07
2.79483e-07
7.21693e-05
7.34237e-05
1.00988e-07
7.34611e-05
2.66879e-07
7.34997e-05
3.72238e-07
7.35369e-05
4.40546e-07
7.35736e-05
4.90382e-07
7.36091e-05
5.24881e-07
7.36428e-05
5.46274e-07
7.36749e-05
5.5849e-07
7.37056e-05
5.64252e-07
7.3735e-05
5.64985e-07
7.37633e-05
5.6174e-07
7.37904e-05
5.55437e-07
7.38165e-05
5.46802e-07
7.38417e-05
5.36378e-07
7.3866e-05
5.24587e-07
7.38895e-05
5.11769e-07
7.39123e-05
4.98191e-07
7.39345e-05
4.84064e-07
7.3956e-05
4.69554e-07
7.3977e-05
4.54789e-07
7.39975e-05
4.39869e-07
7.40175e-05
4.2487e-07
7.40371e-05
4.09851e-07
7.40563e-05
3.9485e-07
7.40752e-05
3.79896e-07
7.40938e-05
3.65005e-07
7.41122e-05
3.50183e-07
7.41303e-05
3.35427e-07
7.41483e-05
3.20725e-07
7.41661e-05
3.06054e-07
7.41838e-05
2.91386e-07
7.42014e-05
2.76659e-07
2.6187e-07
7.4219e-05
7.55168e-05
8.66839e-08
7.55485e-05
2.35119e-07
7.55839e-05
3.36839e-07
7.56193e-05
4.05166e-07
7.56547e-05
4.54952e-07
7.56895e-05
4.90132e-07
7.5723e-05
5.12805e-07
7.57551e-05
5.26321e-07
7.57861e-05
5.33272e-07
7.5816e-05
5.3513e-07
7.58447e-05
5.32958e-07
7.58725e-05
5.27662e-07
7.58994e-05
5.19965e-07
7.59253e-05
5.10413e-07
7.59505e-05
4.99432e-07
7.59749e-05
4.87364e-07
7.59986e-05
4.74479e-07
7.60217e-05
4.60992e-07
7.60442e-05
4.4707e-07
7.60661e-05
4.32847e-07
7.60875e-05
4.18424e-07
7.61085e-05
4.0388e-07
7.61291e-05
3.89276e-07
7.61493e-05
3.74654e-07
7.61692e-05
3.60043e-07
7.61887e-05
3.45461e-07
7.6208e-05
3.30916e-07
7.6227e-05
3.16406e-07
7.62458e-05
3.01921e-07
7.62644e-05
2.8744e-07
7.62829e-05
2.72932e-07
7.63012e-05
2.58335e-07
2.43631e-07
7.63194e-05
7.76709e-05
7.53136e-08
7.76981e-05
2.08016e-07
7.77304e-05
3.04521e-07
7.77639e-05
3.71677e-07
7.7798e-05
4.20805e-07
7.78321e-05
4.56086e-07
7.78653e-05
4.79555e-07
7.78976e-05
4.94056e-07
7.79289e-05
5.01985e-07
7.79592e-05
5.0482e-07
7.79885e-05
5.03612e-07
7.80169e-05
4.99246e-07
7.80445e-05
4.92432e-07
7.80712e-05
4.83715e-07
7.80971e-05
4.73521e-07
7.81222e-05
4.62191e-07
7.81467e-05
4.49997e-07
7.81706e-05
4.37153e-07
7.81938e-05
4.2383e-07
7.82165e-05
4.10162e-07
7.82387e-05
3.96254e-07
7.82604e-05
3.82186e-07
7.82816e-05
3.68021e-07
7.83025e-05
3.53802e-07
7.83229e-05
3.39563e-07
7.83431e-05
3.25322e-07
7.83629e-05
3.1109e-07
7.83824e-05
2.96867e-07
7.84017e-05
2.82646e-07
7.84207e-05
2.68411e-07
7.84395e-05
2.54138e-07
7.84581e-05
2.39789e-07
2.25371e-07
7.84763e-05
7.98876e-05
6.60392e-08
7.99109e-05
1.84697e-07
7.99404e-05
2.75071e-07
7.99719e-05
3.40095e-07
8.00047e-05
3.88065e-07
8.00378e-05
4.22994e-07
8.00705e-05
4.46856e-07
8.01025e-05
4.62056e-07
8.01337e-05
4.70763e-07
8.01641e-05
4.74419e-07
8.01937e-05
4.74054e-07
8.02224e-05
4.70525e-07
8.02503e-05
4.64522e-07
8.02774e-05
4.56585e-07
8.03038e-05
4.47135e-07
8.03295e-05
4.36509e-07
8.03545e-05
4.2498e-07
8.03789e-05
4.12761e-07
8.04027e-05
4.00024e-07
8.0426e-05
3.86905e-07
8.04487e-05
3.73508e-07
8.0471e-05
3.59918e-07
8.04928e-05
3.46198e-07
8.05142e-05
3.32394e-07
8.05352e-05
3.18541e-07
8.05559e-05
3.04662e-07
8.05762e-05
2.90768e-07
8.05962e-05
2.76865e-07
8.06159e-05
2.62949e-07
8.06353e-05
2.49008e-07
8.06544e-05
2.35026e-07
8.06732e-05
2.20964e-07
2.06827e-07
8.06918e-05
8.21682e-05
5.82878e-08
8.21885e-05
1.64437e-07
8.22153e-05
2.48233e-07
8.2245e-05
3.10377e-07
8.22763e-05
3.56737e-07
8.23084e-05
3.90903e-07
8.23405e-05
4.14761e-07
8.23722e-05
4.30356e-07
8.24034e-05
4.39616e-07
8.24339e-05
4.4392e-07
8.24637e-05
4.44265e-07
8.24927e-05
4.4147e-07
8.2521e-05
4.36203e-07
8.25486e-05
4.28988e-07
8.25755e-05
4.20239e-07
8.26017e-05
4.1029e-07
8.26273e-05
3.99407e-07
8.26523e-05
3.87804e-07
8.26767e-05
3.75652e-07
8.27005e-05
3.63085e-07
8.27238e-05
3.50211e-07
8.27466e-05
3.37115e-07
8.27689e-05
3.23859e-07
8.27908e-05
3.10495e-07
8.28123e-05
2.97059e-07
8.28334e-05
2.83574e-07
8.28541e-05
2.70058e-07
8.28744e-05
2.56519e-07
8.28944e-05
2.42958e-07
8.29141e-05
2.2937e-07
8.29333e-05
2.15749e-07
8.29522e-05
2.0208e-07
1.88395e-07
8.29707e-05
8.45144e-05
5.16651e-08
8.45322e-05
1.4664e-07
8.45567e-05
2.23721e-07
8.45846e-05
2.82432e-07
8.46146e-05
3.2679e-07
8.46457e-05
3.59847e-07
8.46771e-05
3.83359e-07
8.47083e-05
3.99076e-07
8.47393e-05
4.08689e-07
8.47697e-05
4.13486e-07
8.47995e-05
4.14419e-07
8.48287e-05
4.12264e-07
8.48573e-05
4.07659e-07
8.48852e-05
4.0111e-07
8.49124e-05
3.93021e-07
8.4939e-05
3.83716e-07
8.49649e-05
3.73458e-07
8.49903e-05
3.62457e-07
8.5015e-05
3.50881e-07
8.50393e-05
3.38865e-07
8.50629e-05
3.26516e-07
8.50861e-05
3.13919e-07
8.51089e-05
3.01141e-07
8.51311e-05
2.88232e-07
8.5153e-05
2.75232e-07
8.51744e-05
2.62167e-07
8.51954e-05
2.49058e-07
8.5216e-05
2.35917e-07
8.52362e-05
2.2275e-07
8.5256e-05
2.09559e-07
8.52754e-05
1.96345e-07
8.52944e-05
1.83093e-07
1.6983e-07
8.53129e-05
8.69279e-05
4.5896e-08
8.69437e-05
1.3083e-07
8.69662e-05
2.01255e-07
8.69925e-05
2.56145e-07
8.70211e-05
2.9817e-07
8.70511e-05
3.29818e-07
8.70818e-05
3.5268e-07
8.71126e-05
3.68256e-07
8.71433e-05
3.78018e-07
8.71737e-05
3.83145e-07
8.72035e-05
3.84534e-07
8.72329e-05
3.82913e-07
8.72617e-05
3.78887e-07
8.72898e-05
3.7294e-07
8.73174e-05
3.65462e-07
8.73443e-05
3.56765e-07
8.73707e-05
3.47106e-07
8.73965e-05
3.3669e-07
8.74217e-05
3.25682e-07
8.74463e-05
3.14215e-07
8.74704e-05
3.02396e-07
8.7494e-05
2.9031e-07
8.75172e-05
2.78025e-07
8.75398e-05
2.65592e-07
8.7562e-05
2.53053e-07
8.75837e-05
2.40439e-07
8.7605e-05
2.27771e-07
8.76258e-05
2.15068e-07
8.76463e-05
2.0234e-07
8.76662e-05
1.89595e-07
8.76857e-05
1.76843e-07
8.77047e-05
1.64086e-07
1.51369e-07
8.77232e-05
8.94106e-05
4.07848e-08
8.94249e-05
1.16627e-07
8.94455e-05
1.80566e-07
8.94703e-05
2.31386e-07
8.94977e-05
2.70804e-07
8.95267e-05
3.00785e-07
8.95566e-05
3.22731e-07
8.9587e-05
3.3793e-07
8.96173e-05
3.47649e-07
8.96475e-05
3.52954e-07
8.96774e-05
3.54675e-07
8.97068e-05
3.53493e-07
8.97357e-05
3.49971e-07
8.97641e-05
3.44569e-07
8.97919e-05
3.37657e-07
8.98191e-05
3.29538e-07
8.98458e-05
3.20457e-07
8.98719e-05
3.10612e-07
8.98974e-05
3.00166e-07
8.99223e-05
2.89249e-07
8.99468e-05
2.77965e-07
8.99707e-05
2.66401e-07
8.99941e-05
2.54624e-07
9.0017e-05
2.42686e-07
9.00394e-05
2.30632e-07
9.00614e-05
2.18495e-07
9.00828e-05
2.06299e-07
9.01038e-05
1.94067e-07
9.01244e-05
1.81814e-07
9.01444e-05
1.69553e-07
9.01639e-05
1.57299e-07
9.0183e-05
1.45053e-07
1.32858e-07
9.02015e-05
9.19645e-05
3.61891e-08
9.19774e-05
1.03729e-07
9.19965e-05
1.61408e-07
9.20199e-05
2.08011e-07
9.20461e-05
2.44605e-07
9.20742e-05
2.72702e-07
9.21034e-05
2.93501e-07
9.21332e-05
3.08105e-07
9.21633e-05
3.17602e-07
9.21933e-05
3.22935e-07
9.22231e-05
3.24868e-07
9.22526e-05
3.24024e-07
9.22816e-05
3.20927e-07
9.23102e-05
3.16006e-07
9.23382e-05
3.09613e-07
9.23657e-05
3.02035e-07
9.23927e-05
2.93505e-07
9.24191e-05
2.84215e-07
9.24449e-05
2.74321e-07
9.24702e-05
2.6395e-07
9.2495e-05
2.53206e-07
9.25192e-05
2.42172e-07
9.25429e-05
2.30915e-07
9.25661e-05
2.19492e-07
9.25888e-05
2.07945e-07
9.2611e-05
1.96311e-07
9.26327e-05
1.84617e-07
9.26538e-05
1.72889e-07
9.26745e-05
1.61146e-07
9.26947e-05
1.49407e-07
9.27143e-05
1.3769e-07
9.27333e-05
1.26009e-07
1.14413e-07
9.27518e-05
9.45913e-05
3.20025e-08
9.46032e-05
9.18929e-08
9.4621e-05
1.43558e-07
9.46432e-05
1.85875e-07
9.46683e-05
2.19478e-07
9.46955e-05
2.45505e-07
9.4724e-05
2.64958e-07
9.47534e-05
2.78775e-07
9.47831e-05
2.87881e-07
9.48129e-05
2.93104e-07
9.48427e-05
2.95132e-07
9.48721e-05
2.94532e-07
9.49013e-05
2.91785e-07
9.493e-05
2.87289e-07
9.49582e-05
2.81371e-07
9.4986e-05
2.74301e-07
9.50132e-05
2.663e-07
9.50398e-05
2.57552e-07
9.5066e-05
2.48205e-07
9.50915e-05
2.38382e-07
9.51166e-05
2.28183e-07
9.5141e-05
2.17691e-07
9.5165e-05
2.06973e-07
9.51884e-05
1.96083e-07
9.52113e-05
1.85067e-07
9.52336e-05
1.73962e-07
9.52554e-05
1.62799e-07
9.52767e-05
1.51606e-07
9.52975e-05
1.40405e-07
9.53176e-05
1.29217e-07
9.53373e-05
1.18065e-07
9.53563e-05
1.06963e-07
9.59546e-08
9.53748e-05
9.72934e-05
2.81439e-08
9.73043e-05
8.09241e-08
9.73211e-05
1.26817e-07
9.73421e-05
1.64831e-07
9.73663e-05
1.95319e-07
9.73927e-05
2.19123e-07
9.74206e-05
2.37059e-07
9.74494e-05
2.49917e-07
9.74788e-05
2.5848e-07
9.75085e-05
2.63462e-07
9.75381e-05
2.65475e-07
9.75676e-05
2.65029e-07
9.75969e-05
2.62558e-07
9.76257e-05
2.58428e-07
9.76542e-05
2.5294e-07
9.76821e-05
2.46345e-07
9.77096e-05
2.38851e-07
9.77365e-05
2.30629e-07
9.77629e-05
2.2182e-07
9.77887e-05
2.12544e-07
9.7814e-05
2.02895e-07
9.78387e-05
1.92953e-07
9.78629e-05
1.82785e-07
9.78866e-05
1.72446e-07
9.79096e-05
1.61981e-07
9.79322e-05
1.51429e-07
9.79542e-05
1.40823e-07
9.79756e-05
1.30191e-07
9.79964e-05
1.19559e-07
9.80167e-05
1.08951e-07
9.80363e-05
9.83929e-08
9.80554e-05
8.79022e-08
7.7527e-08
9.80738e-05
0.000100073
2.45485e-08
0.000100083
7.06613e-08
0.000100099
1.11006e-07
0.000100119
1.44733e-07
0.000100142
1.72019e-07
0.000100168
1.93472e-07
0.000100195
2.09747e-07
0.000100224
2.21497e-07
0.000100253
2.29377e-07
0.000100282
2.33999e-07
0.000100312
2.35894e-07
0.000100341
2.35516e-07
0.00010037
2.33254e-07
0.000100399
2.29435e-07
0.000100428
2.24336e-07
0.000100456
2.18186e-07
0.000100484
2.11176e-07
0.000100511
2.03468e-07
0.000100538
1.95194e-07
0.000100564
1.86465e-07
0.000100589
1.77372e-07
0.000100614
1.67993e-07
0.000100639
1.58392e-07
0.000100662
1.48622e-07
0.000100686
1.3873e-07
0.000100708
1.28755e-07
0.000100731
1.1873e-07
0.000100752
1.08685e-07
0.000100773
9.86491e-08
0.000100793
8.86462e-08
0.000100813
7.87025e-08
0.000100832
6.88363e-08
5.90923e-08
0.00010085
0.000102931
2.11641e-08
0.000102941
6.09691e-08
0.000102956
9.59651e-08
0.000102975
1.2544e-07
0.000102998
1.49461e-07
0.000103023
1.68462e-07
0.00010305
1.82952e-07
0.000103078
1.93464e-07
0.000103107
2.0054e-07
0.000103136
2.04692e-07
0.000103166
2.06376e-07
0.000103195
2.05989e-07
0.000103224
2.0387e-07
0.000103254
2.00312e-07
0.000103282
1.95562e-07
0.000103311
1.89828e-07
0.000103339
1.83284e-07
0.000103366
1.76078e-07
0.000103393
1.68332e-07
0.000103419
1.6015e-07
0.000103445
1.51619e-07
0.00010347
1.42812e-07
0.000103495
1.33791e-07
0.000103519
1.24608e-07
0.000103542
1.15308e-07
0.000103565
1.05929e-07
0.000103587
9.65079e-08
0.000103609
8.70734e-08
0.00010363
7.76545e-08
0.00010365
6.82774e-08
0.00010367
5.89684e-08
0.000103689
4.97478e-08
4.06593e-08
0.000103707
0.000105872
1.79459e-08
0.000105881
5.17303e-08
0.000105896
8.1547e-08
0.000105914
1.06811e-07
0.000105936
1.27525e-07
0.000105961
1.4399e-07
0.000105987
1.56594e-07
0.000106015
1.65758e-07
0.000106043
1.71922e-07
0.000106073
1.75508e-07
0.000106102
1.76898e-07
0.000106132
1.7643e-07
0.000106161
1.74397e-07
0.00010619
1.71054e-07
0.000106219
1.66618e-07
0.000106248
1.61274e-07
0.000106276
1.55178e-07
0.000106303
1.48464e-07
0.000106331
1.41243e-07
0.000106357
1.33612e-07
0.000106383
1.2565e-07
0.000106408
1.17426e-07
0.000106433
1.08999e-07
0.000106457
1.00419e-07
0.000106481
9.17305e-08
0.000106504
8.29706e-08
0.000106526
7.41738e-08
0.000106548
6.5371e-08
0.000106569
5.65906e-08
0.00010659
4.78587e-08
0.000106609
3.92014e-08
0.000106628
3.06384e-08
2.22107e-08
0.000106647
0.000108896
1.48549e-08
0.000108905
4.284e-08
0.000108919
6.76138e-08
0.000108937
8.87057e-08
0.000108959
1.06084e-07
0.000108983
1.19947e-07
0.000109009
1.30579e-07
0.000109036
1.38303e-07
0.000109065
1.43464e-07
0.000109094
1.46401e-07
0.000109123
1.47424e-07
0.000109153
1.46813e-07
0.000109183
1.44816e-07
0.000109212
1.41647e-07
0.000109241
1.37495e-07
0.00010927
1.32519e-07
0.000109298
1.26857e-07
0.000109326
1.20627e-07
0.000109353
1.1393e-07
0.00010938
1.06852e-07
0.000109406
9.94669e-08
0.000109432
9.18377e-08
0.000109457
8.40191e-08
0.000109481
7.60592e-08
0.000109505
6.79993e-08
0.000109528
5.98766e-08
0.000109551
5.17243e-08
0.000109572
4.35724e-08
0.000109593
3.54488e-08
0.000109614
2.7379e-08
0.000109634
1.93886e-08
0.000109653
1.14963e-08
3.7409e-09
0.000109671
0.000112007
1.18543e-08
0.000112016
3.41998e-08
0.00011203
5.40324e-08
0.000112047
7.09831e-08
0.000112069
8.50022e-08
0.000112092
9.62106e-08
0.000112118
1.04801e-07
0.000112145
1.1101e-07
0.000112174
1.15094e-07
0.000112203
1.17312e-07
0.000112232
1.17907e-07
0.000112262
1.17103e-07
0.000112292
1.15098e-07
0.000112321
1.12071e-07
0.000112351
1.08178e-07
0.00011238
1.03552e-07
0.000112408
9.8314e-08
0.000112436
9.25641e-08
0.000112464
8.6391e-08
0.000112491
7.98712e-08
0.000112517
7.3071e-08
0.000112543
6.60476e-08
0.000112568
5.88519e-08
0.000112593
5.15276e-08
0.000112616
4.41144e-08
0.00011264
3.66471e-08
0.000112662
2.91575e-08
0.000112684
2.16745e-08
0.000112705
1.42249e-08
0.000112726
6.83319e-09
0.000112746
-4.76113e-10
0.000112765
-7.68448e-09
-1.47555e-08
0.000112783
0.000115207
8.90789e-09
0.000115216
2.57151e-08
0.000115229
4.06716e-08
0.000115247
5.34983e-08
0.000115268
6.41377e-08
0.000115291
7.26484e-08
0.000115317
7.91439e-08
0.000115344
8.3777e-08
0.000115372
8.67246e-08
0.000115402
8.81698e-08
0.000115431
8.829e-08
0.000115461
8.72518e-08
0.000115491
8.52081e-08
0.000115521
8.22978e-08
0.00011555
7.86448e-08
0.000115579
7.43593e-08
0.000115608
6.95384e-08
0.000115637
6.42678e-08
0.000115664
5.86226e-08
0.000115691
5.26687e-08
0.000115718
4.64642e-08
0.000115744
4.00606e-08
0.000115769
3.35028e-08
0.000115794
2.68315e-08
0.000115818
2.00828e-08
0.000115842
1.32893e-08
0.000115864
6.48057e-09
0.000115886
-3.15979e-10
0.000115907
-7.07533e-09
0.000115928
-1.37743e-08
0.000115948
-2.03905e-08
0.000115967
-2.6908e-08
-3.32938e-08
0.000115986
0.000118499
5.97666e-09
0.000118507
1.72899e-08
0.00011852
2.73969e-08
0.000118538
3.60994e-08
0.000118559
4.33376e-08
0.000118582
4.91161e-08
0.000118608
5.34751e-08
0.000118635
5.64892e-08
0.000118664
5.8258e-08
0.000118693
5.88918e-08
0.000118723
5.85033e-08
0.000118753
5.72036e-08
0.000118783
5.50988e-08
0.000118813
5.22889e-08
0.000118843
4.88659e-08
0.000118872
4.49139e-08
0.000118901
4.05091e-08
0.00011893
3.572e-08
0.000118958
3.06082e-08
0.000118985
2.52289e-08
0.000119012
1.96316e-08
0.000119038
1.38605e-08
0.000119064
7.95572e-09
0.000119089
1.95305e-09
0.000119113
-4.11472e-09
0.000119136
-1.0218e-08
0.000119159
-1.63292e-08
0.000119181
-2.24236e-08
0.000119203
-2.84773e-08
0.000119223
-3.44691e-08
0.000119243
-4.03773e-08
0.000119263
-4.61856e-08
-5.18624e-08
0.000119281
0.000121884
3.0293e-09
0.000121893
8.83427e-09
0.000121906
1.40742e-08
0.000121923
1.86291e-08
0.000121944
2.24388e-08
0.000121968
2.5456e-08
0.000121994
2.7649e-08
0.000122021
2.90159e-08
0.00012205
2.95803e-08
0.00012208
2.93808e-08
0.00012211
2.84659e-08
0.00012214
2.68913e-08
0.00012217
2.47165e-08
0.000122201
2.20024e-08
0.000122231
1.88089e-08
0.00012226
1.51936e-08
0.00012229
1.12114e-08
0.000122318
6.91322e-09
0.000122347
2.34702e-09
0.000122374
-2.44351e-09
0.000122401
-7.41786e-09
0.000122428
-1.2539e-08
0.000122454
-1.77728e-08
0.000122479
-2.30881e-08
0.000122503
-2.84562e-08
0.000122527
-3.38505e-08
0.000122549
-3.92466e-08
0.000122572
-4.46216e-08
0.000122593
-4.99545e-08
0.000122614
-5.52261e-08
0.000122634
-6.04181e-08
0.000122653
-6.55183e-08
-7.05005e-08
0.000122672
0.000125366
5.0821e-11
0.000125375
2.62866e-10
0.000125389
5.64475e-10
0.000125406
9.18767e-10
0.000125427
1.26296e-09
0.000125451
1.49306e-09
0.000125478
1.50192e-09
0.000125505
1.20916e-09
0.000125534
5.6106e-10
0.000125564
-4.76477e-10
0.000125595
-1.91999e-09
0.000125625
-3.76959e-09
0.000125656
-6.01245e-09
0.000125687
-8.62678e-09
0.000125717
-1.1585e-08
0.000125747
-1.48558e-08
0.000125777
-1.8406e-08
0.000125806
-2.22017e-08
0.000125834
-2.62096e-08
0.000125862
-3.03971e-08
0.00012589
-3.47331e-08
0.000125916
-3.9188e-08
0.000125942
-4.37341e-08
0.000125967
-4.8345e-08
0.000125992
-5.29963e-08
0.000126016
-5.76649e-08
0.000126039
-6.23292e-08
0.000126061
-6.69691e-08
0.000126083
-7.15655e-08
0.000126104
-7.61006e-08
0.000126124
-8.05565e-08
0.000126143
-8.49182e-08
-8.91593e-08
0.000126162
0.000128948
-3.00468e-09
0.000128957
-8.54932e-09
0.000128971
-1.33158e-08
0.000128989
-1.72452e-08
0.000129011
-2.04102e-08
0.000129035
-2.29854e-08
0.000129062
-2.51633e-08
0.00012909
-2.71077e-08
0.00012912
-2.89531e-08
0.00012915
-3.08095e-08
0.000129181
-3.27604e-08
0.000129212
-3.48627e-08
0.000129243
-3.71509e-08
0.000129274
-3.96427e-08
0.000129305
-4.23428e-08
0.000129335
-4.52465e-08
0.000129365
-4.8342e-08
0.000129395
-5.1613e-08
0.000129423
-5.504e-08
0.000129452
-5.86022e-08
0.000129479
-6.22778e-08
0.000129506
-6.60449e-08
0.000129532
-6.98817e-08
0.000129558
-7.37675e-08
0.000129582
-7.76818e-08
0.000129606
-8.16054e-08
0.000129629
-8.55199e-08
0.000129652
-8.94082e-08
0.000129674
-9.3254e-08
0.000129694
-9.70431e-08
0.000129715
-1.00762e-07
0.000129734
-1.04403e-07
-1.07947e-07
0.000129753
0.000132632
-6.20268e-09
0.000132641
-1.77722e-08
0.000132656
-2.78073e-08
0.000132675
-3.61344e-08
0.000132697
-4.28537e-08
0.000132723
-4.82384e-08
0.00013275
-5.25844e-08
0.000132779
-5.61486e-08
0.000132809
-5.91532e-08
0.00013284
-6.17896e-08
0.000132872
-6.4211e-08
0.000132903
-6.65315e-08
0.000132935
-6.88332e-08
0.000132967
-7.11726e-08
0.000132998
-7.35868e-08
0.000133029
-7.60968e-08
0.000133059
-7.87121e-08
0.000133089
-8.14335e-08
0.000133118
-8.42557e-08
0.000133147
-8.71689e-08
0.000133174
-9.0161e-08
0.000133202
-9.32174e-08
0.000133228
-9.63231e-08
0.000133254
-9.94621e-08
0.000133279
-1.02619e-07
0.000133303
-1.05777e-07
0.000133326
-1.08923e-07
0.000133349
-1.1204e-07
0.000133371
-1.15116e-07
0.000133392
-1.18135e-07
0.000133412
-1.21084e-07
0.000133432
-1.23949e-07
-1.26708e-07
0.000133451
0.000136422
-9.62415e-09
0.000136432
-2.76284e-08
0.000136447
-4.32217e-08
0.000136467
-5.6093e-08
0.00013649
-6.64066e-08
0.000136517
-7.45815e-08
0.000136545
-8.1042e-08
0.000136575
-8.61503e-08
0.000136606
-9.02281e-08
0.000136638
-9.35582e-08
0.00013667
-9.63689e-08
0.000136703
-9.88341e-08
0.000136735
-1.01083e-07
0.000136767
-1.03212e-07
0.000136799
-1.05289e-07
0.00013683
-1.0736e-07
0.000136861
-1.09455e-07
0.000136891
-1.1159e-07
0.00013692
-1.13775e-07
0.000136949
-1.16009e-07
0.000136977
-1.18289e-07
0.000137005
-1.20609e-07
0.000137031
-1.22959e-07
0.000137057
-1.25328e-07
0.000137082
-1.27705e-07
0.000137107
-1.30079e-07
0.00013713
-1.32437e-07
0.000137153
-1.34768e-07
0.000137175
-1.37062e-07
0.000137196
-1.39308e-07
0.000137216
-1.415e-07
0.000137236
-1.43636e-07
-1.45699e-07
0.000137255
0.00014032
-1.33809e-08
0.00014033
-3.84275e-08
0.000140347
-5.99785e-08
0.000140369
-7.75622e-08
0.000140394
-9.14894e-08
0.000140421
-1.02408e-07
0.000140451
-1.10905e-07
0.000140483
-1.17461e-07
0.000140515
-1.22508e-07
0.000140548
-1.26431e-07
0.000140581
-1.29537e-07
0.000140614
-1.3206e-07
0.000140647
-1.34177e-07
0.00014068
-1.36024e-07
0.000140712
-1.37699e-07
0.000140744
-1.39273e-07
0.000140776
-1.40795e-07
0.000140806
-1.42296e-07
0.000140836
-1.43799e-07
0.000140866
-1.45313e-07
0.000140894
-1.46845e-07
0.000140922
-1.48393e-07
0.000140949
-1.49954e-07
0.000140975
-1.51524e-07
0.000141001
-1.53093e-07
0.000141025
-1.54654e-07
0.000141049
-1.56198e-07
0.000141072
-1.57717e-07
0.000141094
-1.59199e-07
0.000141115
-1.60636e-07
0.000141136
-1.62014e-07
0.000141156
-1.63323e-07
-1.64544e-07
0.000141174
0.000144329
-1.76363e-08
0.000144341
-5.06207e-08
0.00014436
-7.86668e-08
0.000144383
-1.01126e-07
0.00014441
-1.18612e-07
0.00014444
-1.3213e-07
0.000144472
-1.42472e-07
0.000144505
-1.50262e-07
0.000144538
-1.56073e-07
0.000144572
-1.6041e-07
0.000144606
-1.63658e-07
0.00014464
-1.6611e-07
0.000144674
-1.67988e-07
0.000144707
-1.69462e-07
0.00014474
-1.70659e-07
0.000144773
-1.71671e-07
0.000144805
-1.72564e-07
0.000144836
-1.73383e-07
0.000144866
-1.74161e-07
0.000144896
-1.74917e-07
0.000144924
-1.75665e-07
0.000144952
-1.7641e-07
0.00014498
-1.77154e-07
0.000145006
-1.77896e-07
0.000145032
-1.78633e-07
0.000145056
-1.7936e-07
0.00014508
-1.80072e-07
0.000145103
-1.80762e-07
0.000145125
-1.81425e-07
0.000145147
-1.82058e-07
0.000145168
-1.82656e-07
0.000145187
-1.83224e-07
-1.83751e-07
0.000145207
0.000148453
-2.26466e-08
0.000148467
-6.48899e-08
0.000148489
-1.00113e-07
0.000148515
-1.27577e-07
0.000148545
-1.48544e-07
0.000148577
-1.64528e-07
0.000148612
-1.76519e-07
0.000148647
-1.85296e-07
0.000148682
-1.91618e-07
0.000148718
-1.96129e-07
0.000148753
-1.99304e-07
0.000148789
-2.01491e-07
0.000148824
-2.0296e-07
0.000148858
-2.03916e-07
0.000148892
-2.0451e-07
0.000148925
-2.04853e-07
0.000148958
-2.05023e-07
0.000148989
-2.05078e-07
0.00014902
-2.0506e-07
0.00014905
-2.04995e-07
0.00014908
-2.04903e-07
0.000149108
-2.04793e-07
0.000149136
-2.04673e-07
0.000149162
-2.04545e-07
0.000149188
-2.0441e-07
0.000149213
-2.04264e-07
0.000149237
-2.04105e-07
0.00014926
-2.03929e-07
0.000149282
-2.03729e-07
0.000149304
-2.035e-07
0.000149324
-2.03232e-07
0.000149344
-2.02912e-07
-2.02532e-07
0.000149363
0.000152695
-2.88634e-08
0.000152713
-8.23932e-08
0.000152738
-1.25506e-07
0.000152768
-1.57704e-07
0.000152801
-1.81662e-07
0.000152837
-1.99665e-07
0.000152873
-2.12884e-07
0.00015291
-2.22266e-07
0.000152947
-2.28781e-07
0.000152984
-2.33211e-07
0.000153021
-2.361e-07
0.000153057
-2.37845e-07
0.000153093
-2.38754e-07
0.000153128
-2.39063e-07
0.000153163
-2.38943e-07
0.000153196
-2.38519e-07
0.000153229
-2.37883e-07
0.000153261
-2.37102e-07
0.000153292
-2.36223e-07
0.000153323
-2.3528e-07
0.000153352
-2.34297e-07
0.000153381
-2.33289e-07
0.000153408
-2.32266e-07
0.000153435
-2.31234e-07
0.000153461
-2.30196e-07
0.000153486
-2.29152e-07
0.00015351
-2.28102e-07
0.000153533
-2.27045e-07
0.000153555
-2.2598e-07
0.000153576
-2.24906e-07
0.000153597
-2.23825e-07
0.000153617
-2.22746e-07
-2.21659e-07
0.000153636
0.00015706
-3.70371e-08
0.000157082
-1.05095e-07
0.000157114
-1.57059e-07
0.00015715
-1.93701e-07
0.000157188
-2.20152e-07
0.000157228
-2.39532e-07
0.000157269
-2.53182e-07
0.000157309
-2.62391e-07
0.000157348
-2.68443e-07
0.000157387
-2.72255e-07
0.000157426
-2.74418e-07
0.000157463
-2.75363e-07
0.0001575
-2.75426e-07
0.000157536
-2.74857e-07
0.000157571
-2.73837e-07
0.000157605
-2.72494e-07
0.000157638
-2.70925e-07
0.00015767
-2.69199e-07
0.000157701
-2.67367e-07
0.000157731
-2.65467e-07
0.00015776
-2.63523e-07
0.000157789
-2.61554e-07
0.000157816
-2.59572e-07
0.000157842
-2.57585e-07
0.000157868
-2.55598e-07
0.000157892
-2.53613e-07
0.000157916
-2.51631e-07
0.000157938
-2.49651e-07
0.00015796
-2.4767e-07
0.000157981
-2.45686e-07
0.000158001
-2.43693e-07
0.000158019
-2.41679e-07
-2.39644e-07
0.000158037
0.00016155
-4.90111e-08
0.000161581
-1.35631e-07
0.000161619
-1.95196e-07
0.00016166
-2.34431e-07
0.000161702
-2.62612e-07
0.000161746
-2.82837e-07
0.000161789
-2.9626e-07
0.000161831
-3.04658e-07
0.000161872
-3.09707e-07
0.000161912
-3.12438e-07
0.000161951
-3.13469e-07
0.000161989
-3.13263e-07
0.000162026
-3.12183e-07
0.000162062
-3.10491e-07
0.000162096
-3.08366e-07
0.00016213
-3.05938e-07
0.000162162
-3.03301e-07
0.000162193
-3.00525e-07
0.000162224
-2.97659e-07
0.000162253
-2.94737e-07
0.000162281
-2.91785e-07
0.000162308
-2.88819e-07
0.000162335
-2.85853e-07
0.00016236
-2.82895e-07
0.000162384
-2.79949e-07
0.000162408
-2.77018e-07
0.00016243
-2.74105e-07
0.000162452
-2.71209e-07
0.000162473
-2.68333e-07
0.000162492
-2.65477e-07
0.000162511
-2.62644e-07
0.000162529
-2.59848e-07
-2.57082e-07
0.000162547
0.000166174
-6.96573e-08
0.000166223
-1.84583e-07
0.000166276
-2.47759e-07
0.000166326
-2.84596e-07
0.000166374
-3.11058e-07
0.000166421
-3.29285e-07
0.000166465
-3.4022e-07
0.000166506
-3.46214e-07
0.000166546
-3.49164e-07
0.000166583
-3.50031e-07
0.000166619
-3.49365e-07
0.000166654
-3.47603e-07
0.000166687
-3.45089e-07
0.000166718
-3.42057e-07
0.000166748
-3.38669e-07
0.000166777
-3.35037e-07
0.000166805
-3.31245e-07
0.000166832
-3.27353e-07
0.000166858
-3.23405e-07
0.000166883
-3.1943e-07
0.000166906
-3.1545e-07
0.000166929
-3.1148e-07
0.000166951