/*--------------------------------*- C++ -*----------------------------------*\
| =========                 |                                                 |
| \\      /  F ield         | OpenFOAM: The Open Source CFD Toolbox           |
|  \\    /   O peration     | Version:  4.1                                   |
|   \\  /    A nd           | Web:      www.OpenFOAM.org                      |
|    \\/     M anipulation  |                                                 |
\*---------------------------------------------------------------------------*/
FoamFile
{
    version     2.0;
    format      ascii;
    class       volVectorField;
    location    "1800";
    object      U;
}
// * * * * * * * * * * * * * * * * * * * * * * * * * * * * * * * * * * * * * //

dimensions      [0 1 -1 0 0 0 0];

internalField   nonuniform List<vector> 
6820
(
(7.2813 0.0192603 0)
(7.18936 0.0329224 0)
(7.0895 0.0360689 0)
(6.98491 0.0374729 0)
(6.88226 0.0387345 0)
(6.7831 0.0397556 0)
(6.68718 0.0405158 0)
(6.59472 0.0410297 0)
(6.50618 0.0412713 0)
(6.42176 0.0412187 0)
(6.34144 0.0408782 0)
(6.26513 0.040277 0)
(6.19273 0.0394507 0)
(6.12412 0.0384369 0)
(6.05912 0.037272 0)
(5.99759 0.0359901 0)
(5.93935 0.0346214 0)
(5.88423 0.0331921 0)
(5.8321 0.0317243 0)
(5.78279 0.0302364 0)
(5.73617 0.0287434 0)
(5.6921 0.0272573 0)
(5.65046 0.0257875 0)
(5.61112 0.0243411 0)
(5.57397 0.0229238 0)
(5.53892 0.0215395 0)
(5.50586 0.0201904 0)
(5.47471 0.0188809 0)
(5.44533 0.0176027 0)
(5.41784 0.0163867 0)
(5.39148 0.015167 0)
(5.36902 0.0139111 0)
(5.34246 0.0139876 0)
(7.35129 0.0206776 0)
(7.39587 0.0322614 0)
(7.42787 0.0326356 0)
(7.44987 0.0332017 0)
(7.46739 0.0343599 0)
(7.48118 0.0351445 0)
(7.49064 0.0355189 0)
(7.49593 0.0356542 0)
(7.49763 0.0356103 0)
(7.49622 0.0354081 0)
(7.49207 0.0350811 0)
(7.48557 0.0346672 0)
(7.47707 0.0341959 0)
(7.46691 0.0336875 0)
(7.45537 0.0331559 0)
(7.44272 0.0326109 0)
(7.42918 0.032059 0)
(7.41493 0.0315041 0)
(7.40014 0.0309486 0)
(7.38495 0.0303934 0)
(7.36949 0.029839 0)
(7.35385 0.0292853 0)
(7.33812 0.0287319 0)
(7.32238 0.0281783 0)
(7.30668 0.0276236 0)
(7.29109 0.0270672 0)
(7.27564 0.0265073 0)
(7.26038 0.0259472 0)
(7.24534 0.0253696 0)
(7.23054 0.0248338 0)
(7.21607 0.0241283 0)
(7.20165 0.0238796 0)
(7.18868 0.0219987 0)
(7.33498 0.0124972 0)
(7.34477 0.0201473 0)
(7.35181 0.0214421 0)
(7.35496 0.0233119 0)
(7.35732 0.0252257 0)
(7.35979 0.0263816 0)
(7.362 0.0270188 0)
(7.36384 0.0274553 0)
(7.36547 0.0277918 0)
(7.36696 0.0280465 0)
(7.36826 0.0282375 0)
(7.36935 0.0283827 0)
(7.37019 0.0284909 0)
(7.37079 0.0285642 0)
(7.37113 0.0286024 0)
(7.3712 0.0286055 0)
(7.371 0.0285735 0)
(7.37054 0.0285066 0)
(7.36981 0.0284052 0)
(7.36883 0.02827 0)
(7.36761 0.0281021 0)
(7.36615 0.0279027 0)
(7.36447 0.0276732 0)
(7.36258 0.0274147 0)
(7.3605 0.0271285 0)
(7.35825 0.026816 0)
(7.35584 0.0264776 0)
(7.35328 0.0261151 0)
(7.3506 0.0257268 0)
(7.34781 0.025315 0)
(7.34491 0.0248784 0)
(7.34192 0.0243645 0)
(7.33896 0.0239327 0)
(7.3347 0.00985765 0)
(7.34304 0.0202391 0)
(7.35045 0.0247379 0)
(7.35468 0.0280676 0)
(7.35778 0.0307885 0)
(7.36077 0.0326924 0)
(7.36343 0.0340309 0)
(7.36564 0.0350516 0)
(7.36756 0.0358228 0)
(7.3693 0.0363546 0)
(7.37087 0.0366706 0)
(7.37229 0.0368044 0)
(7.37357 0.0367864 0)
(7.37473 0.036642 0)
(7.37579 0.0363935 0)
(7.37676 0.0360611 0)
(7.37765 0.0356622 0)
(7.37846 0.0352109 0)
(7.3792 0.0347192 0)
(7.37987 0.0341962 0)
(7.38048 0.0336496 0)
(7.38103 0.0330851 0)
(7.38153 0.0325072 0)
(7.38198 0.0319189 0)
(7.38238 0.0313224 0)
(7.38275 0.0307192 0)
(7.38307 0.0301096 0)
(7.38337 0.0294945 0)
(7.38365 0.0288702 0)
(7.3839 0.0282431 0)
(7.38414 0.0275947 0)
(7.38437 0.0269526 0)
(7.3846 0.0263142 0)
(7.33417 0.00784833 0)
(7.3405 0.0172867 0)
(7.34711 0.021246 0)
(7.35171 0.0237419 0)
(7.35548 0.0258496 0)
(7.3592 0.0273803 0)
(7.36268 0.028414 0)
(7.3658 0.0291468 0)
(7.36865 0.0296698 0)
(7.37132 0.0300166 0)
(7.37384 0.0302221 0)
(7.37621 0.0303222 0)
(7.37843 0.0303439 0)
(7.38054 0.0303056 0)
(7.38254 0.03022 0)
(7.38444 0.0300968 0)
(7.38624 0.0299427 0)
(7.38796 0.0297625 0)
(7.38961 0.0295592 0)
(7.39118 0.0293347 0)
(7.3927 0.0290904 0)
(7.39415 0.0288268 0)
(7.39555 0.0285442 0)
(7.39691 0.0282426 0)
(7.39822 0.0279216 0)
(7.39951 0.0275807 0)
(7.40076 0.0272188 0)
(7.40198 0.0268351 0)
(7.40319 0.0264274 0)
(7.40439 0.0259959 0)
(7.40558 0.0255367 0)
(7.40676 0.0250535 0)
(7.40797 0.0245585 0)
(7.33381 0.00630819 0)
(7.33861 0.0150537 0)
(7.34442 0.0196755 0)
(7.34904 0.0229117 0)
(7.35294 0.0256593 0)
(7.35675 0.0277509 0)
(7.36037 0.0292581 0)
(7.36368 0.0303937 0)
(7.36676 0.0312701 0)
(7.36969 0.0319277 0)
(7.37246 0.0323985 0)
(7.3751 0.0327145 0)
(7.37761 0.0329007 0)
(7.38001 0.0329761 0)
(7.3823 0.0329561 0)
(7.3845 0.0328544 0)
(7.38662 0.0326825 0)
(7.38866 0.0324506 0)
(7.39063 0.0321669 0)
(7.39253 0.0318387 0)
(7.39438 0.0314717 0)
(7.39618 0.0310709 0)
(7.39793 0.0306402 0)
(7.39964 0.0301826 0)
(7.40131 0.0297002 0)
(7.40295 0.0291946 0)
(7.40457 0.0286665 0)
(7.40616 0.0281161 0)
(7.40774 0.0275426 0)
(7.4093 0.0269455 0)
(7.41086 0.026323 0)
(7.41242 0.025673 0)
(7.41401 0.0250042 0)
(7.33356 0.00519296 0)
(7.33722 0.013153 0)
(7.34215 0.0178517 0)
(7.34647 0.0210123 0)
(7.35023 0.023506 0)
(7.3539 0.0253483 0)
(7.35745 0.0266385 0)
(7.36077 0.0275704 0)
(7.36389 0.0282521 0)
(7.36687 0.0287269 0)
(7.36972 0.0290301 0)
(7.37245 0.0291968 0)
(7.37506 0.0292553 0)
(7.37757 0.029227 0)
(7.37999 0.0291288 0)
(7.38233 0.0289743 0)
(7.38459 0.0287741 0)
(7.38678 0.0285365 0)
(7.3889 0.0282676 0)
(7.39096 0.027972 0)
(7.39298 0.027653 0)
(7.39494 0.0273128 0)
(7.39686 0.0269526 0)
(7.39874 0.0265732 0)
(7.40059 0.0261744 0)
(7.4024 0.0257558 0)
(7.40419 0.0253161 0)
(7.40596 0.024854 0)
(7.40771 0.0243671 0)
(7.40944 0.0238528 0)
(7.41117 0.0233082 0)
(7.41289 0.0227268 0)
(7.41462 0.0221094 0)
(7.33341 0.00435415 0)
(7.33622 0.0115132 0)
(7.34039 0.0161815 0)
(7.34439 0.0194343 0)
(7.34802 0.0220417 0)
(7.35158 0.0240781 0)
(7.35506 0.0256024 0)
(7.35836 0.0267625 0)
(7.36149 0.0276576 0)
(7.36449 0.0283344 0)
(7.36737 0.0288285 0)
(7.37013 0.0291732 0)
(7.37279 0.029395 0)
(7.37535 0.0295135 0)
(7.37782 0.0295439 0)
(7.38021 0.0294989 0)
(7.38252 0.0293886 0)
(7.38477 0.0292213 0)
(7.38695 0.0290038 0)
(7.38907 0.0287416 0)
(7.39114 0.028439 0)
(7.39316 0.0280996 0)
(7.39514 0.0277261 0)
(7.39708 0.0273206 0)
(7.39898 0.0268844 0)
(7.40085 0.0264183 0)
(7.4027 0.0259222 0)
(7.40452 0.0253956 0)
(7.40632 0.0248372 0)
(7.4081 0.0242449 0)
(7.40988 0.0236158 0)
(7.41164 0.022944 0)
(7.4134 0.0222274 0)
(7.3333 0.00371129 0)
(7.3355 0.0101276 0)
(7.33902 0.0146563 0)
(7.34267 0.0178948 0)
(7.34609 0.0204493 0)
(7.34946 0.0224311 0)
(7.35279 0.0238991 0)
(7.356 0.0249868 0)
(7.35906 0.0257972 0)
(7.36201 0.0263846 0)
(7.36486 0.0267875 0)
(7.3676 0.0270407 0)
(7.37025 0.0271719 0)
(7.37282 0.0272027 0)
(7.3753 0.02715 0)
(7.3777 0.0270277 0)
(7.38004 0.0268473 0)
(7.38231 0.0266178 0)
(7.38452 0.0263465 0)
(7.38668 0.0260388 0)
(7.38878 0.0256993 0)
(7.39084 0.0253309 0)
(7.39286 0.024936 0)
(7.39484 0.0245159 0)
(7.39678 0.0240712 0)
(7.3987 0.0236018 0)
(7.40058 0.0231069 0)
(7.40244 0.0225851 0)
(7.40428 0.0220343 0)
(7.40609 0.0214515 0)
(7.40789 0.0208329 0)
(7.40968 0.0201718 0)
(7.41145 0.0194651 0)
(7.33324 0.00320677 0)
(7.33498 0.00894632 0)
(7.33796 0.0132556 0)
(7.34125 0.0164316 0)
(7.34446 0.0189418 0)
(7.34766 0.0209247 0)
(7.35085 0.0224409 0)
(7.35396 0.0235994 0)
(7.35696 0.0244912 0)
(7.35986 0.0251675 0)
(7.36268 0.0256639 0)
(7.36541 0.0260122 0)
(7.36805 0.0262382 0)
(7.37061 0.026362 0)
(7.37309 0.026399 0)
(7.3755 0.0263621 0)
(7.37785 0.0262613 0)
(7.38013 0.0261048 0)
(7.38235 0.0258991 0)
(7.38452 0.0256493 0)
(7.38663 0.0253592 0)
(7.3887 0.025032 0)
(7.39073 0.0246697 0)
(7.39272 0.024274 0)
(7.39467 0.0238456 0)
(7.39659 0.0233847 0)
(7.39847 0.022891 0)
(7.40033 0.0223634 0)
(7.40216 0.0218004 0)
(7.40397 0.0211993 0)
(7.40576 0.0205571 0)
(7.40752 0.0198684 0)
(7.40926 0.0191312 0)
(7.33319 0.00280017 0)
(7.3346 0.00793324 0)
(7.33714 0.0119802 0)
(7.3401 0.0150543 0)
(7.34309 0.0174943 0)
(7.3461 0.0194359 0)
(7.34913 0.0209351 0)
(7.35211 0.0220794 0)
(7.35502 0.0229505 0)
(7.35784 0.0236005 0)
(7.3606 0.024066 0)
(7.36327 0.0243789 0)
(7.36587 0.0245657 0)
(7.3684 0.024647 0)
(7.37085 0.0246391 0)
(7.37324 0.0245556 0)
(7.37557 0.0244074 0)
(7.37784 0.0242034 0)
(7.38005 0.0239506 0)
(7.38221 0.0236548 0)
(7.38432 0.0233205 0)
(7.38638 0.022951 0)
(7.38841 0.0225488 0)
(7.39039 0.0221157 0)
(7.39234 0.0216525 0)
(7.39425 0.0211596 0)
(7.39613 0.0206366 0)
(7.39798 0.0200824 0)
(7.39981 0.0194955 0)
(7.4016 0.0188734 0)
(7.40337 0.0182133 0)
(7.40511 0.0175104 0)
(7.40682 0.0167634 0)
(7.33316 0.00246424 0)
(7.33432 0.00705674 0)
(7.3365 0.0108181 0)
(7.33915 0.0137565 0)
(7.34192 0.0161062 0)
(7.34475 0.0179921 0)
(7.34762 0.0194698 0)
(7.35048 0.0206131 0)
(7.35329 0.0214948 0)
(7.35604 0.0221649 0)
(7.35873 0.0226587 0)
(7.36136 0.0230058 0)
(7.36392 0.023231 0)
(7.36642 0.0233537 0)
(7.36885 0.0233892 0)
(7.37122 0.0233501 0)
(7.37353 0.0232465 0)
(7.37579 0.0230866 0)
(7.37799 0.0228767 0)
(7.38014 0.0226221 0)
(7.38224 0.0223265 0)
(7.3843 0.0219931 0)
(7.38631 0.0216239 0)
(7.38828 0.0212204 0)
(7.39022 0.0207833 0)
(7.39212 0.0203129 0)
(7.39398 0.0198088 0)
(7.39582 0.0192701 0)
(7.39762 0.0186955 0)
(7.39938 0.0180831 0)
(7.40112 0.0174306 0)
(7.40282 0.0167344 0)
(7.40449 0.0159945 0)
(7.33314 0.0021802 0)
(7.33411 0.00629039 0)
(7.33599 0.009758 0)
(7.33838 0.0125364 0)
(7.34093 0.0147801 0)
(7.34358 0.016595 0)
(7.3463 0.0180335 0)
(7.34903 0.0191555 0)
(7.35174 0.0200229 0)
(7.3544 0.0206817 0)
(7.35702 0.0211654 0)
(7.35959 0.0215017 0)
(7.36209 0.0217144 0)
(7.36454 0.0218224 0)
(7.36693 0.0218409 0)
(7.36926 0.0217824 0)
(7.37154 0.0216572 0)
(7.37377 0.0214735 0)
(7.37594 0.0212381 0)
(7.37807 0.0209563 0)
(7.38015 0.0206324 0)
(7.38218 0.0202697 0)
(7.38417 0.0198707 0)
(7.38612 0.0194372 0)
(7.38804 0.0189703 0)
(7.38991 0.0184705 0)
(7.39175 0.0179378 0)
(7.39356 0.0173719 0)
(7.39533 0.0167716 0)
(7.39706 0.0161358 0)
(7.39877 0.0154628 0)
(7.40043 0.0147502 0)
(7.40206 0.0139988 0)
(7.33312 0.00193505 0)
(7.33395 0.00561293 0)
(7.33559 0.00878802 0)
(7.33773 0.0113893 0)
(7.34009 0.0135127 0)
(7.34258 0.0152434 0)
(7.34515 0.016629 0)
(7.34775 0.0177195 0)
(7.35035 0.0185679 0)
(7.35293 0.0192167 0)
(7.35547 0.0196976 0)
(7.35797 0.0200369 0)
(7.36043 0.020257 0)
(7.36283 0.0203759 0)
(7.36518 0.0204082 0)
(7.36748 0.0203657 0)
(7.36973 0.0202582 0)
(7.37193 0.0200934 0)
(7.37408 0.0198778 0)
(7.37618 0.0196164 0)
(7.37824 0.0193131 0)
(7.38025 0.0189709 0)
(7.38222 0.0185922 0)
(7.38415 0.0181785 0)
(7.38604 0.0177308 0)
(7.38789 0.0172496 0)
(7.38971 0.016735 0)
(7.39148 0.0161865 0)
(7.39323 0.0156035 0)
(7.39493 0.0149851 0)
(7.39659 0.0143303 0)
(7.39822 0.0136373 0)
(7.3998 0.0129076 0)
(7.33311 0.0017196 0)
(7.33382 0.00500732 0)
(7.33526 0.00789672 0)
(7.3372 0.0103097 0)
(7.33938 0.0123014 0)
(7.34171 0.013937 0)
(7.34413 0.0152581 0)
(7.34662 0.0163062 0)
(7.34911 0.0171259 0)
(7.3516 0.0177547 0)
(7.35407 0.0182217 0)
(7.3565 0.0185511 0)
(7.35889 0.0187633 0)
(7.36124 0.0188752 0)
(7.36355 0.0189005 0)
(7.36581 0.0188506 0)
(7.36802 0.0187348 0)
(7.37018 0.0185606 0)
(7.37229 0.0183342 0)
(7.37436 0.0180607 0)
(7.37639 0.0177441 0)
(7.37837 0.0173875 0)
(7.38031 0.0169933 0)
(7.38221 0.0165633 0)
(7.38407 0.0160987 0)
(7.38589 0.0156005 0)
(7.38767 0.0150688 0)
(7.38941 0.014504 0)
(7.39112 0.0139057 0)
(7.39278 0.0132736 0)
(7.3944 0.0126075 0)
(7.39599 0.0119064 0)
(7.39753 0.0111725 0)
(7.3331 0.00152726 0)
(7.33372 0.00445999 0)
(7.335 0.0070735 0)
(7.33676 0.00929183 0)
(7.33877 0.0111427 0)
(7.34095 0.0126738 0)
(7.34325 0.0139201 0)
(7.34561 0.014916 0)
(7.34801 0.0156987 0)
(7.35041 0.0163011 0)
(7.35279 0.0167499 0)
(7.35516 0.0170672 0)
(7.3575 0.017272 0)
(7.35979 0.0173801 0)
(7.36205 0.0174045 0)
(7.36427 0.017356 0)
(7.36644 0.0172434 0)
(7.36857 0.017074 0)
(7.37065 0.0168538 0)
(7.37269 0.0165875 0)
(7.37468 0.016279 0)
(7.37664 0.0159313 0)
(7.37855 0.0155469 0)
(7.38042 0.0151273 0)
(7.38225 0.014674 0)
(7.38404 0.0141877 0)
(7.38579 0.013669 0)
(7.3875 0.0131182 0)
(7.38916 0.0125353 0)
(7.39079 0.0119203 0)
(7.39238 0.0112734 0)
(7.39392 0.010594 0)
(7.39542 0.00988464 0)
(7.3331 0.00135316 0)
(7.33364 0.00396012 0)
(7.33479 0.00630867 0)
(7.33639 0.00832945 0)
(7.33826 0.0100326 0)
(7.3403 0.0114514 0)
(7.34247 0.0126141 0)
(7.34472 0.0135491 0)
(7.34702 0.0142871 0)
(7.34933 0.0148565 0)
(7.35164 0.015281 0)
(7.35394 0.0155806 0)
(7.35622 0.0157723 0)
(7.35846 0.0158707 0)
(7.36067 0.0158876 0)
(7.36284 0.0158332 0)
(7.36497 0.0157155 0)
(7.36706 0.0155415 0)
(7.36911 0.0153167 0)
(7.37111 0.0150457 0)
(7.37307 0.0147323 0)
(7.37499 0.0143794 0)
(7.37687 0.0139893 0)
(7.3787 0.0135639 0)
(7.3805 0.0131047 0)
(7.38225 0.0126126 0)
(7.38396 0.0120884 0)
(7.38564 0.0115328 0)
(7.38726 0.0109461 0)
(7.38885 0.0103289 0)
(7.3904 0.00968158 0)
(7.39189 0.00900442 0)
(7.39335 0.00830021 0)
(7.33309 0.00119361 0)
(7.33358 0.00349897 0)
(7.33461 0.00559356 0)
(7.33608 0.00741634 0)
(7.33782 0.00896671 0)
(7.33973 0.0102667 0)
(7.34179 0.0113384 0)
(7.34394 0.0122047 0)
(7.34614 0.0128909 0)
(7.34837 0.0134211 0)
(7.35061 0.013816 0)
(7.35284 0.0140934 0)
(7.35506 0.0142688 0)
(7.35725 0.0143552 0)
(7.35941 0.0143636 0)
(7.36153 0.0143034 0)
(7.36362 0.0141822 0)
(7.36567 0.0140065 0)
(7.36768 0.0137816 0)
(7.36965 0.0135118 0)
(7.37158 0.0132007 0)
(7.37346 0.0128513 0)
(7.37531 0.0124659 0)
(7.37711 0.0120463 0)
(7.37887 0.011594 0)
(7.38059 0.0111102 0)
(7.38227 0.0105959 0)
(7.3839 0.0100517 0)
(7.3855 0.00947854 0)
(7.38705 0.0088769 0)
(7.38855 0.00824769 0)
(7.39001 0.00759127 0)
(7.39143 0.00691056 0)
(7.33309 0.00104574 0)
(7.33353 0.00306942 0)
(7.33447 0.00492043 0)
(7.33582 0.00654629 0)
(7.33744 0.0079404 0)
(7.33925 0.00911632 0)
(7.34119 0.0100906 0)
(7.34325 0.0108815 0)
(7.34536 0.0115095 0)
(7.34751 0.0119947 0)
(7.34968 0.012355 0)
(7.35185 0.0126059 0)
(7.35401 0.012761 0)
(7.35614 0.0128321 0)
(7.35826 0.012829 0)
(7.36034 0.0127602 0)
(7.36238 0.0126327 0)
(7.36439 0.0124523 0)
(7.36636 0.0122241 0)
(7.3683 0.0119519 0)
(7.37019 0.0116394 0)
(7.37204 0.0112891 0)
(7.37385 0.0109033 0)
(7.37561 0.010484 0)
(7.37734 0.0100326 0)
(7.37902 0.00955047 0)
(7.38066 0.00903863 0)
(7.38226 0.00849807 0)
(7.38381 0.0079297 0)
(7.38532 0.00733443 0)
(7.38679 0.00671334 0)
(7.38821 0.00606718 0)
(7.38959 0.00539897 0)
(7.33308 0.000907251 0)
(7.33348 0.00266555 0)
(7.33435 0.0042823 0)
(7.3356 0.00571324 0)
(7.33712 0.00694876 0)
(7.33883 0.00799637 0)
(7.34068 0.0088679 0)
(7.34264 0.00957756 0)
(7.34468 0.0101416 0)
(7.34675 0.0105766 0)
(7.34885 0.0108976 0)
(7.35096 0.0111179 0)
(7.35306 0.0112495 0)
(7.35515 0.0113025 0)
(7.35721 0.0112857 0)
(7.35925 0.0112068 0)
(7.36125 0.011072 0)
(7.36322 0.0108869 0)
(7.36515 0.0106558 0)
(7.36705 0.0103826 0)
(7.3689 0.0100705 0)
(7.37072 0.00972215 0)
(7.37249 0.00933976 0)
(7.37423 0.00892521 0)
(7.37592 0.00848007 0)
(7.37756 0.00800571 0)
(7.37917 0.00750335 0)
(7.38073 0.00697408 0)
(7.38225 0.006419 0)
(7.38372 0.00583918 0)
(7.38515 0.00523585 0)
(7.38653 0.00460988 0)
(7.38787 0.00396421 0)
(7.33308 0.000776221 0)
(7.33345 0.0022823 0)
(7.33425 0.00367286 0)
(7.33542 0.00491119 0)
(7.33685 0.00598667 0)
(7.33847 0.00690256 0)
(7.34024 0.00766684 0)
(7.34212 0.00829017 0)
(7.34408 0.00878526 0)
(7.34608 0.0091653 0)
(7.34812 0.00944272 0)
(7.35017 0.00962876 0)
(7.35222 0.00973345 0)
(7.35425 0.00976564 0)
(7.35627 0.00973299 0)
(7.35826 0.00964211 0)
(7.36023 0.00949865 0)
(7.36216 0.00930741 0)
(7.36405 0.00907247 0)
(7.36591 0.00879729 0)
(7.36773 0.0084848 0)
(7.36951 0.00813746 0)
(7.37125 0.00775738 0)
(7.37294 0.00734636 0)
(7.3746 0.00690598 0)
(7.37621 0.0064376 0)
(7.37778 0.00594251 0)
(7.3793 0.00542189 0)
(7.38078 0.00487692 0)
(7.38222 0.00430878 0)
(7.38361 0.0037188 0)
(7.38496 0.00310799 0)
(7.38626 0.00247926 0)
(7.33308 0.000650997 0)
(7.33342 0.0019152 0)
(7.33417 0.00308624 0)
(7.33527 0.00413425 0)
(7.33663 0.00504878 0)
(7.33817 0.00583027 0)
(7.33986 0.00648361 0)
(7.34167 0.00701639 0)
(7.34356 0.00743817 0)
(7.3455 0.0077592 0)
(7.34748 0.00798936 0)
(7.34947 0.00813783 0)
(7.35147 0.00821288 0)
(7.35346 0.00822193 0)
(7.35543 0.00817148 0)
(7.35738 0.00806721 0)
(7.3593 0.00791401 0)
(7.3612 0.00771612 0)
(7.36305 0.00747716 0)
(7.36488 0.00720025 0)
(7.36666 0.00688807 0)
(7.3684 0.00654293 0)
(7.37011 0.00616683 0)
(7.37177 0.00576151 0)
(7.37339 0.00532854 0)
(7.37496 0.00486933 0)
(7.3765 0.0043852 0)
(7.37799 0.00387742 0)
(7.37943 0.00334723 0)
(7.38084 0.00279587 0)
(7.38219 0.00222474 0)
(7.3835 0.00163485 0)
(7.38477 0.00102898 0)
(7.33308 0.000530073 0)
(7.3334 0.00156018 0)
(7.3341 0.00251686 0)
(7.33515 0.0033764 0)
(7.33644 0.00412926 0)
(7.33792 0.00477409 0)
(7.33955 0.00531329 0)
(7.34129 0.00575184 0)
(7.34312 0.00609653 0)
(7.34501 0.00635491 0)
(7.34693 0.0065345 0)
(7.34887 0.00664244 0)
(7.35082 0.00668531 0)
(7.35277 0.00666909 0)
(7.3547 0.0065991 0)
(7.35661 0.00648004 0)
(7.35849 0.00631605 0)
(7.36034 0.0061107 0)
(7.36216 0.00586713 0)
(7.36395 0.00558806 0)
(7.3657 0.00527586 0)
(7.36741 0.00493261 0)
(7.36908 0.00456013 0)
(7.3707 0.00416006 0)
(7.37229 0.00373389 0)
(7.37383 0.00328299 0)
(7.37533 0.00280866 0)
(7.37679 0.00231217 0)
(7.3782 0.00179477 0)
(7.37957 0.00125771 0)
(7.38089 0.00070239 0)
(7.38217 0.000129872 0)
(7.3834 -0.000457159 0)
(7.33307 0.000411957 0)
(7.33338 0.0012133 0)
(7.33405 0.00195932 0)
(7.33506 0.00263181 0)
(7.3363 0.00322254 0)
(7.33772 0.00372903 0)
(7.33929 0.00415171 0)
(7.34098 0.00449325 0)
(7.34276 0.00475792 0)
(7.3446 0.00495082 0)
(7.34647 0.00507723 0)
(7.34837 0.00514232 0)
(7.35027 0.00515103 0)
(7.35217 0.0051079 0)
(7.35406 0.0050171 0)
(7.35593 0.00488238 0)
(7.35778 0.00470709 0)
(7.3596 0.00449419 0)
(7.36138 0.00424633 0)
(7.36313 0.00396585 0)
(7.36485 0.00365482 0)
(7.36652 0.00331509 0)
(7.36815 0.00294835 0)
(7.36975 0.00255611 0)
(7.3713 0.00213979 0)
(7.37281 0.00170071 0)
(7.37427 0.00124016 0)
(7.3757 0.000759367 0)
(7.37707 0.000259593 0)
(7.37841 -0.000257939 0)
(7.3797 -0.000791887 0)
(7.38094 -0.00134127 0)
(7.38215 -0.00190361 0)
(7.33307 0.000295122 0)
(7.33337 0.000870356 0)
(7.33402 0.00140743 0)
(7.33499 0.00189311 0)
(7.33619 0.00232075 0)
(7.33757 0.00268716 0)
(7.3391 0.00299111 0)
(7.34074 0.00323318 0)
(7.34248 0.00341536 0)
(7.34427 0.00354043 0)
(7.3461 0.00361151 0)
(7.34795 0.00363186 0)
(7.34982 0.00360473 0)
(7.35168 0.00353327 0)
(7.35353 0.00342042 0)
(7.35537 0.00326893 0)
(7.35718 0.00308129 0)
(7.35896 0.00285982 0)
(7.36071 0.00260658 0)
(7.36243 0.00232349 0)
(7.36411 0.00201226 0)
(7.36575 0.00167448 0)
(7.36735 0.00131161 0)
(7.36891 0.000925024 0)
(7.37043 0.00051601 0)
(7.37191 8.58134e-05 0)
(7.37334 -0.000364355 0)
(7.37473 -0.000833299 0)
(7.37608 -0.00131982 0)
(7.37738 -0.00182271 0)
(7.37864 -0.00234068 0)
(7.37985 -0.0028727 0)
(7.38103 -0.00341637 0)
(7.33307 0.000178605 0)
(7.33336 0.000528887 0)
(7.33399 0.00085782 0)
(7.33494 0.00115675 0)
(7.33611 0.00142066 0)
(7.33746 0.00164587 0)
(7.33896 0.00182965 0)
(7.34057 0.00197065 0)
(7.34226 0.00206868 0)
(7.34402 0.00212431 0)
(7.34581 0.00213862 0)
(7.34763 0.00211303 0)
(7.34946 0.0020492 0)
(7.35129 0.00194892 0)
(7.35311 0.001814 0)
(7.35491 0.00164626 0)
(7.35668 0.00144743 0)
(7.35843 0.00121916 0)
(7.36015 0.000963026 0)
(7.36183 0.000680506 0)
(7.36348 0.000372986 0)
(7.36509 4.1775e-05 0)
(7.36666 -0.000311882 0)
(7.36819 -0.000686794 0)
(7.36967 -0.00108181 0)
(7.37111 -0.00149582 0)
(7.37252 -0.00192771 0)
(7.37387 -0.00237637 0)
(7.37519 -0.00284071 0)
(7.37646 -0.00331963 0)
(7.37769 -0.00381195 0)
(7.37887 -0.00431684 0)
(7.38001 -0.0048322 0)
(7.33307 6.1082e-05 0)
(7.33336 0.00018437 0)
(7.33398 0.000303232 0)
(7.33491 0.000413661 0)
(7.33607 0.000512256 0)
(7.3374 0.000594827 0)
(7.33887 0.000657132 0)
(7.34045 0.000695864 0)
(7.34212 0.000708683 0)
(7.34385 0.000693927 0)
(7.34561 0.000650524 0)
(7.3474 0.000577966 0)
(7.3492 0.000476221 0)
(7.351 0.00034561 0)
(7.35278 0.000186709 0)
(7.35455 2.83305e-07 0)
(7.3563 -0.00021278 0)
(7.35802 -0.000451512 0)
(7.35971 -0.000714897 0)
(7.36136 -0.0010019 0)
(7.36298 -0.00131148 0)
(7.36456 -0.0016426 0)
(7.3661 -0.00199423 0)
(7.36759 -0.00236533 0)
(7.36905 -0.00275488 0)
(7.37047 -0.00316187 0)
(7.37184 -0.00358526 0)
(7.37317 -0.00402402 0)
(7.37445 -0.0044771 0)
(7.3757 -0.00494343 0)
(7.3769 -0.00542187 0)
(7.37805 -0.00591145 0)
(7.37917 -0.00641011 0)
(7.33307 -5.89258e-05 0)
(7.33336 -0.00016799 0)
(7.33398 -0.000263907 0)
(7.33491 -0.000345485 0)
(7.33606 -0.000414587 0)
(7.33738 -0.000476262 0)
(7.33884 -0.000536529 0)
(7.34041 -0.000600763 0)
(7.34206 -0.000673497 0)
(7.34377 -0.000758574 0)
(7.34551 -0.000859069 0)
(7.34728 -0.000977244 0)
(7.34905 -0.00111465 0)
(7.35082 -0.00127226 0)
(7.35258 -0.00145064 0)
(7.35432 -0.00164997 0)
(7.35603 -0.00187019 0)
(7.35772 -0.00211101 0)
(7.35938 -0.002372 0)
(7.361 -0.00265262 0)
(7.36259 -0.00295224 0)
(7.36414 -0.00327019 0)
(7.36564 -0.00360572 0)
(7.36711 -0.00395807 0)
(7.36854 -0.00432644 0)
(7.36992 -0.00471 0)
(7.37126 -0.0051079 0)
(7.37256 -0.00551928 0)
(7.37381 -0.00594323 0)
(7.37502 -0.00637888 0)
(7.37619 -0.00682529 0)
(7.37732 -0.00728185 0)
(7.37841 -0.00774684 0)
(7.33307 -0.000183157 0)
(7.33336 -0.000532737 0)
(7.33399 -0.000849973 0)
(7.33494 -0.00112777 0)
(7.3361 -0.00136677 0)
(7.33743 -0.00157358 0)
(7.33889 -0.00175649 0)
(7.34046 -0.00192337 0)
(7.3421 -0.00208142 0)
(7.3438 -0.00223719 0)
(7.34553 -0.00239625 0)
(7.34728 -0.00256297 0)
(7.34903 -0.00274065 0)
(7.35078 -0.00293171 0)
(7.35252 -0.00313787 0)
(7.35424 -0.00336024 0)
(7.35593 -0.00359947 0)
(7.35759 -0.00385585 0)
(7.35923 -0.00412937 0)
(7.36083 -0.00441985 0)
(7.36239 -0.00472693 0)
(7.36391 -0.00505013 0)
(7.36539 -0.00538889 0)
(7.36683 -0.00574255 0)
(7.36823 -0.00611043 0)
(7.36959 -0.00649179 0)
(7.37091 -0.00688585 0)
(7.37218 -0.00729179 0)
(7.37341 -0.00770878 0)
(7.3746 -0.00813594 0)
(7.37574 -0.00857232 0)
(7.37684 -0.0090171 0)
(7.3779 -0.00946853 0)
(7.33307 -0.000314647 0)
(7.33338 -0.000918284 0)
(7.33403 -0.00146726 0)
(7.33501 -0.00194759 0)
(7.3362 -0.00235954 0)
(7.33755 -0.00271249 0)
(7.33903 -0.00301759 0)
(7.3406 -0.00328502 0)
(7.34225 -0.00352434 0)
(7.34395 -0.00374446 0)
(7.34567 -0.00395315 0)
(7.3474 -0.00415672 0)
(7.34914 -0.00436018 0)
(7.35087 -0.00456751 0)
(7.35259 -0.00478177 0)
(7.35428 -0.00500522 0)
(7.35595 -0.0052395 0)
(7.35759 -0.00548572 0)
(7.35919 -0.00574462 0)
(7.36076 -0.00601657 0)
(7.36229 -0.00630172 0)
(7.36378 -0.00660002 0)
(7.36524 -0.00691125 0)
(7.36665 -0.00723508 0)
(7.36802 -0.00757108 0)
(7.36935 -0.00791873 0)
(7.37063 -0.00827749 0)
(7.37187 -0.00864672 0)
(7.37307 -0.0090258 0)
(7.37423 -0.00941407 0)
(7.37535 -0.00981086 0)
(7.37643 -0.0102158 0)
(7.37747 -0.0106275 0)
(7.33308 -0.000457256 0)
(7.3334 -0.00133513 0)
(7.3341 -0.00213033 0)
(7.33512 -0.00282065 0)
(7.33636 -0.00340776 0)
(7.33776 -0.00390661 0)
(7.33927 -0.00433347 0)
(7.34087 -0.00470281 0)
(7.34254 -0.00502822 0)
(7.34425 -0.00532212 0)
(7.34598 -0.00559483 0)
(7.34772 -0.00585444 0)
(7.34945 -0.00610728 0)
(7.35118 -0.00635829 0)
(7.35288 -0.00661127 0)
(7.35456 -0.00686903 0)
(7.35622 -0.00713361 0)
(7.35784 -0.00740648 0)
(7.35943 -0.00768863 0)
(7.36098 -0.00798066 0)
(7.36249 -0.00828292 0)
(7.36396 -0.00859551 0)
(7.3654 -0.00891836 0)
(7.36679 -0.00925125 0)
(7.36814 -0.00959386 0)
(7.36944 -0.00994578 0)
(7.3707 -0.0103065 0)
(7.37193 -0.0106755 0)
(7.3731 -0.0110523 0)
(7.37424 -0.011436 0)
(7.37533 -0.0118262 0)
(7.37638 -0.0122219 0)
(7.37739 -0.012622 0)
(7.33308 -0.000616442 0)
(7.33344 -0.00179809 0)
(7.3342 -0.00285953 0)
(7.33531 -0.00376925 0)
(7.33662 -0.00453339 0)
(7.33808 -0.00517387 0)
(7.33964 -0.00571058 0)
(7.34128 -0.00616093 0)
(7.34298 -0.00654273 0)
(7.3447 -0.00687297 0)
(7.34643 -0.00716583 0)
(7.34816 -0.0074325 0)
(7.34989 -0.00768192 0)
(7.3516 -0.00792117 0)
(7.35329 -0.00815575 0)
(7.35495 -0.00838979 0)
(7.35658 -0.00862637 0)
(7.35818 -0.00886777 0)
(7.35974 -0.0091156 0)
(7.36126 -0.00937098 0)
(7.36275 -0.00963464 0)
(7.36419 -0.00990701 0)
(7.3656 -0.0101883 0)
(7.36696 -0.0104785 0)
(7.36828 -0.0107775 0)
(7.36955 -0.0110851 0)
(7.37079 -0.011401 0)
(7.37198 -0.0117247 0)
(7.37313 -0.012056 0)
(7.37424 -0.0123943 0)
(7.37531 -0.0127392 0)
(7.37634 -0.0130904 0)
(7.37733 -0.0134471 0)
(7.33308 -0.000800609 0)
(7.3335 -0.00232916 0)
(7.33436 -0.00368158 0)
(7.33559 -0.00481834 0)
(7.33701 -0.00576321 0)
(7.33856 -0.00655665 0)
(7.34021 -0.00722724 0)
(7.34192 -0.00779618 0)
(7.34367 -0.00828435 0)
(7.34544 -0.00871096 0)
(7.3472 -0.00909127 0)
(7.34896 -0.00943705 0)
(7.3507 -0.00975778 0)
(7.35241 -0.0100611 0)
(7.3541 -0.0103529 0)
(7.35576 -0.0106379 0)
(7.35738 -0.0109196 0)
(7.35897 -0.0112007 0)
(7.36051 -0.0114831 0)
(7.36202 -0.0117683 0)
(7.36349 -0.0120573 0)
(7.36491 -0.0123509 0)
(7.36629 -0.0126494 0)
(7.36763 -0.0129531 0)
(7.36892 -0.0132619 0)
(7.37018 -0.0135759 0)
(7.37138 -0.0138949 0)
(7.37255 -0.0142185 0)
(7.37367 -0.0145465 0)
(7.37475 -0.0148785 0)
(7.37579 -0.0152141 0)
(7.37679 -0.0155529 0)
(7.37774 -0.0158939 0)
(7.33309 -0.00102338 0)
(7.3336 -0.00296478 0)
(7.33462 -0.00464238 0)
(7.33601 -0.00600392 0)
(7.33757 -0.00709382 0)
(7.33921 -0.00797142 0)
(7.34093 -0.00867739 0)
(7.3427 -0.00924613 0)
(7.34449 -0.00971157 0)
(7.34627 -0.010102 0)
(7.34805 -0.0104379 0)
(7.34981 -0.0107345 0)
(7.35154 -0.0110035 0)
(7.35325 -0.0112541 0)
(7.35492 -0.011493 0)
(7.35655 -0.0117251 0)
(7.35815 -0.0119542 0)
(7.35971 -0.012183 0)
(7.36123 -0.0124135 0)
(7.3627 -0.0126474 0)
(7.36414 -0.0128855 0)
(7.36553 -0.0131286 0)
(7.36688 -0.0133773 0)
(7.36818 -0.0136317 0)
(7.36944 -0.013892 0)
(7.37066 -0.0141582 0)
(7.37183 -0.0144301 0)
(7.37296 -0.0147077 0)
(7.37405 -0.0149906 0)
(7.3751 -0.0152786 0)
(7.37611 -0.0155714 0)
(7.37708 -0.0158688 0)
(7.37801 -0.01617 0)
(7.33311 -0.00130859 0)
(7.33375 -0.00375371 0)
(7.33503 -0.00579802 0)
(7.33669 -0.00743447 0)
(7.33847 -0.00877493 0)
(7.3403 -0.00988985 0)
(7.34218 -0.0108057 0)
(7.34406 -0.0115536 0)
(7.34593 -0.0121729 0)
(7.34777 -0.012696 0)
(7.34958 -0.0131455 0)
(7.35135 -0.0135387 0)
(7.35308 -0.0138899 0)
(7.35477 -0.0142103 0)
(7.35643 -0.0145085 0)
(7.35803 -0.0147908 0)
(7.3596 -0.0150621 0)
(7.36112 -0.015326 0)
(7.3626 -0.0155853 0)
(7.36403 -0.0158418 0)
(7.36542 -0.016097 0)
(7.36676 -0.016352 0)
(7.36806 -0.0166075 0)
(7.36931 -0.016864 0)
(7.37052 -0.0171217 0)
(7.37168 -0.0173808 0)
(7.3728 -0.0176415 0)
(7.37388 -0.0179037 0)
(7.37491 -0.0181674 0)
(7.3759 -0.0184326 0)
(7.37685 -0.0186992 0)
(7.37776 -0.0189672 0)
(7.37862 -0.0192367 0)
(7.33314 -0.0017131 0)
(7.33403 -0.00480962 0)
(7.33564 -0.0071365 0)
(7.33755 -0.00877115 0)
(7.33947 -0.00999812 0)
(7.3414 -0.0109693 0)
(7.34337 -0.0117332 0)
(7.34532 -0.0123346 0)
(7.34722 -0.0128225 0)
(7.34907 -0.0132314 0)
(7.35086 -0.0135818 0)
(7.35261 -0.0138884 0)
(7.35431 -0.014163 0)
(7.35595 -0.0144146 0)
(7.35754 -0.0146499 0)
(7.35908 -0.014874 0)
(7.36058 -0.0150907 0)
(7.36202 -0.0153031 0)
(7.36342 -0.0155135 0)
(7.36478 -0.0157237 0)
(7.36608 -0.0159349 0)
(7.36734 -0.0161481 0)
(7.36856 -0.0163641 0)
(7.36973 -0.0165832 0)
(7.37086 -0.0168057 0)
(7.37194 -0.0170318 0)
(7.37298 -0.0172615 0)
(7.37398 -0.0174946 0)
(7.37494 -0.0177309 0)
(7.37586 -0.0179702 0)
(7.37674 -0.0182122 0)
(7.37758 -0.0184563 0)
(7.37839 -0.0187019 0)
(7.33321 -0.00230682 0)
(7.33467 -0.00642726 0)
(7.33707 -0.00951509 0)
(7.33954 -0.0117567 0)
(7.34173 -0.0134587 0)
(7.34378 -0.0147551 0)
(7.34577 -0.0157246 0)
(7.34767 -0.016459 0)
(7.34946 -0.017035 0)
(7.35115 -0.0175004 0)
(7.35277 -0.0178852 0)
(7.35432 -0.0182123 0)
(7.3558 -0.0184988 0)
(7.35722 -0.0187564 0)
(7.35859 -0.0189932 0)
(7.3599 -0.0192149 0)
(7.36116 -0.0194253 0)
(7.36237 -0.0196274 0)
(7.36353 -0.0198233 0)
(7.36464 -0.0200144 0)
(7.36571 -0.0202018 0)
(7.36673 -0.0203864 0)
(7.36771 -0.0205687 0)
(7.36864 -0.0207493 0)
(7.36954 -0.0209285 0)
(7.37039 -0.0211066 0)
(7.3712 -0.0212841 0)
(7.37197 -0.021461 0)
(7.37271 -0.0216377 0)
(7.3734 -0.0218148 0)
(7.37406 -0.0219927 0)
(7.37468 -0.0221734 0)
(7.37526 -0.0223582 0)
(7.33323 -0.00330733 0)
(7.33508 -0.00748594 0)
(7.33785 -0.00963436 0)
(7.34039 -0.0111616 0)
(7.34248 -0.0124963 0)
(7.34435 -0.0135477 0)
(7.34606 -0.0143183 0)
(7.34756 -0.0149098 0)
(7.34888 -0.0153925 0)
(7.35005 -0.0157925 0)
(7.35112 -0.0161249 0)
(7.3521 -0.0164067 0)
(7.35301 -0.0166527 0)
(7.35385 -0.0168736 0)
(7.35463 -0.0170766 0)
(7.35537 -0.0172675 0)
(7.35607 -0.0174508 0)
(7.35673 -0.0176297 0)
(7.35736 -0.0178065 0)
(7.35796 -0.0179828 0)
(7.35853 -0.0181598 0)
(7.35907 -0.0183383 0)
(7.35958 -0.0185185 0)
(7.36006 -0.0187007 0)
(7.36052 -0.0188849 0)
(7.36095 -0.019071 0)
(7.36136 -0.0192585 0)
(7.36174 -0.019447 0)
(7.3621 -0.0196357 0)
(7.36243 -0.0198232 0)
(7.36274 -0.0200082 0)
(7.36302 -0.0201859 0)
(7.36326 -0.0203572 0)
(7.33597 -0.00734845 0)
(7.3463 -0.0150967 0)
(7.35617 -0.0177367 0)
(7.36436 -0.0188971 0)
(7.37191 -0.0197791 0)
(7.37926 -0.0203568 0)
(7.38624 -0.0206456 0)
(7.39271 -0.0207944 0)
(7.39874 -0.0209012 0)
(7.40441 -0.0209911 0)
(7.40977 -0.0210684 0)
(7.41483 -0.0211385 0)
(7.41962 -0.0212065 0)
(7.42416 -0.0212742 0)
(7.42845 -0.0213418 0)
(7.43253 -0.0214092 0)
(7.43639 -0.0214765 0)
(7.44005 -0.0215435 0)
(7.44353 -0.0216106 0)
(7.44681 -0.0216779 0)
(7.44993 -0.0217455 0)
(7.45287 -0.0218138 0)
(7.45566 -0.0218831 0)
(7.45828 -0.0219537 0)
(7.46076 -0.022026 0)
(7.4631 -0.0221003 0)
(7.46531 -0.022177 0)
(7.46739 -0.0222564 0)
(7.46934 -0.0223389 0)
(7.47119 -0.0224251 0)
(7.47293 -0.0225148 0)
(7.47458 -0.0226093 0)
(7.47617 -0.0227065 0)
(7.32333 -0.00889149 0)
(7.30978 -0.0181851 0)
(7.29242 -0.022275 0)
(7.27081 -0.0243669 0)
(7.24822 -0.0257011 0)