/*--------------------------------*- C++ -*----------------------------------*\
| =========                 |                                                 |
| \\      /  F ield         | OpenFOAM: The Open Source CFD Toolbox           |
|  \\    /   O peration     | Version:  4.1                                   |
|   \\  /    A nd           | Web:      www.OpenFOAM.org                      |
|    \\/     M anipulation  |                                                 |
\*---------------------------------------------------------------------------*/
FoamFile
{
    version     2.0;
    format      ascii;
    class       volScalarField;
    location    "1200";
    object      p;
}
// * * * * * * * * * * * * * * * * * * * * * * * * * * * * * * * * * * * * * //

dimensions      [0 2 -2 0 0 0 0];

internalField   nonuniform List<scalar> 
26785
(
1095.08
1096.84
1097.4
1097.11
1096.89
1096.88
1096.81
1096.03
1094.44
1092.33
1089.87
1087.09
1084.08
1080.94
1077.79
1074.69
1071.68
1068.74
1065.78
1062.66
1059.22
1055.39
1051.09
1046.22
1040.55
1033.65
1025.03
1014.52
1002.37
989.299
976.179
963.907
953.288
945.037
939.806
938.173
940.711
947.889
959.984
977.034
998.614
1024.13
1052.91
1083.29
1112.81
1139.47
1162.03
1179.92
1193.31
1203.02
1210.28
1216.49
1222.99
1230.74
1240.15
1251.14
1263.27
1275.7
1287.42
1297.61
1305.65
1310.97
1313.1
1311.77
1306.79
1297.9
1284.06
1264.69
1239.11
1208.43
1176.49
1146.1
1117.17
1087.83
1058.37
1029.99
1001.29
971.19
941.314
913.365
886.394
858.024
828.393
800.241
776.024
752.2
721.836
682.793
640.507
595.771
545.733
487.927
422.543
352.755
282.434
213.14
145.336
85.7779
44.009
8.2825
1095.09
1096.85
1097.4
1097.1
1096.89
1096.89
1096.81
1096.04
1094.44
1092.34
1089.87
1087.09
1084.07
1080.94
1077.78
1074.68
1071.67
1068.74
1065.78
1062.66
1059.23
1055.4
1051.1
1046.25
1040.58
1033.68
1025.06
1014.52
1002.34
989.223
976.07
963.772
953.132
944.864
939.615
937.961
940.478
947.638
959.72
976.772
998.357
1023.89
1052.74
1083.23
1112.86
1139.62
1162.23
1180.13
1193.49
1203.12
1210.3
1216.44
1222.88
1230.6
1240.01
1251.03
1263.21
1275.69
1287.46
1297.71
1305.81
1311.19
1313.37
1312.1
1307.2
1298.42
1284.67
1265.32
1239.53
1208.5
1176.42
1146.13
1117.39
1088.02
1058.52
1030.32
1001.68
971.449
941.484
913.626
886.819
858.407
828.584
800.375
776.188
752.458
721.959
682.377
640.119
595.574
545.6
487.613
421.768
351.621
281.346
211.962
143.046
83.2247
42.1796
8.24834
1095.1
1096.85
1097.4
1097.1
1096.88
1096.89
1096.83
1096.05
1094.45
1092.34
1089.87
1087.08
1084.06
1080.92
1077.76
1074.66
1071.66
1068.73
1065.78
1062.67
1059.24
1055.42
1051.13
1046.29
1040.64
1033.74
1025.1
1014.51
1002.25
989.064
975.846
963.496
952.815
944.511
939.225
937.528
940.002
947.121
959.177
976.231
997.827
1023.4
1052.41
1083.13
1112.98
1139.92
1162.66
1180.57
1193.85
1203.35
1210.36
1216.34
1222.66
1230.32
1239.71
1250.78
1263.06
1275.64
1287.52
1297.87
1306.1
1311.62
1313.92
1312.77
1308.05
1299.49
1285.94
1266.58
1240.32
1208.66
1176.33
1146.19
1117.75
1088.29
1058.81
1031
1002.43
971.954
941.869
914.218
887.682
859.115
828.913
800.791
776.627
752.85
721.998
681.531
639.298
595.001
545.049
486.586
419.782
349.072
279.245
210.162
139.589
79.2469
38.9034
7.84138
1095.1
1096.87
1097.4
1097.09
1096.88
1096.89
1096.84
1096.07
1094.46
1092.34
1089.87
1087.07
1084.04
1080.89
1077.73
1074.63
1071.63
1068.71
1065.78
1062.68
1059.26
1055.45
1051.17
1046.35
1040.72
1033.83
1025.16
1014.48
1002.12
988.821
975.511
963.09
952.352
943.995
938.656
936.894
939.3
946.358
958.373
975.426
997.042
1022.68
1051.92
1082.97
1113.16
1140.38
1163.29
1181.24
1194.4
1203.68
1210.44
1216.17
1222.32
1229.9
1239.27
1250.42
1262.85
1275.59
1287.61
1298.14
1306.57
1312.27
1314.73
1313.78
1309.32
1301.1
1287.87
1268.42
1241.42
1208.92
1176.28
1146.28
1118.18
1088.61
1059.3
1032.08
1003.52
972.716
942.538
915.196
888.958
860.072
829.317
801.476
777.357
753.541
722.202
680.501
638.09
594.131
544.391
485.349
417.206
345.72
276.54
208.358
136.066
75.7113
36.9397
8.45283
1095.1
1096.88
1097.39
1097.08
1096.86
1096.89
1096.86
1096.09
1094.47
1092.35
1089.86
1087.04
1084
1080.86
1077.69
1074.59
1071.6
1068.69
1065.77
1062.69
1059.29
1055.49
1051.23
1046.43
1040.83
1033.95
1025.23
1014.44
1001.94
988.506
975.084
962.573
951.763
943.339
937.929
936.081
938.4
945.374
957.334
974.386
996.032
1021.77
1051.29
1082.78
1113.4
1140.99
1164.13
1182.1
1195.11
1204.11
1210.52
1215.95
1221.89
1229.35
1238.7
1249.96
1262.58
1275.54
1287.76
1298.52
1307.21
1313.14
1315.79
1315.08
1310.97
1303.19
1290.42
1270.76
1242.75
1209.29
1176.27
1146.37
1118.62
1088.99
1060.07
1033.57
1004.9
973.755
943.582
916.649
890.638
861.324
830.248
802.644
777.598
753.871
722.964
680.475
637.721
594.067
544.763
485.471
416.218
343.973
274.981
207.245
132.821
71.7534
34.4722
8.85309
1095.11
1096.9
1097.39
1097.07
1096.85
1096.88
1096.88
1096.11
1094.48
1092.34
1089.84
1087.01
1083.96
1080.81
1077.65
1074.55
1071.56
1068.67
1065.77
1062.7
1059.33
1055.54
1051.3
1046.53
1040.96
1034.08
1025.3
1014.38
1001.72
988.127
974.571
961.955
951.056
942.551
937.055
935.102
937.314
944.187
956.08
973.128
994.816
1020.67
1050.55
1082.56
1113.69
1141.74
1165.17
1183.18
1195.98
1204.62
1210.62
1215.67
1221.35
1228.68
1237.99
1249.39
1262.27
1275.49
1287.97
1299.02
1308.04
1314.23
1317.09
1316.64
1312.93
1305.65
1293.51
1273.49
1244.25
1209.8
1176.31
1146.43
1118.99
1089.44
1061.18
1035.48
1006.56
975.125
945.19
918.73
892.307
861.776
831.101
805.525
779.35
753.218
721.627
679.932
637.183
592.973
543.046
483.501
414.547
343.301
275.529
208.601
136.165
73.6745
35.7354
10.4829
1095.14
1096.92
1097.38
1097.05
1096.83
1096.88
1096.91
1096.14
1094.49
1092.34
1089.82
1086.98
1083.92
1080.75
1077.59
1074.49
1071.51
1068.63
1065.76
1062.72
1059.37
1055.6
1051.38
1046.64
1041.1
1034.23
1025.37
1014.31
1001.46
987.686
973.98
961.241
950.243
941.644
936.048
933.972
936.059
942.811
954.623
971.665
993.401
1019.42
1049.7
1082.31
1114.05
1142.64
1166.42
1184.46
1197.02
1205.22
1210.71
1215.32
1220.72
1227.87
1237.13
1248.68
1261.88
1275.44
1288.23
1299.64
1309.04
1315.54
1318.61
1318.42
1315.16
1308.41
1297
1276.52
1245.86
1210.48
1176.38
1146.44
1119.17
1089.96
1062.73
1037.78
1008.38
976.747
947.565
922.664
895.753
863.32
831.277
804.218
776.974
749.368
717.883
678.22
635.696
590.979
540.186
480.437
412.08
341.98
275.603
210.401
142.784
84.1441
44.8131
15.7107
1095.17
1096.94
1097.37
1097.03
1096.81
1096.87
1096.93
1096.16
1094.49
1092.32
1089.79
1086.93
1083.86
1080.69
1077.51
1074.41
1071.44
1068.59
1065.74
1062.74
1059.42
1055.68
1051.48
1046.77
1041.26
1034.38
1025.44
1014.21
1001.16
987.185
973.312
960.439
949.33
940.627
934.92
932.706
934.65
941.26
952.976
970.008
991.795
1018.03
1048.77
1082.04
1114.47
1143.68
1167.86
1185.94
1198.22
1205.9
1210.79
1214.9
1219.99
1226.92
1236.09
1247.82
1261.41
1275.36
1288.52
1300.38
1310.23
1317.04
1320.33
1320.38
1317.57
1311.36
1300.69
1279.68
1247.48
1211.25
1176.35
1146.32
1119.02
1090.51
1064.8
1040.44
1010.44
978.808
949.956
924.501
896.557
865.394
834.818
806.071
776.469
747.148
715.275
676.628
633.967
588.84
537.532
477.803
410.204
341.027
275.546
211.615
147.335
91.308
51.491
19.2479
1095.19
1096.96
1097.36
1097.01
1096.79
1096.86
1096.96
1096.19
1094.49
1092.3
1089.75
1086.87
1083.78
1080.6
1077.42
1074.32
1071.36
1068.54
1065.73
1062.77
1059.49
1055.77
1051.6
1046.91
1041.43
1034.53
1025.5
1014.09
1000.81
986.622
972.568
959.55
948.32
939.503
933.674
931.304
933.086
939.532
951.138
968.157
989.994
1016.5
1047.77
1081.75
1114.94
1144.86
1169.49
1187.61
1199.56
1206.66
1210.85
1214.41
1219.17
1225.83
1234.85
1246.81
1260.86
1275.26
1288.85
1301.22
1311.57
1318.74
1322.24
1322.51
1320.12
1314.45
1304.36
1282.97
1249.19
1212.07
1176.08
1146.05
1118.69
1090.98
1067.11
1043.14
1012.21
980.261
951.398
925.773
897.307
866.483
836.361
806.86
776.387
745.381
712.513
674.25
631.61
585.827
534.274
474.989
408.665
340.709
276.088
213.736
152.697
98.441
57.5986
22.4219
1095.21
1096.99
1097.35
1096.98
1096.76
1096.85
1096.98
1096.21
1094.48
1092.27
1089.69
1086.8
1083.7
1080.5
1077.32
1074.22
1071.28
1068.49
1065.73
1062.82
1059.57
1055.88
1051.73
1047.07
1041.61
1034.69
1025.55
1013.93
1000.41
985.992
971.745
958.569
947.208
938.266
932.3
929.75
931.349
937.606
949.09
966.094
987.983
1014.84
1046.7
1081.43
1115.45
1146.14
1171.27
1189.45
1201.02
1207.45
1210.86
1213.86
1218.3
1224.61
1233.41
1245.64
1260.23
1275.13
1289.19
1302.16
1313.09
1320.63
1324.34
1324.77
1322.74
1317.62
1307.98
1286.74
1251.69
1213.53
1176.03
1145.84
1118.71
1092.62
1069.92
1045.53
1014.13
981.887
952.415
926.875
898.432
867.587
837.14
806.918
775.921
743.826
709.611
671.104
628.636
582.357
530.594
471.994
407.311
341.089
277.584
216.683
158.04
105.222
63.5327
25.1897
1095.25
1097.01
1097.33
1096.96
1096.73
1096.84
1097.01
1096.23
1094.46
1092.22
1089.63
1086.71
1083.6
1080.4
1077.21
1074.12
1071.2
1068.44
1065.73
1062.87
1059.67
1056.01
1051.88
1047.24
1041.79
1034.84
1025.57
1013.74
999.961
985.296
970.842
957.495
945.99
936.906
930.782
928.025
929.416
935.458
946.811
963.798
985.739
1013.03
1045.54
1081.06
1115.97
1147.51
1173.21
1191.43
1202.58
1208.27
1210.83
1213.27
1217.39
1223.25
1231.75
1244.33
1259.54
1274.97
1289.55
1303.2
1314.76
1322.7
1326.62
1327.16
1325.34
1320.66
1310.69
1289.56
1254.02
1215.24
1176.23
1145.76
1118.54
1094.29
1074.19
1048.6
1016.2
983.92
954.344
928.811
900.142
869.072
838.246
807.244
775.226
741.936
706.345
667.141
624.648
578.319
526.574
468.808
405.882
341.62
279.664
220.411
163.573
111.548
68.8796
27.6109
1095.3
1097.04
1097.32
1096.93
1096.69
1096.82
1097.03
1096.24
1094.43
1092.16
1089.55
1086.62
1083.49
1080.28
1077.09
1074.01
1071.11
1068.4
1065.74
1062.93
1059.78
1056.16
1052.05
1047.42
1041.98
1034.99
1025.57
1013.5
999.459
984.536
969.862
956.331
944.665
935.418
929.113
926.119
927.28
933.08
944.293
961.252
983.254
1011.04
1044.27
1080.62
1116.5
1148.97
1175.27
1193.52
1204.2
1209.07
1210.72
1212.67
1216.46
1221.77
1229.89
1242.89
1258.8
1274.78
1289.93
1304.34
1316.59
1324.95
1329.1
1329.72
1328
1323.39
1312.55
1290.38
1254.75
1215.74
1175.55
1144.38
1119.73
1096.43
1077.49
1051.39
1019.3
986.844
956.76
930.868
902.207
870.807
839.369
807.293
774.017
739.445
702.652
662.655
619.845
573.545
522.264
465.471
404.369
342.108
281.804
223.998
168.485
117.041
73.5047
29.6137
1095.36
1097.07
1097.3
1096.89
1096.65
1096.8
1097.05
1096.24
1094.38
1092.09
1089.46
1086.52
1083.38
1080.17
1076.98
1073.91
1071.03
1068.35
1065.75
1063
1059.9
1056.32
1052.24
1047.62
1042.17
1035.12
1025.53
1013.23
998.908
983.719
968.812
955.078
943.231
933.8
927.29
924.033
924.94
930.472
941.54
958.455
980.539
1008.89
1042.9
1080.1
1117
1150.48
1177.45
1195.72
1205.87
1209.84
1210.56
1212.09
1215.55
1220.18
1227.84
1241.35
1258.03
1274.57
1290.33
1305.59
1318.59
1327.39
1331.77
1332.4
1330.18
1324.58
1314
1291.88
1256.33
1217.04
1178.04
1145.4
1122.08
1099.01
1081.95
1054.98
1022.71
989.502
958.605
932.39
903.917
872.085
839.799
806.589
772.178
736.41
698.53
657.848
614.556
568.222
517.602
462.062
402.807
342.561
283.859
227.231
172.7
121.687
77.3691
31.2436
1095.41
1097.09
1097.28
1096.85
1096.61
1096.77
1097.07
1096.23
1094.32
1092
1089.36
1086.41
1083.27
1080.06
1076.87
1073.81
1070.95
1068.31
1065.76
1063.07
1060.03
1056.5
1052.44
1047.83
1042.37
1035.24
1025.47
1012.91
998.315
982.849
967.693
953.735
941.686
932.049
925.314
921.766
922.404
927.645
938.564
955.413
977.629
1006.58
1041.4
1079.48
1117.48
1152.05
1179.75
1198.02
1207.56
1210.55
1210.34
1211.57
1214.67
1218.49
1225.62
1239.74
1257.25
1274.33
1290.77
1306.98
1320.75
1330.02
1334.64
1335.15
1332.44
1325.94
1315.57
1293.88
1258.85
1219.77
1182.04
1150.27
1129.64
1105.46
1086.41
1059.31
1026.92
993.225
961.56
934.37
905.31
872.86
839.613
805.356
769.905
733.022
694.14
652.838
609.157
562.737
512.694
458.538
401.185
342.875
285.602
229.967
176.278
125.558
80.4583
32.5257
1095.46
1097.12
1097.25
1096.81
1096.56
1096.74
1097.09
1096.21
1094.23
1091.9
1089.26
1086.31
1083.17
1079.95
1076.76
1073.7
1070.86
1068.27
1065.78
1063.15
1060.17
1056.69
1052.67
1048.06
1042.57
1035.33
1025.37
1012.57
997.684
981.926
966.501
952.297
940.024
930.162
923.184
919.327
919.687
924.618
935.386
952.143
974.584
1004.13
1039.8
1078.76
1117.91
1153.65
1182.16
1200.39
1209.27
1211.19
1210.09
1211.16
1213.82
1216.71
1223.27
1238.09
1256.46
1274.06
1291.26
1308.49
1323.07
1332.86
1337.72
1338.21
1335.38
1328.78
1317.3
1296.61
1262.36
1223.59
1186.65
1155.51
1134.29
1111.67
1091.16
1064.16
1031.81
998.122
965.935
937.267
906.956
873.603
839.272
803.96
767.467
729.534
689.743
647.858
603.875
557.422
507.875
454.964
399.397
342.817
286.807
232.088
179.148
128.657
82.8742
33.5064
1095.52
1097.14
1097.23
1096.77
1096.52
1096.7
1097.1
1096.15
1094.13
1091.79
1089.16
1086.2
1083.06
1079.83
1076.64
1073.59
1070.77
1068.23
1065.8
1063.24
1060.33
1056.9
1052.91
1048.31
1042.78
1035.41
1025.26
1012.2
997.014
980.946
965.23
950.756
938.241
928.141
920.913
916.734
916.814
921.42
932.027
948.646
971.494
1001.58
1038.07
1077.93
1118.29
1155.26
1184.65
1202.81
1210.95
1211.72
1209.81
1210.86
1212.97
1214.82
1220.77
1236.45
1255.71
1273.79
1291.83
1310.16
1325.57
1335.91
1341.05
1341.72
1339.09
1332.89
1319.45
1299.86
1266.8
1228.71
1192.17
1162.4
1139.03
1117.73
1096.77
1069.44
1037.11
1003.53
970.922
940.716
908.974
874.547
839.07
802.662
765.119
726.199
685.587
643.157
598.891
552.452
503.372
451.494
397.375
342.26
287.407
233.575
181.294
131.031
84.7538
34.2454
1095.6
1097.16
1097.2
1096.72
1096.46
1096.67
1097.1
1096.08
1094.01
1091.68
1089.05
1086.1
1082.95
1079.72
1076.52
1073.47
1070.68
1068.18
1065.83
1063.34
1060.5
1057.13
1053.17
1048.57
1042.99
1035.49
1025.13
1011.81
996.303
979.905
963.874
949.108
936.341
925.998
918.518
914.013
913.817
918.088
928.513
944.916
968.417
998.984
1036.22
1076.99
1118.59
1156.85
1187.21
1205.25
1212.56
1212.11
1209.59
1210.69
1212.09
1212.7
1218
1234.81
1254.99
1273.53
1292.54
1312
1328.24
1339.22
1344.76
1345.68
1343.38
1337.76
1322.65
1303.77
1272.2
1235.28
1198.93
1170.99
1145.93
1124.49
1103.04
1075.21
1042.77
1009.2
976.143
944.485
911.331
875.779
839.153
801.635
763.055
723.202
681.836
638.889
594.336
547.896
499.211
448.177
395.233
341.343
287.527
234.503
182.809
132.794
86.1989
34.7923
1095.68
1097.18
1097.16
1096.67
1096.4
1096.63
1097.09
1095.98
1093.88
1091.56
1088.95
1085.99
1082.84
1079.59
1076.39
1073.34
1070.58
1068.14
1065.86
1063.45
1060.68
1057.38
1053.46
1048.86
1043.21
1035.56
1024.99
1011.39
995.549
978.796
962.429
947.357
934.332
923.752
916.027
911.195
910.732
914.659
924.866
940.99
965.345
996.39
1034.26
1075.93
1118.8
1158.4
1189.8
1207.67
1214.02
1212.33
1209.51
1210.66
1211.09
1210.24
1214.92
1233.18
1254.29
1273.32
1293.46
1314.07
1331.13
1342.78
1348.9
1350.2
1348.26
1343.05
1327.42
1308.34
1278.37
1242.86
1207.14
1180.69
1154.67
1132.36
1109.95
1081.56
1048.84
1015.12
981.501
948.503
914.01
877.346
839.596
800.985
761.392
720.647
678.568
635.121
590.277
543.803
495.426
445.072
393.082
340.206
287.289
234.988
183.812
134.07
87.2993
35.1868
1095.75
1097.2
1097.13
1096.61
1096.34
1096.6
1097.05
1095.86
1093.75
1091.44
1088.84
1085.88
1082.72
1079.46
1076.25
1073.21
1070.48
1068.1
1065.89
1063.57
1060.88
1057.64
1053.76
1049.15
1043.43
1035.63
1024.84
1010.95
994.747
977.618
960.897
945.509
932.231
921.426
913.47
908.312
907.587
911.166
921.093
936.938
962.267
993.822
1032.21
1074.75
1118.88
1159.87
1192.4
1210.03
1215.26
1212.32
1209.57
1210.7
1209.9
1207.5
1211.68
1231.65
1253.63
1273.22
1294.67
1316.39
1334.27
1346.67
1353.44
1355.29
1353.78
1348.59
1333.47
1313.44
1284.97
1250.93
1216.84
1191.08
1164.74
1141.39
1117.67
1088.55
1055.36
1021.26
986.987
952.751
917.006
879.267
840.436
800.764
760.188
718.588
675.828
631.895
586.757
540.219
492.066
442.241
391.005
338.955
286.804
235.135
184.406
134.964
88.1923
35.4822
1095.83
1097.22
1097.09
1096.55
1096.27
1096.57
1096.99
1095.73
1093.6
1091.32
1088.73
1085.77
1082.59
1079.33
1076.11
1073.07
1070.37
1068.05
1065.94
1063.7
1061.09
1057.92
1054.08
1049.46
1043.66
1035.7
1024.68
1010.47
993.894
976.37
959.282
943.578
930.062
919.052
910.877
905.389
904.399
907.624
917.172
932.816
959.186
991.269
1030.07
1073.44
1118.81
1161.19
1194.97
1212.26
1216.37
1212.29
1209.82
1210.66
1208.57
1204.68
1208.59
1230.32
1253
1273.29
1296.22
1319.01
1337.72
1351.02
1358.49
1361.02
1360.02
1354.52
1340.11
1319.13
1291.8
1259.52
1227.84
1202.09
1175.73
1151.36
1126.2
1096.18
1062.35
1027.67
992.644
957.244
920.327
881.555
841.687
800.998
759.482
717.069
673.666
629.269
583.838
537.207
489.198
439.76
389.097
337.695
286.175
235.039
184.68
135.576
89.0657
35.7493
1095.9
1097.23
1097.05
1096.49
1096.2
1096.54
1096.9
1095.59
1093.46
1091.19
1088.62
1085.65
1082.46
1079.18
1075.96
1072.93
1070.26
1068.01
1065.98
1063.84
1061.32
1058.21
1054.41
1049.78
1043.89
1035.77
1024.5
1009.96
992.988
975.053
957.595
941.585
927.853
916.658
908.268
902.435
901.163
904.033
913.059
928.685
956.096
988.706
1027.85
1072
1118.53
1162.3
1197.4
1214.44
1217.04
1212.63
1210.61
1210.56
1207.17
1201.9
1205.78
1229.43
1252.61
1273.7
1298.18
1321.98
1341.59
1355.92
1364.21
1367.5
1367.06
1361.23
1346.98
1325.75
1299.29
1269.1
1239.82
1213.69
1187.33
1161.97
1135.41
1104.38
1069.82
1034.4
998.532
962.019
923.991
884.224
843.367
801.714
759.316
716.149
672.153
627.321
581.6
534.839
486.884
437.693
387.429
336.503
285.472
234.763
184.699
135.979
90.0156
36.0202
1095.99
1097.24
1097.01
1096.42
1096.12
1096.51
1096.81
1095.44
1093.31
1091.07
1088.5
1085.52
1082.32
1079.03
1075.8
1072.78
1070.15
1067.97
1066.04
1063.99
1061.56
1058.52
1054.74
1050.1
1044.12
1035.83
1024.3
1009.42
992.03
973.674
955.852
939.556
925.634
914.265
905.647
899.441
897.867
900.39
908.739
924.65
952.965
986.097
1025.55
1070.4
1118
1163.09
1199.47
1215.94
1217.37
1213.49
1211.83
1210.52
1205.96
1199.26
1203.09
1228.79
1252.51
1274.57
1300.6
1325.4
1346.06
1361.45
1370.68
1374.84
1374.94
1368.83
1354.24
1333.54
1307.9
1279.79
1252.17
1225.83
1199.33
1173.06
1145.19
1113.13
1077.78
1041.51
1004.71
967.111
928.018
887.294
845.501
802.952
759.745
715.891
671.35
626.097
580.064
533.109
485.103
436.015
385.988
335.385
284.715
234.343
184.536
136.208
90.8664
36.2546
1096.08
1097.24
1096.96
1096.34
1096.03
1096.48
1096.7
1095.28
1093.15
1090.94
1088.38
1085.39
1082.18
1078.87
1075.64
1072.63
1070.03
1067.93
1066.1
1064.15
1061.8
1058.83
1055.09
1050.42
1044.36
1035.88
1024.08
1008.84
991.021
972.245
954.077
937.519
923.425
911.877
903.003
896.393
894.504
896.689
904.204
920.921
949.794
983.398
1023.17
1068.63
1117.13
1163.25
1200.74
1216.37
1217.6
1214.38
1212.82
1210.78
1205.34
1197.22
1200.69
1228.39
1252.69
1275.97
1303.51
1329.42
1351.26
1367.79
1378.09
1383.1
1383.71
1377.38
1362.17
1342.34
1317.66
1291.28
1264.64
1238.4
1211.68
1184.55
1155.45
1122.39
1086.21
1049.01
1011.23
972.556
932.433
890.79
848.121
804.749
760.801
716.309
671.231
625.527
579.115
531.87
483.694
434.576
384.654
334.258
283.852
233.755
184.193
136.145
91.1256
36.307
1096.16
1097.24
1096.91
1096.26
1095.93
1096.43
1096.57
1095.12
1093
1090.8
1088.26
1085.26
1082.03
1078.71
1075.47
1072.47
1069.92
1067.9
1066.16
1064.32
1062.06
1059.15
1055.43
1050.75
1044.58
1035.92
1023.84
1008.23
989.968
970.782
952.295
935.5
921.233
909.482
900.318
893.284
891.086
892.924
899.289
917.465
946.713
980.583
1020.71
1066.67
1115.84
1162.65
1200.95
1216.48
1217.79
1215.07
1213.52
1211.18
1205.24
1196.1
1200.31
1228.69
1253.39
1278
1307.02
1334.21
1357.41
1375.18
1386.54
1392.35
1393.43
1386.94
1371.1
1351.85
1328.37
1303.28
1277.42
1251.32
1224.35
1196.4
1166.16
1132.13
1095.1
1056.94
1018.13
978.386
937.263
894.74
851.25
807.109
762.453
717.315
671.65
625.403
578.497
530.843
482.381
433.129
383.225
332.967
282.771
232.915
183.597
135.648
90.4898
36.0924
1096.23
1097.24
1096.86
1096.17
1095.83
1096.38
1096.44
1094.96
1092.84
1090.66
1088.13
1085.11
1081.87
1078.54
1075.29
1072.3
1069.8
1067.87
1066.24
1064.49
1062.32
1059.47
1055.78
1051.07
1044.8
1035.94
1023.58
1007.59
988.882
969.307
950.532
933.511
919.052
907.063
897.586
890.133
887.654
889.114
893.978
913.952
943.813
977.66
1018.16
1064.49
1114.18
1161.81
1201.42
1216.81
1217.89
1215.57
1214.15
1211.71
1205.65
1196.43
1202.35
1229.48
1254.79
1280.9
1311.35
1340
1364.67
1383.71
1396.09
1402.68
1404.15
1397.56
1381.29
1362.25
1339.85
1315.72
1290.57
1264.57
1237.34
1208.6
1177.3
1142.32
1104.43
1065.29
1025.43
984.627
942.532
899.157
854.874
809.974
764.58
718.719
672.347
625.421
577.899
529.738
480.924
431.499
381.589
331.455
281.455
231.839
182.769
134.804
89.2759
35.705
1096.31
1097.24
1096.8
1096.08
1095.71
1096.32
1096.29
1094.79
1092.67
1090.52
1087.99
1084.96
1081.71
1078.36
1075.11
1072.13
1069.67
1067.84
1066.32
1064.68
1062.59
1059.8
1056.13
1051.39
1045.02
1035.95
1023.3
1006.92
987.775
967.845
948.811
931.557
916.869
904.612
894.813
886.969
884.254
885.3
888.563
910.211
941.058
974.654
1015.54
1062.14
1112.33
1161.04
1201.95
1217.03
1218.18
1216.27
1215.08
1212.74
1206.91
1198.16
1205.38
1231.14
1257.48
1285.06
1316.75
1346.94
1373.11
1393.41
1406.83
1414.15
1415.91
1409.25
1392.77
1373.77
1352.13
1328.74
1304.13
1278.18
1250.64
1221.16
1188.85
1152.94
1114.18
1074.06
1033.15
991.301
948.25
904.028
858.937
813.221
766.987
720.271
673.061
625.356
577.159
528.474
479.317
429.737
379.841
329.839
280.034
230.653
181.823
133.834
88.0133
35.293
1096.39
1097.23
1096.74
1095.98
1095.59
1096.24
1096.13
1094.61
1092.51
1090.38
1087.85
1084.81
1081.53
1078.18
1074.92
1071.96
1069.55
1067.81
1066.4
1064.86
1062.86
1060.12
1056.48
1051.71
1045.22
1035.96
1023
1006.22
986.665
966.419
947.146
929.631
914.672
902.127
892.013
883.812
880.902
881.507
883.27
906.287
938.376
971.594
1012.87
1059.69
1110.38
1160.29
1202.18
1217
1218.59
1217.14
1216.35
1214.46
1209.35
1201.49
1209.65
1234.44
1261.73
1290.57
1323.41
1355.13
1382.78
1404.39
1418.87
1426.82
1428.73
1422
1405.47
1386.43
1365.24
1342.37
1318.1
1292.12
1264.23
1234.02
1200.75
1163.94
1124.32
1083.25
1041.3
998.427
954.423
909.316
863.336
816.69
769.495
721.824
673.716
625.219
576.373
527.209
477.758
428.058
378.187
328.309
278.681
229.51
180.887
132.905
86.9711
34.9336
1096.47
1097.21
1096.68
1095.88
1095.46
1096.15
1095.96
1094.44
1092.34
1090.23
1087.71
1084.64
1081.35
1077.99
1074.72
1071.78
1069.43
1067.79
1066.5
1065.06
1063.13
1060.45
1056.82
1052.02
1045.42
1035.95
1022.69
1005.52
985.572
965.05
945.537
927.717
912.449
899.61
889.199
880.684
877.605
877.631
878.315
902.205
935.682
968.545
1010.19
1057.12
1108.33
1159.41
1202.04
1216.82
1219.14
1218.23
1218.04
1216.93
1212.91
1206
1215.5
1239.55
1267.52
1297.53
1331.47
1364.68
1393.83
1416.77
1432.22
1440.63
1442.56
1435.78
1419.35
1400.16
1379.17
1356.57
1332.46
1306.37
1278.07
1247.13
1212.96
1175.28
1134.85
1092.86
1049.92
1006.03
961.034
914.955
867.976
820.301
772.08
723.432
674.449
625.209
575.777
526.192
476.481
426.668
376.805
327.018
277.524
228.52
180.055
132.099
86.1727
34.6348
1096.54
1097.19
1096.62
1095.77
1095.32
1096.05
1095.78
1094.27
1092.17
1090.07
1087.55
1084.46
1081.17
1077.79
1074.53
1071.6
1069.31
1067.78
1066.59
1065.25
1063.4
1060.77
1057.16
1052.33
1045.61
1035.93
1022.37
1004.81
984.515
963.749
943.972
925.794
910.191
897.072
886.41
877.667
874.478
873.507
873.709
897.973
932.962
965.546
1007.42
1054.41
1106.16
1158.36
1201.55
1216.52
1219.83
1219.57
1220.13
1220.08
1217.19
1211.49
1222.77
1246.4
1274.97
1306.11
1341.12
1375.76
1406.38
1430.59
1446.83
1455.48
1457.32
1450.53
1434.33
1414.92
1393.88
1371.34
1347.2
1320.89
1292.12
1260.46
1225.44
1186.98
1145.79
1102.95
1059.05
1014.12
968.06
920.914
872.855
824.107
774.859
725.272
675.469
625.549
575.581
525.602
475.634
425.686
375.789
326.038
276.626
227.733
179.372
131.446
85.5728
34.3834
1096.61
1097.17
1096.56
1095.65
1095.16
1095.93
1095.59
1094.1
1091.99
1089.91
1087.38
1084.28
1080.97
1077.59
1074.33
1071.42
1069.2
1067.77
1066.7
1065.45
1063.68
1061.09
1057.49
1052.62
1045.79
1035.9
1022.04
1004.12
983.51
962.519
942.44
923.859
907.917
894.56
883.721
874.857
871.665
869.811
869.283
893.482
930.114
962.518
1004.5
1051.56
1103.84
1157.08
1200.71
1216.17
1220.65
1221.14
1222.62
1223.76
1221.78
1218.01
1231.21
1254.88
1284.14
1316.47
1352.53
1388.51
1420.49
1445.78
1462.55
1471.25
1472.96
1466.24
1450.37
1430.7
1409.41
1386.71
1362.36
1335.73
1306.44
1274.08
1238.3
1199.13
1157.25
1113.6
1068.72
1022.7
975.513
927.23
878.053
828.232
777.989
727.511
676.94
626.379
575.894
525.52
475.271
425.147
375.161
325.389
276.003
227.165
178.857
130.961
85.144
34.1711
1096.68
1097.14
1096.49
1095.53
1095
1095.79
1095.4
1093.93
1091.82
1089.75
1087.21
1084.08
1080.77
1077.39
1074.12
1071.24
1069.08
1067.76
1066.81
1065.66
1063.95
1061.4
1057.82
1052.92
1045.96
1035.86
1021.71
1003.45
982.573
961.366
940.945
921.935
905.67
892.127
881.148
872.171
869.003
867.887
868.143
889.4
926.919
959.379
1001.42
1048.58
1101.38
1155.52
1199.54
1215.8
1221.58
1222.97
1225.51
1227.85
1226.52
1225.51
1240.63
1264.82
1294.99
1328.59
1365.75
1402.94
1436.08
1462.15
1479.19
1487.85
1489.49
1482.95
1467.44
1447.52
1425.88
1402.85
1378.15
1351.09
1321.24
1288.21
1251.75
1211.94
1169.38
1124.89
1078.99
1031.82
983.433
933.967
883.661
832.784
781.581
730.25
678.938
627.747
576.741
525.951
475.386
425.041
374.916
325.069
275.657
226.823
178.522
130.649
84.8827
33.9982
1096.75
1097.11
1096.43
1095.4
1094.83
1095.64
1095.2
1093.77
1091.64
1089.57
1087.02
1083.88
1080.56
1077.18
1073.92
1071.05
1068.96
1067.76
1066.93
1065.86
1064.21
1061.7
1058.14
1053.2
1046.12
1035.82
1021.38
1002.81
981.717
960.294
939.497
920.048
903.476
889.759
878.597
869.475
866.325
865.096
868.931
888.164
923.46
956.164
998.211
1045.47
1098.75
1153.64
1198.06
1215.41
1222.58
1225.04
1228.74
1232.15
1231.6
1233.92
1250.88
1276.04
1307.33
1342.33
1380.63
1418.89
1452.91
1479.47
1496.63
1505.29
1506.98
1500.68
1485.55
1465.48
1443.49
1420.06
1394.9
1367.34
1336.89
1303.21
1266.09
1225.6
1182.3
1136.9
1089.89
1041.49
991.847
941.175
889.739
837.827
785.687
733.52
681.474
629.65
578.107
526.874
475.96
425.353
375.042
325.074
275.589
226.711
178.375
130.516
84.7925
33.868
1096.81
1097.07
1096.36
1095.27
1094.64
1095.46
1095
1093.62
1091.47
1089.39
1086.82
1083.66
1080.35
1076.96
1073.7
1070.86
1068.85
1067.77
1067.05
1066.06
1064.47
1062
1058.45
1053.47
1046.28
1035.77
1021.06
1002.23
980.951
959.294
938.087
918.193
901.311
887.397
876.07
866.921
863.961
861.577
869.302
887.163
919.954
952.926
994.868
1042.23
1095.9
1151.41
1196.29
1214.98
1223.62
1227.33
1232.24
1236.59
1237.29
1243.15
1261.85
1288.32
1320.94
1357.43
1396.9
1436.07
1470.73
1497.6
1514.89
1523.71
1525.55
1519.51
1504.77
1484.73
1462.49
1438.65
1412.98
1384.84
1353.76
1319.38
1281.52
1240.26
1196.09
1149.64
1101.4
1051.69
1000.76
948.869
896.313
843.376
790.31
737.313
684.531
632.061
579.964
528.266
476.972
426.066
375.529
325.397
275.799
226.832
178.421
130.563
84.8725
33.783
1096.87
1097.03
1096.29
1095.14
1094.45
1095.26
1094.8
1093.46
1091.29
1089.2
1086.61
1083.44
1080.13
1076.74
1073.49
1070.67
1068.74
1067.79
1067.17
1066.26
1064.71
1062.28
1058.75
1053.73
1046.42
1035.72
1020.77
1001.72
980.276
958.353
936.698
916.357
899.188
885.086
873.593
864.479
861.751
858.489
868.111
885.507
916.526
949.632
991.38
1038.83
1092.82
1148.82
1194.22
1214.45
1224.66
1229.8
1235.99
1241.18
1243.63
1252.95
1273.46
1301.47
1335.57
1373.59
1414.21
1454.2
1489.38
1516.54
1534.12
1543.28
1545.34
1539.55
1525.25
1505.44
1483.07
1458.83
1432.6
1403.82
1372.01
1336.83
1298.09
1255.9
1210.67
1163
1113.44
1062.38
1010.15
957.048
903.377
849.424
795.436
741.607
688.083
634.958
582.29
530.104
478.404
427.167
376.368
326.032
276.28
227.184
178.658
130.781
85.1132
33.743
1096.93
1096.99
1096.22
1095.01
1094.26
1095.04
1094.61
1093.32
1091.1
1088.99
1086.38
1083.21
1079.9
1076.52
1073.26
1070.48
1068.63
1067.81
1067.3
1066.45
1064.94
1062.55
1059.03
1053.98
1046.56
1035.68
1020.51
1001.27
979.67
957.454
935.327
914.539
897.079
882.791
871.113
862.051
859.227
856.205
866.48
883.627
913.188
946.236
987.742
1035.25
1089.48
1145.86
1191.83
1213.79
1225.62
1232.39
1239.98
1245.95
1250.59
1263.18
1285.63
1315.33
1351
1390.55
1432.33
1473.1
1508.82
1536.37
1554.45
1564.13
1566.48
1560.93
1547.12
1527.65
1505.21
1480.56
1453.72
1424.19
1391.54
1355.41
1315.64
1272.32
1225.86
1176.88
1125.95
1073.53
1020
965.698
910.92
855.955
801.045
746.383
692.109
638.319
585.065
532.372
480.239
428.641
377.544
326.967
277.023
227.757
179.078
131.158
85.493
33.7437
1096.98
1096.94
1096.15
1094.87
1094.06
1094.8
1094.42
1093.18
1090.91
1088.77
1086.15
1082.97
1079.67
1076.29
1073.04
1070.29
1068.53
1067.85
1067.43
1066.62
1065.17
1062.83
1059.33
1054.23
1046.69
1035.64
1020.27
1000.87
979.112
956.581
933.967
912.72
894.929
880.423
868.574
859.708
856.347
854.557
864.94
881.72
909.901
942.725
983.953
1031.49
1085.86
1142.53
1189.11
1212.91
1226.39
1235
1244.04
1250.99
1258.22
1273.85
1298.32
1329.83
1367.1
1408.17
1451.13
1492.74
1529.1
1557.21
1575.95
1586.24
1588.95
1583.68
1570.35
1551.25
1528.72
1503.63
1476.09
1445.72
1412.09
1374.87
1333.9
1289.31
1241.53
1191.18
1138.87
1085.11
1030.3
974.806
918.928
862.953
807.121
751.622
696.593
642.126
588.271
535.05
482.459
430.469
379.039
328.185
278.01
228.535
179.665
131.668
85.9746
33.7745
1097.04
1096.88
1096.07
1094.73
1093.87
1094.55
1094.24
1093.05
1090.71
1088.54
1085.9
1082.72
1079.43
1076.05
1072.81
1070.1
1068.45
1067.89
1067.55
1066.8
1065.41
1063.12
1059.63
1054.48
1046.83
1035.62
1020.06
1000.52
978.6
955.733
932.613
910.882
892.735
878.002
866.007
857.472
852.886
853.599
863.247
879.674
906.602
939.09
980.003
1027.52
1081.96
1138.82
1186.06
1211.74
1226.88
1237.45
1247.94
1256.37
1266.49
1284.98
1311.52
1344.92
1383.84
1426.44
1470.62
1513.17
1550.29
1579.09
1598.58
1609.51
1612.6
1607.64
1594.76
1575.95
1553.3
1527.72
1499.42
1468.1
1433.37
1394.93
1352.66
1306.73
1257.58
1205.86
1152.19
1097.11
1041.04
984.361
927.389
870.406
813.651
757.31
701.517
646.36
591.886
538.115
485.04
432.626
380.831
329.662
279.216
229.492
180.396
132.28