/*--------------------------------*- C++ -*----------------------------------*\
| =========                 |                                                 |
| \\      /  F ield         | OpenFOAM: The Open Source CFD Toolbox           |
|  \\    /   O peration     | Version:  4.1                                   |
|   \\  /    A nd           | Web:      www.OpenFOAM.org                      |
|    \\/     M anipulation  |                                                 |
\*---------------------------------------------------------------------------*/
FoamFile
{
    version     2.0;
    format      ascii;
    class       surfaceScalarField;
    location    "1200";
    object      phi;
}
// * * * * * * * * * * * * * * * * * * * * * * * * * * * * * * * * * * * * * //

dimensions      [0 3 -1 0 0 0 0];

internalField   nonuniform List<scalar> 
52920
(
1269.79
35.0419
1243.55
26.2223
1223
20.5384
1209
13.9833
1201.62
7.35705
1204.1
-2.4893
1227.08
-22.9953
1274.3
-47.2413
1342.92
-68.6278
1430.83
-87.9297
1536.32
-105.506
1657.24
-120.931
1791.28
-134.056
1935.61
-144.342
2086.91
-151.309
2241.89
-154.989
2397.88
-156.002
2553.13
-155.265
2706.51
-153.383
2856.71
-150.208
3001.76
-145.066
3139.72
-137.965
3271.58
-131.87
3405.5
-133.927
3558.47
-152.974
3751.4
-192.941
3998.34
-246.939
4299.14
-300.815
4641.52
-342.377
5007.45
-365.939
5378.96
-371.516
5740.73
-361.775
6080.48
-339.756
6388.48
-308.005
6657.2
-268.722
6880.37
-223.177
7053.55
-173.188
7174.2
-120.654
7242.01
-67.8076
7260.81
-18.8125
7236.3
24.5086
7174.86
61.4376
7089.07
85.7855
6996.37
92.6941
6911.85
84.521
6845.36
66.4842
6800.08
45.2712
6773.04
27.0368
6759.56
13.4657
6756.33
3.23066
6761.88
-5.54926
6773.45
-11.5781
6783.58
-10.137
6782.73
0.852025
6760.94
21.7878
6708.89
52.0471
6619.58
89.3083
6488.33
131.249
6313.68
174.65
6100.24
213.441
5859.39
240.845
5606.35
253.046
5358.62
247.732
5140.39
218.236
4987.39
152.998
4953.39
34.0027
5061.48
-108.088
5289.56
-228.078
5565.35
-275.796
5808.05
-242.695
5995.3
-187.247
6146.24
-150.933
6259.35
-113.112
6276.4
-17.0442
6183.12
93.274
6060.66
122.461
5953.36
107.302
5824.46
128.901
5637.42
187.047
5436.83
200.593
5343.49
93.3364
5382.64
-39.1421
5411.97
-29.334
5275.93
136.044
5026.58
249.353
5068.84
-42.2626
5449.37
-380.535
5773.31
-323.934
6169.84
-396.531
6706.79
-536.946
7376.24
-669.452
8117.48
-741.245
8863.18
-745.7
9599.04
-735.856
10336.9
-737.826
11057.7
-720.834
11569.8
-512.067
11811.1
-241.314
11663.1
147.992
507.098
1270.8
67.4507
1246.24
50.7781
1226.22
40.5469
1212.41
27.7709
1205.14
14.602
1207.4
-4.76045
1229.49
-45.1098
1274.58
-92.345
1339.79
-133.849
1424.31
-172.467
1528.69
-209.904
1652.26
-244.512
1792.07
-273.881
1943.24
-295.519
2100.47
-308.559
2259.41
-313.937
2417.14
-313.741
2572.26
-310.398
2724.36
-305.489
2873.06
-298.914
3017.26
-289.274
3155.45
-276.167
3288.36
-264.791
3423.91
-269.481
3581.05
-310.124
3785.14
-397.035
4052.79
-514.595
4380.92
-628.949
4750.69
-712.161
5138.55
-753.802
5524.04
-757.006
5891.98
-729.724
6231.6
-679.378
6535.02
-611.434
6796.47
-530.175
7011.12
-437.832
7175.71
-337.792
7288.68
-233.628
7350.64
-129.771
7365.95
-34.1226
7340.86
49.5897
7282.38
119.921
7202.75
165.407
7118.93
176.512
7045.33
158.115
6990.92
120.886
6957.67
78.5195
6941.28
43.4233
6936.72
18.0133
6940.8
-0.849698
6951.84
-16.5926
6967.02
-26.7637
6978.7
-21.8208
6976.95
2.6077
6951.59
47.1419
6893.18
110.459
6794.56
187.927
6651.24
274.572
6461.91
363.977
6231.46
443.89
5971.63
500.669
5697.97
526.715
5428.56
517.139
5188.89
457.914
5016.67
325.215
4966.72
83.9493
5066.88
-208.245
5284.37
-445.563
5541.65
-533.074
5774.19
-475.23
5959.16
-372.214
6105.02
-296.795
6196.56
-204.651
6175.49
4.02781
6047.2
221.565
5900.93
268.737
5769.6
238.631
5618.51
280.002
5427.16
378.39
5248.12
379.637
5184.57
156.889
5220.82
-75.3842
5177.81
13.6721
5065.58
248.282
4971.76
343.174
4980.82
-51.3273
5201.17
-600.886
5419.65
-542.409
5660.76
-637.642
6033.24
-909.432
6589.28
-1225.49
7277.36
-1429.33
8007.98
-1476.32
8745.47
-1473.34
9488.5
-1480.85
10225.8
-1458.18
10747.6
-1033.79
10974.6
-468.353
10785.8
336.784
1019.61
1263.62
100.483
1238.29
76.1013
1217.73
61.0939
1203.25
42.2355
1194.78
23.0465
1195.3
-5.2945
1215.06
-64.8894
1256.51
-133.811
1317.71
-195.058
1401.37
-256.139
1510.61
-319.164
1642.96
-376.873
1790.77
-421.701
1945.4
-450.155
2100.48
-463.653
2252.73
-466.197
2401.46
-462.477
2547.81
-456.757
2693.57
-451.26
2839.66
-445.013
2985.06
-434.682
3127.33
-418.446
3266.41
-403.882
3411.72
-414.799
3585.78
-484.19
3813.91
-625.17
4105.41
-806.097
4448.21
-971.752
4820.08
-1084.04
5200.08
-1133.8
5572.68
-1129.61
5927.09
-1084.14
6255.42
-1007.71
6551.29
-907.308
6809.4
-788.29
7024.7
-653.136
7193.36
-506.452
7312.98
-353.251
7383.34
-200.138
7407.97
-58.7557
7392.27
65.2866
7342.47
169.711
7270.22
237.653
7191.99
254.744
7122.06
228.036
7069.69
173.246
7037.05
111.154
7019.63
60.8394
7012.46
25.1798
7012.06
-0.452271
7015.67
-20.2103
7019.87
-30.9639
7017.04
-18.996
6997.59
22.0598
6952.46
92.2699
6874.43
188.488
6758.85
303.498
6603.42
430.006
6407.43
559.963
6174.9
676.425
5915.69
759.872
5642.79
799.617
5371.73
788.201
5126.57
703.078
4946.18
505.6
4889.08
141.055
4994.76
-313.922
5216.54
-667.342
5466.53
-783.058
5696.03
-704.734
5883.01
-559.187
6027.79
-441.573
6100.91
-277.777
6040.34
64.6038
5872.4
389.505
5698.38
442.76
5542.35
394.659
5370.77
451.589
5175.02
574.139
5015.32
539.334
4985.47
186.738
5047.32
-137.225
5027.32
33.6747
5032.8
242.796
5036.21
339.764
4933.14
51.7455
4961.5
-629.239
5115.14
-696.051
5263.52
-786.028
5478.71
-1124.61
5868.1
-1614.88
6421.68
-1982.91
7024.79
-2079.42
7604.19
-2052.75
8172.36
-2049.02
8768.03
-2053.85
9187.69
-1453.44
9362.39
-643.052
9135.49
563.679
1538.84
1252.65
134.601
1226.11
102.631
1204.4
82.7974
1188.57
58.0457
1178.28
33.3127
1176.37
-3.40345
1192.6
-81.1398
1229.15
-170.372
1287.41
-253.335
1374.11
-342.859
1490.53
-435.594
1627.66
-514.017
1773.32
-567.374
1919.13
-595.974
2062.14
-606.679
2203.32
-607.383
2345.55
-604.712
2491.93
-603.15
2644.09
-603.434
2800.91
-601.837
2958.57
-592.348
3112.78
-572.665
3263.82
-554.93
3422.05
-573.038
3606.54
-668.693
3834.04
-852.673
4108.36
-1080.42
4420.94
-1284.34
4757.84
-1420.94
5104.88
-1480.85
5449.96
-1474.69
5783.36
-1417.55
6097.29
-1321.65
6385.14
-1195.16
6641.14
-1044.3
6859.31
-871.312
7034.52
-681.663
7162.75
-481.483
7242.29
-279.68
7275.82
-92.2979
7268.27
72.8346
7225.73
212.25
7159.91
303.47
7086.9
327.747
7021.09
293.845
6972.38
221.945
6943.21
140.314
6928.22
75.832
6921.46
31.9263
6918.79
2.21439
6916.29
-17.7072
6909.84
-24.515
6892.11
-1.27282
6853.84
60.3294
6786.77
159.333
6685.99
289.271
6549.6
439.886
6378.22
601.382
6173.2
764.987
5939.41
910.214
5686.08
1013.2
5423.57
1062.13
5163.45
1048.33
4926.14
940.39
4750.2
681.537
4698.55
192.707
4829.71
-445.083
5073.44
-911.068
5328.11
-1037.72
5564.01
-940.634
5759.15
-754.326
5906.43
-588.854
5959.32
-330.663
5853.47
170.455
5643.17
599.813
5440.73
645.203
5260.27
575.115
5069.47
642.4
4877.64
765.966
4765.88
651.103
4803.78
148.83
4863.7
-197.136
4851.82
45.5551
5143.15
-48.5342
5308.12
174.791
5031.97
327.905
4787.3
-384.576
4791.71
-700.455
4796.17
-790.491
4800.57
-1129.02
4944.71
-1759.02
5268.97
-2307.17
5654.5
-2464.95
5979.03
-2377.28
6301.19
-2371.19
6711.91
-2464.57
7078.99
-1820.52
7256.78
-820.836
7070.65
749.809
1982.12
1238.64
170.268
1210.41
130.851
1186.94
106.251
1169.27
75.7018
1156.78
45.7783
1151.62
1.74267
1163.08
-92.6192
1195.14
-202.438
1253.68
-311.894
1345.42
-434.606
1464.98
-555.172
1598.35
-647.396
1734.77
-703.805
1871.16
-732.367
2009.83
-745.356
2154.72
-752.287
2308.57
-758.567
2471.41
-765.999
2640.35
-772.379
2810.35
-771.848
2975.94
-757.941
3133.41
-730.149
3283.5
-705.019
3433.01
-722.554
3594.64
-830.332
3784.48
-1042.52
4014.82
-1310.76
4286.64
-1556.17
4590.06
-1724.36
4910.56
-1801.36
5234.69
-1798.82
5551.84
-1734.71
5853.83
-1623.64
6133.8
-1475.13
6385.59
-1296.1
6602.4
-1088.13
6778.26
-857.522
6908.38
-611.609
6990.64
-361.945
7028.04
-129.705
7025.47
75.4005
6989.17
248.547
6931.24
361.396
6866.96
392.023
6810.39
350.409
6771.77
260.566
6753.09
158.986
6747.06
81.8563
6746.04
32.9407
6745.63
2.62598
6741.43
-13.5151
6728.78
-11.8662
6700.59
26.9123
6647.35
113.565
6560.44
246.236
6436.4
413.31
6275.44
600.847
6080.72
796.094
5856.33
989.374
5610.2
1156.35
5353.51
1269.89
5095.78
1319.86
4845.02
1299.09
4617.13
1168.28
4449.64
849.031
4410.22
232.134
4585.1
-619.961
4863.66
-1189.63
5130.86
-1304.92
5380.05
-1189.81
5587.24
-961.519
5742.33
-743.941
5776.81
-365.142
5625.31
321.957
5376.19
848.929
5145.31
876.09
4935.88
784.541
4718.66
859.619
4541.97
942.658
4553.22
639.854
4728.38
-26.3246
4686.16
-154.917
4663.38
68.3342
5178.92
-564.073
5616.18
-262.463
5274.56
669.518
4712.9
177.087
4628.61
-616.158
4655.37
-817.253
4578.05
-1051.7
4357.24
-1538.21
4202.23
-2152.15
4239.03
-2501.76
4381.96
-2520.2
4661.69
-2650.91
5129.54
-2932.43
6218.92
-2909.89
6467.83
-1069.75
6081.57
1136.07
2211.26
1216.7
208.198
1186.48
161.067
1160.98
131.733
1141.33
95.3341
1126.78
60.304
1118.63
9.87633
1126.61
-100.618
1157.5
-233.352
1219.14
-373.548
1314.24
-529.721
1432.6
-673.544
1561.4
-776.209
1695.37
-837.785
1836.14
-873.145
1987.18
-896.403
2149.55
-914.668
2320.51
-929.533
2494.73
-940.237
2666.51
-944.163
2831.27
-936.615
2986.19
-912.867
3129.84
-873.809
3261.83
-837.018
3384.97
-845.705
3511.6
-956.968
3664.51
-1195.45
3862.41
-1508.66
4106.74
-1800.5
4385.71
-2003.34
4684.27
-2099.92
4989.46
-2104.02
5291.14
-2036.39
5581.12
-1913.63
5852.14
-1746.15
6097.6
-1541.56
6310.19
-1300.72
6484
-1031.34
6614.41
-742.025
6699.29
-446.822
6741.95
-172.375
6746.11
71.2391
6717.29
277.36
6668.19
410.494
6613.16
447.045
6566.39
397.177
6539.11
287.84
6533.24
164.842
6539.12
75.9738
6546.67
25.3922
6551.4
-2.11234
6548.79
-10.9061
6533.51
3.40538
6498.76
61.6586
6434.23
178.097
6329.88
350.578
6183.16
560.039
5995.88
788.123
5772.72
1019.25
5519.95
1242.15
5249.54
1426.75
4976.73
1542.71
4712.23
1584.36
4461.84
1549.47
4237.1
1393.03
4074.78
1011.35
4049.66
257.258
4282.8
-853.1
4601.27
-1508.1
4886.32
-1589.96
5154.58
-1458.07
5378.67
-1185.62
5556.63
-921.888
5583.06
-391.575
5387.45
517.572
5099.05
1137.33
4829.85
1145.29
4575.54
1038.85
4309.56
1125.6
4172.08
1080.14
4576.58
235.357
4994.54
-444.278
4694.41
145.21
3545.32
1217.43
1258.38
1722.86
-876.412
1872.33
-1604.91
1398.01
-1668.08
240.257
-1655.95
-628.29
-1601.87
-871.335
-1317.21
-1336.36
-927.453
-1927.97
-623.882
-2455.72
-520.543
-2605.1
-718.112
-2322.63
-1159.3
-2209.73
-1645.68
-2446.04
-2092.12
-2463.46
-2210.59
-951.274
-2385.14
1310.61
2583.28
1195.14
249.186
1161.92
194.272
1133.9
159.739
1112.12
117.105
1095.43
76.9682
1084.37
20.9164
1089.94
-106.197
1120.91
-264.342
1184.89
-437.535
1282.1
-626.949
1402.35
-793.802
1536.1
-909.967
1680.72
-982.417
1836.95
-1029.38
2003.71
-1063.17
2176.12
-1087.09
2347.31
-1100.74
2511.62
-1104.55
2666.26
-1098.81
2810.89
-1081.25
2945.96
-1047.94
3070.72
-998.575
3182.85
-949.16
3283.92
-946.779
3388.15
-1061.21
3519.06
-1326.36
3692.48
-1682.09
3909.46
-2017.49
4161.89
-2255.77
4437.66
-2375.7
4724.05
-2390.42
5009.91
-2322.25
5286.3
-2190.03
5545.86
-2005.72
5782.58
-1778.29
5989.88
-1508.02
6162.69
-1204.15
6296.23
-875.574
6387.14
-537.736
6437.97
-223.204
6449.63
59.5692
6426.86
300.126
6383.77
453.578
6333.92
496.893
6292.62
438.476
6273.8
306.652
6280.85
157.783
6301.78
55.0366
6322.77
4.39866
6338.26
-17.603
6342.89
-15.5414
6330.37
15.9203
6294.44
97.5802
6223.45
249.086
6105.47
468.555
5939.08
726.43
5727.35
999.851
5475.18
1271.42
5189.87
1527.45
4887.47
1729.15
4588.35
1841.82
4306.02
1866.7
4045.6
1809.89
3814.9
1623.73
3651.03
1175.21
3642.39
265.907
3946.38
-1157.09
4302.17
-1863.89
4610.99
-1898.79
4906.87
-1753.94
5156.37
-1435.11
5373.97
-1139.49
5390.4
-408.007
5135.72
772.253
4796.21
1476.84
4476.34
1465.16
4162.6
1352.59
3801.39
1486.81
3162.84
1718.69
1821.8
1576.39
188.262
1189.26
-545.662
879.135
-793.749
1465.52
-1494.41
2423.52
-2049.58
2427.5
-2096.81
1445.25
-2051.53
194.981
-2076.05
-603.768
-2103.61
-843.773
-2084.16
-1355.81
-1983.92
-2028.21
-1874.59
-2565.05
-1800.32
-2679.38
-1878.03
-2244.92
-2299.4
-1788.36
-3089.27
-1656.17
-4087.74
-1464.98
-4842.4
-196.612
-5175.38
1643.59
2714.7
1172.33
292.677
1136.6
229.995
1106.41
189.912
1082.81
140.687
1064.31
95.4439
1050.78
34.4235
1054.21
-109.649
1084.69
-294.832
1151.47
-504.333
1255.81
-731.3
1387.3
-925.303
1535.31
-1057.99
1694.48
-1141.59
1860.85
-1195.76
2028.63
-1230.96
2190.93
-1249.4
2342.85
-1252.66
2483.36
-1245.06
2614.52
-1229.99
2739.16
-1205.9
2858.46
-1167.25
2970.42
-1110.54
3071.3
-1050.05
3162.37
-1037.86
3254.74
-1153.59
3365.18
-1436.8
3509.96
-1826.87
3699.82
-2207.35
3932.7
-2488.66
4193.93
-2636.94
4466.07
-2662.57
4736.02
-2592.2
4995.72
-2449.73
5240.1
-2250.1
5465.74
-2003.94
5667.53
-1709.81
5840.59
-1377.22
5978.16
-1013.14
6073.89
-633.473
6128.79
-278.104
6140.34
48.0132
6114.04
326.417
6066.96
500.655
6011.98
551.867
5966.42
484.032
5948.76
324.303
5966.35
140.189
6005.77
15.6118
6047.9
-37.7445
6083.77
-53.47
6105.25
-37.0304
6104.4
16.7746
6075.73
126.237
6005.54
319.285
5879.84
594.249
5699.49
906.781
5468.3
1231.03
5190.24
1549.48
4872.46
1845.23
4534.72
2066.89
4202.9
2173.64
3894.27
2175.33
3614.68
2089.48
3369.03
1869.38
3196.04
1348.2
3215.28
246.67
3605.44
-1547.24
3982.19
-2240.64
4320.23
-2236.82
4643.23
-2076.94
4907.53
-1699.42
5157.87
-1389.82
5128.58
-378.71
4781.94
1118.9
4391.47
1867.31
4027.34
1829.29
3638.37
1741.56
3027.3
2097.89
1903.41
2842.58
384.681
3095.13
-947.124
2521.07
-1685.7
1617.71
-2037.19
1817.01
-2265
2651.32
-2410.21
2572.71
-2579.77
1614.81
-2932.32
547.53
-3247.4
-288.692
-3385.38
-705.793
-3568.04
-1173.15
-3745.2
-1851.04
-3893
-2417.25
-3992.41
-2579.97
-4072.26
-2165.07
-4327.97
-1532.66
-4884.79
-1099.35
-5664.74
-685.035
-6276.58
415.229
-6493.68
1860.7
2760.64
1147.63
338.659
1109.61
268.009
1077.57
221.942
1052.52
165.722
1032.69
115.248
1017.07
50.0257
1017.84
-110.435
1048.26
-325.262
1123.27
-579.361
1243.58
-851.621
1392.31
-1074.04
1553.1
-1218.79
1716.6
-1305.11
1876.18
-1355.35
2026
-1380.78
2162.56
-1385.97
2286.32
-1376.43
2401.22
-1359.97
2512.37
-1341.15
2623.35
-1316.88
2734.32
-1278.22
2841.72
-1217.95
2941.04
-1149.37
3030.27
-1127.1
3111.36
-1234.68
3198.27
-1523.72
3321.31
-1949.91
3503.05
-2389.1
3735.58
-2721.2
3992.82
-2894.18
4253.04
-2922.79
4505.5
-2844.66
4746.69
-2690.94
4975.67
-2479.08
5191.7
-2219.97
5389.73
-1907.85
5563.14
-1550.63
5701.31
-1151.32
5794.66
-726.826
5843.15
-326.602
5841.16
49.9969
5797.03
370.541
5731.53
566.155
5656.96
626.43
5592.81
548.171
5563.19
353.92
5582.34
121.03
5638.15
-40.1965
5706.32
-105.925
5771.84
-118.989
5820.69
-85.8904
5842.21
-4.74784
5831.32
137.125
5771.02
379.582
5644.9
720.364
5457.58
1094.1
5213.38
1475.23
4914.39
1848.47
4566.73
2192.89
4193.38
2440.25
3825.59
2541.43
3484.82
2516.1
3178.66
2395.63
2910.27
2137.78
2719.9
1538.57
2787.09
179.48
3270.26
-2030.4
3625.29
-2595.66
3968.61
-2580.14
4285.81
-2394.13
4523.97
-1937.58
4795.52
-1661.37
4705.95
-289.141
4244.18
1580.67
3838.15
2273.35
3532.18
2135.25
3210.51
2063.24
2558.03
2750.37
1338.63
4061.98
-157.81
4591.56
-1428.17
3791.43
-2200.48
2390.03
-2513.51
2130.04
-2576.95
2714.77
-2715.79
2711.55
-3109.16
2008.18
-3712.97
1151.34
-4291.53
289.871
-4635.45
-361.869
-4936.04
-872.564
-5301.62
-1485.47
-5692.11
-2026.75
-6053.64
-2218.45
-6322.39
-1896.32
-6569.6
-1285.44
-6936.86
-732.088
-7500.06
-121.829
-8011.26
926.429
-8263.83
2113.26
2845.41
1121.42
386.897
1081.31
308.105
1047.57
255.669
1021.25
192.023
1000.37
136.098
982.148
68.2241
979.474
-107.781
1013.75
-359.552
1105.9
-671.523
1247.34
-993.077
1409.04
-1235.75
1570.04
-1379.8
1720.76
-1455.83
1856.41
-1491
1975.28
-1499.66
2079.41
-1490.1
2174.11
-1471.14
2266.26
-1452.13
2361.92
-1436.82
2464.21
-1419.19
2572.28
-1386.29
2681.94
-1327.63
2786.9
-1254.34
2877.09
-1217.29
2946.33
-1303.93
3020.18
-1597.57
3148.38
-2078.12
3348.56
-2589.29
3592.73
-2965.37
3846.24
-3147.68
4091.94
-3168.5
4326.67
-3079.4
4552.39
-2916.66
4770.87
-2697.57
4981.9
-2431
5178.31
-2104.26
5350.56
-1722.89
5484.1
-1284.86
5567.69
-810.42
5601.16
-360.083
5576.1
75.059
5504.65
441.981
5409.96
660.838
5303.89
732.494
5207.78
644.276
5150.83
410.868
5155.98
115.869
5216.43
-100.647
5306.46
-195.968
5404.46
-216.986
5487.21
-168.653
5540.24
-57.7734
5557.4
119.951
5516.27
420.712
5396.86
839.77
5209.37
1281.6
4958.58
1726.02
4644.08
2162.97
4270.19
2566.77
3862.7
2847.74
3457.8
2946.33
3081.03
2892.87
2742.08
2734.58
2443.91
2435.96
2224.44
1758.04
2354.76
49.1649
2866.31
-2541.95
3126.93
-2856.28
3423.16
-2876.37
3736.49
-2707.46
3946.19
-2147.28
4247.63
-1962.8
4068.15
-109.659
3504.07
2144.75
3178.37
2599.04
2838.14
2475.49
2263.54
2637.84
1506.83
3507.07
533.339
5035.47
-609.324
5734.23
-1628.86
4810.96
-2325.82
3086.98
-2723.21
2527.43
-2989.47
2981.03
-3364.09
3086.16
-3935.54
2579.63
-4570.57
1786.37
-5215.39
934.698
-5749.4
172.132
-6155.62
-466.336
-6608.14
-1032.95
-7129.65
-1505.24
-7667.16
-1680.94
-8140.34
-1423.13
-8537.56
-888.222
-8950.17
-319.473
-9445.77
373.762
-9880.97
1361.63
-10133.1
2365.44
2948.14
1086.68
436.445
1045.98
348.791
1011.74
289.895
985.064
218.683
963.846
157.294
942.954
89.0967
938.883
-103.727
985.215
-405.895
1101.5
-787.821
1259.91
-1151.49
1420.84
-1396.69
1564.91
-1523.87
1687.06
-1577.99
1787.66
-1591.61
1870.71
-1582.72
1943.09
-1562.49
2012.75
-1540.8
2086.92
-1526.31
2170.86
-1520.77
2266.89
-1515.22
2374.18
-1493.59
2488.9
-1442.36
2600.92
-1366.36
2691.08
-1307.46
2756.46
-1369.31
2844.86
-1685.97
3008.65
-2241.91
3237.71
-2818.36
3486.81
-3214.47
3727.9
-3388.78
3956.35
-3396.95
4176.42
-3299.48
4392.63
-3132.87
4606.58
-2911.53
4816.48
-2640.9
5012.01
-2299.81
5181.23
-1892.1
5306.6
-1410.24
5377.26
-881.08
5393.06
-375.891
5343.2
124.914
5244.28
540.896
5118.69
786.417
4977.57
873.608
4843.76
778.084
4749.91
504.71
4726.72
139.054
4774.95
-148.883
4873.91
-294.931
4998.38
-341.458
5114.56
-284.842
5204.05
-147.272
5257.41
66.5864
5243.34
434.775
5136.27
946.833
4954.21
1463.66
4702.5
1977.72
4377.48
2487.99
3981.16
2963.09
3541.72
3287.18
3099.76
3388.3
2684.35
3308.28
2306.63
3112.31
1971.44
2771.15
1744.71
1984.77
1904.51
-110.636
2295.25
-2932.69
2432.87
-2993.89
2736.7
-3180.2
3105.92
-3076.68
3279.4
-2320.76
3603.16
-2286.55
3432.26
61.233
2524.77
3052.24
1372.88
3750.93
449.981
3398.39
107.461
2980.36
-36.3301
3650.86
-343.024
5342.17
-913.24
6304.44
-1611.32
5509.04
-2391.26
3866.92
-3172.87
3309.04
-3818.95
3627.12
-4395.01
3662.22
-4991.98
3176.61
-5581.57
2375.96
-6162.9
1516.03
-6734.25
743.483
-7235.06
34.4802
-7715.12
-552.899
-8257.95
-962.411
-8831.99
-1106.9
-9369.75
-885.372
-9838.96
-419.008
-10301.6
143.2
-10774.7
846.804
-11143.3
1730.28
-11347.8
2569.94
3034.81
1053.73
490.162
1009.96
392.552
974.163
325.671
946.896
245.929
925.292
178.871
901.431
112.932
900.011
-102.327
966.4
-472.299
1106.01
-927.442
1267.79
-1313.29
1410.22
-1539.12
1522.21
-1635.87
1606.55
-1662.34
1670.28
-1655.35
1722.68
-1635.13
1772.95
-1612.78
1827.97
-1595.82
1892.03
-1590.38
1967.83
-1596.58
2057.03
-1604.43
2160.25
-1596.82
2274.54
-1556.66
2386.08
-1477.92
2474.76
-1396.15
2555.65
-1450.21
2689.48
-1819.81
2899.74
-2452.18
3143.94
-3062.56
3381.01
-3451.55
3602.49
-3610.27
3815.41
-3609.88
4026.74
-3510.81
4239.85
-3345.98
4454.11
-3125.79
4665.21
-2852.01
4859.68
-2494.28
5024.07
-2056.5
5138.82
-1524.99
5195.22
-937.489
5192.64
-373.319
5119.21
198.346
4997.68
662.42
4846.3
937.785
4674.47
1045.44
4505.99
946.557
4375.43
635.261
4318.57
195.899
4342.13
-172.447
4437.13
-389.933
4576.67
-481
4717.76
-425.942
4843.94
-273.455
4938.97
-28.4533
4957.47
416.274
4866.43
1037.87
4694.51
1635.58
4447.03
2225.2
4115.87
2819.15
3700.29
3378.67
3230.67
3756.81
2751.65
3867.32
2295.47
3764.45
1871.67
3536.11
1468.95
3173.88
975.61
2478.12
522.347
342.632
822.88
-3233.22
1525.34
-3696.35
2121.1
-3775.96
2577.19
-3532.76
3763.99
-3507.55
3682.7
-2205.25
1935.82
1808.11
647.551
4340.51
-345.891
4744.37
-871.649
3924.14
-914.34
3023.05
-972.944
3709.47
-1102.98
5472.21
-1387.23
6588.69
-2000.12
6121.93
-3039.05
4905.86
-4143.29
4413.27
-4954.34
4438.18
-5549.55
4257.42
-6086.37
3713.43
-6616.81
2906.4
-7137.39
2036.6
-7660.2
1266.29
-8189.71
563.993
-8700.93
-41.6819
-9229.14
-434.201
-9780.49
-555.539
-10298.8
-367.094
-10771
53.2553
-11233.9
606.037
-11669.4
1282.32
-11996.3
2057.19
-12185.2
2758.89
3125.97
1021.89
546.266
975.617
438.815
938.216
363.058
910.265
273.864
887.787
201.327
860.492
140.206
866.583
-108.434
956.807
-562.534
1109.61
-1080.26
1256.35
-1460.04
1364.83
-1647.61
1437.2
-1708.25
1485.7
-1710.84
1523.6
-1693.27
1562.36
-1673.89
1608.47
-1658.9
1663.02
-1650.38
1724.83
-1652.19
1793.75
-1665.51
1871.81
-1682.5
1961.98
-1686.99
2062.8
-1657.48
2162
-1577.13
2253.36
-1487.52
2373.17
-1570.03
2564.56
-2011.2
2803.45
-2691.08
3037.66
-3296.78
3251.5
-3665.4
3455.53
-3814.3
3660.62
-3814.97
3871.16
-3721.35
4087.07
-3561.9
4304.59
-3343.32
4516.81
-3064.23
4707.57
-2685.05
4863.26
-2212.19
4963.19
-1624.92
5002.68
-976.98
4979.15
-349.797
4881.54
295.955
4741.46
802.492
4570.35
1108.89
4374.98
1240.81
4179.34
1142.19
4018.86
795.739
3932.39
282.356
3928.4
-168.465
4013.04
-474.579
4157.96
-625.928
4312.36
-580.349
4470.77
-431.869
4610.73
-168.423
4666.24
360.765
4594.33
1109.77
4437.11
1792.79
4198.35
2463.95
3864.28
3153.22
3431.39
3811.56
2932.02
4256.17
2414.89
4384.46
1915.8
4263.54
1441.67
4010.24
920.909
3694.64
241.969
3157.06
-113.56
698.164
332.091
-3678.87
599.971
-3964.23
766.956
-3942.95
887.24
-3653.04
588.65
-3208.96
-513.998
-1102.6
-984.802
2278.92
-1107.28
4462.99
-1694.96
5332.05
-2167.63
4396.82
-2382.85
3238.27
-2563.34
3889.96
-2649.5
5558.36
-2826.09
6765.29
-3404.55
6700.38
-4416.64
5917.95
-5409.22
5405.86
-6107.18
5136.13
-6616.49
4766.73
-7073.94
4170.89
-7537.33
3369.78
-8013.04
2512.31
-8486.77
1740.03
-8987
1064.22
-9517.62
488.94
-10051.7
99.8973
-10582.5
-24.7821
-11081.2
131.653
-11549.6
521.605
-11995.9
1052.37
-12390.8
1677.26
-12689.6
2355.98
-12875.7
2944.99
3226.65
989.852
603.995
942.006
486.65
903.657
401.39
875.487
302.013
851.555
225.231
821.102
170.633
839.631
-126.984
951.183
-674.099
1100.5
-1229.58
1215.39
-1574.94
1282.96
-1715.18
1320.72
-1746.02
1349.11
-1739.24
1383.18
-1727.34
1429.87
-1720.59
1487.48
-1716.52
1549.56
-1712.46
1610.87
-1713.51
1670.74
-1725.38
1732.7
-1744.47
1801.81
-1756.11
1879.17
-1734.85
1962.55
-1660.53
2068.57
-1593.54
2236.65
-1738.12
2465.42
-2239.98
2699.34
-2925
2907.31
-3504.75
3101.42
-3859.51
3298.9
-4011.79
3506.07
-4022.14
3721.95
-3937.24
3942.61
-3782.56
4161.43
-3562.14
4369.78
-3272.59
4550.2
-2865.48
4690.82
-2352.82
4770.57
-1704.68
4790.36
-996.77
4742.52
-301.97
4618.76
419.712
4462.06
959.183
4274.79
1296.16
4061.45
1454.15
3845.72
1357.92
3663.37
978.079
3556.04
389.68
3529.55
-141.985
3603.69
-548.731
3750.39
-772.629
3913.26
-743.226
4095.84
-614.458
4278.81
-351.395
4379.31
260.261
4331.62
1157.45
4192.12
1932.3
3962.45
2693.62
3625.91
3489.75
3177.53
4259.94
2649.38
4784.33
2093.19
4940.65
1550.16
4806.57
1022.51
4537.9
417.126
4300.02
-241.812
3816
-496.48
952.837
-247.504
-3927.84
-252.715
-3959.02
-187.17
-4008.49
-177.057
-3663.15
-640.163
-2745.86
-1784.52
41.756
-2223.23
2717.63
-2439.61
4679.37
-3068.15
5960.59
-3791.91
5120.58
-4373.29
3819.65
-4693.3
4209.97
-4779.07
5644.13
-4876.68
6862.9
-5254.5
7078.2
-5922.22
6585.68
-6584.3
6067.94
-7089.82
5641.65
-7492.21
5169.12
-7865.51
4544.19
-8254.66
3758.94
-8671.57
2929.22
-9106.2
2174.65
-9565.83
1523.85
-10067.4
990.55
-10592.9
625.348
-11114.5
496.84
-11615.9
633.067
-12081.3
987.017
-12499.6
1470.65
-12851.8
2029.4
-13111.2
2615.44
-13273.5
3107.32
3321.38
957.852
662.655
909.008
535.485
870.188
440.196
842.213
329.973
816.155
251.267
784.037
202.73
818.014
-160.976
941.609
-797.703
1069.8
-1357.78
1144.37
-1649.51
1177.1
-1747.92
1198.29
-1767.21
1229.81
-1770.77
1280
-1777.54
1345.61
-1786.21
1416.68
-1787.6
1483.26
-1779.05
1540.53
-1770.79
1589.63
-1774.49
1635.61
-1790.47
1684.61
-1805.11
1741.87
-1792.12
1819.57
-1738.23
1948.41
-1722.39
2146.19
-1935.91
2372.75
-2466.54
2577.92
-3130.18
2762.47
-3689.31
2950.22
-4047.26
3151.95
-4213.52
3366.03
-4236.22
3586.85
-4158.06
3807.79
-4003.51
4020.56
-3774.92
4216.45
-3468.48
4378.47
-3027.5
4498.1
-2472.45
4554.05
-1760.63
4553.73
-996.46
4479.28
-227.521
4328.58
570.4
4157.42
1130.34
3955.44
1498.13
3726.32
1683.26
3494.2
1590.03
3295.69
1176.58
3176.6
508.757
3136.93
-102.323
3205.62
-617.431
3355.7
-922.706
3528.26
-915.801
3728.55
-814.751
3953.06
-575.911
4111.61
101.707
4091.79
1177.26
3965.39
2058.7
3735.18
2923.82
3391.21
3833.73
2931.67
4719.47
2382.24
5333.76
1791.5
5531.39
1206.77
5391.3
623.606
5121.06
-34.7857
4958.42
-644.086
4425.3
-855.561
1164.31
-879.673
-3903.72
-1045.58
-3793.11
-1120.39
-3933.68
-1200.09
-3583.45
-1608.91
-2337.04
-2403.42
836.272
-2967.27
3281.48
-3589.63
5301.73
-4370.37
6741.33
-5241.94
5992.15
-5971.98
4549.68
-6362.77
4600.77
-6504.22
5785.58
-6566.25
6924.93
-6742.77
7254.72
-7093.11
6936.02
-7487.11
6461.94
-7834.33
5988.87
-8136.26
5471.05
-8427.08
4835.01
-8742.65
4074.51
-9097.18
3283.75
-9485.08
2562.56
-9905.47
1944.24
-10363.6
1448.7
-10856.5
1118.27
-11363.9
1004.24
-11854.1
1123.24
-12296
1428.85
-12674.7
1849.39
-12980.2
2334.86
-13196
2831.27
-13328.6
3239.96
3404.97
919.674
719.234
872.605
582.543
835.134
477.65
808.286
356.8
779.851
279.673
749.105
233.448
798.513
-210.403
920.84
-920.043
1016.22
-1453.17
1054.65
-1687.96
1070.36
-1763.64
1097.01
-1793.87
1147.69
-1821.46
1218.57
-1848.44
1297.96
-1865.61
1373.63
-1863.29
1437.73
-1843.15
1488.52
-1821.59
1529.11
-1815.1
1565.09
-1826.46
1603.11
-1843.15
1653.13
-1842.14
1736.67
-1821.78
1879.71
-1865.43
2072.94
-2129.15
2268.85
-2662.45
2444.88
-3306.22
2620.02
-3864.45
2812.09
-4239.34
3021.03
-4422.47
3239.54
-4454.74
3459.61
-4378.13
3672.99
-4216.89
3870.84
-3972.77
4045.92
-3643.56
4183.25
-3164.84
4278.58
-2567.79
4310.17
-1792.22
4291.88
-978.175
4188.4
-124.043
4012.91
745.881
3832.05
1311.2
3616.01
1714.16
3370.25
1929.01
3121.68
1838.6
2909.22
1389.03
2785.89
632.075
2743.18
-59.6177
2814.35
-688.613
2971.87
-1080.23
3159.15
-1103.09
3390.26
-1045.86
3667.07
-852.729
3887.29
-118.52
3885.19
1179.36
3753.14
2190.75
3501.54
3175.4
3139.3
4195.97
2675.1
5183.67
2120.47
5888.39
1509.58
6142.27
890.754
6010.12
261.121
5750.69
-422.868
5642.41
-1016.93
5019.36
-1307.75
1455.13
-1630.76
-3580.72
-1832.67
-3591.2
-2041.48
-3724.86
-2241.37
-3383.56
-2693
-1885.41
-3261.59
1404.86
-3845.82
3865.71
-4609.48
6065.39
-5393.65
7525.49
-6208.98
6807.47
-6910.07
5250.78
-7336.26
5026.95
-7541.67
5990.99
-7611.87
6995.13
-7693.24
7336.08
-7874.19
7116.97
-8110.59
6698.34
-8344.89
6223.17
-8563.24
5689.4
-8785.5
5057.26
-9040.87
4329.88
-9342.39
3585.27
-9686.05
2906.21
-10069.4
2327.57
-10493.3
1872.66
-10951.3
1576.2
-11420.7
1473.63
-11868.4
1570.98
-12267.5
1827.91
-12604.5
2186.48
-12869.1
2599.47
-13052.3
3014.44
-13166.9
3354.54
3482.64
883.027
779.626
834.677
630.883
798.171
514.143
772.387
382.568
741.569
310.468
715.903
259.093
777.411
-271.924
886.018
-1028.66
947.628
-1514.79
964.928
-1705.27
983.569
-1782.29
1028.37
-1838.68
1098.34
-1891.44
1180.71
-1930.82
1262.34
-1947.24
1334.29
-1935.24
1392.71
-1901.58
1438.35
-1867.24
1474.95
-1851.7
1507.74
-1859.26
1543.94
-1879.35
1596.43
-1894.64
1685.99
-1911.35
1823.81
-2003.25
1988.96
-2294.31
2151.33
-2824.83
2311.54
-3466.43
2487.98
-4040.9
2686.44
-4437.8
2899.6
-4635.63
3117.58
-4672.73
3330.48
-4591.03
3528.49
-4414.91
3703.2
-4147.49
3850.79
-3791.15
3959.88
-3273.93
4030.55
-2638.47
4040.8
-1802.48
4006.5
-943.88
3872.86
9.58819
3678.29
940.443
3489.14
1500.35
3259.64
1943.65
2996
2192.65
2729.13
2105.47
2502.17
1615.99
2380.29
753.938
2344.8
-24.1322
2427.17
-770.995
2595.19
-1248.26
2817.72
-1325.63
3121.63
-1349.77
3461.66
-1192.77
3715.5
-372.364
3695.87
1198.98
3531.83
2354.79
3240.31
3466.92
2849.26
4587.02
2384.53
5648.39
1843.28
6429.65
1236.07
6749.48
599.04
6647.16
-62.2364
6411.97
-755.508
6335.68
-1368.64
5632.49
-1828.43
1914.92
-2377.01
-3032.14
-2589.25
-3378.95
-2919.63
-3394.48
-3295.54
-3007.66
-3877.75
-1303.19
-4338.04
1865.14
-4828.49
4356.16
-5467.41
6704.31
-6094.24
8152.33
-6761.33
7474.57
-7406.25
5895.7
-7867.52
5488.22
-8118.37
6241.84
-8208.43
7085.19
-8261.73
7389.38
-8365.22
7220.45
-8511.01
6844.13
-8667.68
6379.84
-8825.4
5847.12
-8999.17
5231.03
-9211.74
4542.46
-9473.22
3846.76
-9780.01
3213
-10128.1
2675.65
-10514.3
2258.9
-10929.1
1990.94
-11350.9
1895.42
-11751
1971.16
-12106.5
2183.38
-12404.4
2484.38
-12635.1
2830.21
-12794.1
3173.37
-12896.7
3457.17
3556.77
848.574
842.298
798.163
681.283
761.785
550.504
735.977
408.354
702.636
343.781
684.224
277.474
752.098
-339.816
840.317
-1116.89
877.273
-1551.75
890.708
-1718.71
923.334
-1814.92
984.889
-1900.24
1064.13
-1970.69
1146.78
-2013.48
1223.36
-2023.83
1289.29
-2001.18
1343.23
-1955.53
1386.45
-1910.47
1422.09
-1887.35
1454.95
-1892.13
1492.78
-1917.19
1548.24
-1950.11
1634.87
-1998
1752.93
-2121.32
1886.88
-2428.26
2027.39
-2965.35
2183.08
-3622.12
2363.68
-4221.5
2566.57
-4640.7
2780.93
-4849.99
2994.22
-4886.03
3193.52
-4790.33
3367.84
-4589.23
3511.55
-4291.2
3627.24
-3906.84
3708.59
-3355.28
3758.56
-2688.44
3754.48
-1798.41
3705
-894.404
3540.12
174.46
3331
1149.56
3129.91
1701.44
2887.76
2185.79
2606.08
2474.32
2318.72
2392.83
2074.66
1860.04
1958.52
870.061
1943.35
-8.96822
2041.77
-869.432
2227.52
-1434
2530.14
-1628.27
2934.77
-1754.41
3306.5
-1564.51
3536.03
-601.904
3457.06
1277.94
3249.85
2562.01
2921.25
3795.52
2506.39
5001.89
2047.94
6106.84
1535.01
6942.58
955.085
7329.4
324.372
7277.87
-344.96
7081.3
-1039.73
7030.45
-1698.29
6291.06
-2348.18
2564.82
-3031.31
-2349.01
-3291.89
-3118.37
-3720.18
-2966.18
-4279.31
-2448.53
-4959.63
-622.875
-5349.15
2254.67
-5720.5
4727.51
-6150.79
7134.61
-6566.6