/*--------------------------------*- C++ -*----------------------------------*\
| =========                 |                                                 |
| \\      /  F ield         | OpenFOAM: The Open Source CFD Toolbox           |
|  \\    /   O peration     | Version:  4.1                                   |
|   \\  /    A nd           | Web:      www.OpenFOAM.org                      |
|    \\/     M anipulation  |                                                 |
\*---------------------------------------------------------------------------*/
FoamFile
{
    version     2.0;
    format      ascii;
    class       volVectorField;
    location    "1200";
    object      U;
}
// * * * * * * * * * * * * * * * * * * * * * * * * * * * * * * * * * * * * * //

dimensions      [0 1 -1 0 0 0 0];

internalField   nonuniform List<vector> 
26785
(
(3.38306e-16 0.0348411 10.6058)
(-1.395e-16 0.0286166 9.93238)
(-6.36677e-16 0.0245983 9.35998)
(-2.86777e-14 0.0209796 8.91505)
(7.38588e-17 0.0176336 8.54925)
(-1.26221e-14 0.0130916 8.2562)
(2.22766e-14 0.00514648 8.07907)
(-3.80288e-15 -0.00362819 8.06323)
(1.63301e-15 -0.0110113 8.19656)
(-2.56186e-14 -0.0173264 8.44081)
(2.94915e-14 -0.0226708 8.77155)
(2.06395e-14 -0.0268707 9.17362)
(1.3813e-14 -0.0300456 9.63124)
(5.71613e-15 -0.032264 10.1267)
(1.69145e-15 -0.0335072 10.6407)
(-8.50525e-16 -0.033806 11.1548)
(-2.31427e-15 -0.0333538 11.6536)
(-2.6007e-15 -0.032459 12.1279)
(-1.65361e-15 -0.0313198 12.5733)
(-9.5884e-15 -0.0298484 12.9879)
(4.52135e-15 -0.0277523 13.3675)
(-4.00909e-15 -0.0250119 13.7051)
(-1.0812e-14 -0.0227358 13.9984)
(5.80189e-15 -0.0235286 14.2665)
(-3.18315e-15 -0.0303417 14.5648)
(9.97125e-15 -0.0439422 14.9786)
(6.88246e-15 -0.0614238 15.5829)
(6.34165e-15 -0.0781959 16.3984)
(6.47518e-16 -0.0908303 17.3842)
(5.16904e-15 -0.0978582 18.4656)
(6.99987e-15 -0.0992745 19.5646)
(1.61346e-14 -0.0957127 20.6163)
(6.10965e-15 -0.0879173 21.5726)
(-1.77319e-15 -0.0765742 22.399)
(-1.15448e-14 -0.0623756 23.0719)
(5.05294e-15 -0.0458116 23.5755)
(2.26996e-15 -0.027643 23.9003)
(6.08171e-15 -0.00868021 24.0439)
(9.23974e-15 0.010205 24.0105)
(1.32096e-14 0.0274223 23.8149)
(4.80722e-15 0.0424898 23.4818)
(1.70206e-15 0.0560424 23.0354)
(4.29778e-15 0.0661544 22.4965)
(-1.32276e-14 0.0706202 21.9043)
(1.36823e-14 0.0697452 21.3124)
(6.24836e-15 0.0647622 20.7645)
(1.71949e-14 0.0575032 20.2831)
(8.85829e-15 0.0500713 19.8718)
(3.87495e-15 0.0437203 19.5208)
(1.99001e-15 0.0387969 19.2174)
(2.72314e-15 0.0351372 18.9504)
(-1.70366e-14 0.0334081 18.7102)
(-1.18302e-14 0.0348753 18.4759)
(-7.10793e-15 0.0396067 18.2187)
(-3.58276e-15 0.0475015 17.9147)
(-5.05177e-16 0.0582212 17.5421)
(-2.23077e-14 0.070905 17.0819)
(-1.04301e-15 0.0847679 16.5226)
(-5.96811e-15 0.0989196 15.8614)
(-9.32326e-15 0.111391 15.106)
(9.00259e-15 0.119573 14.279)
(5.178e-15 0.121753 13.4164)
(6.48338e-15 0.116902 12.5649)
(-2.08431e-14 0.102962 11.78)
(1.10637e-14 0.0772669 11.1285)
(8.97833e-16 0.0368128 10.705)
(3.44885e-15 -0.00412392 10.5552)
(4.59433e-15 -0.0406972 10.664)
(4.15598e-15 -0.0609291 10.9607)
(5.25701e-15 -0.0522136 11.3251)
(-2.87424e-14 -0.0301691 11.5957)
(1.27379e-14 -0.00637534 11.7034)
(4.75719e-15 0.0149478 11.6414)
(1.76762e-15 0.048116 11.4008)
(-6.9733e-15 0.0823069 10.9472)
(2.46449e-14 0.0890912 10.3553)
(1.81821e-14 0.0840958 9.75463)
(2.19787e-14 0.092538 9.17239)
(2.0658e-14 0.107002 8.53699)
(1.5723e-14 0.0984363 7.85956)
(1.64479e-14 0.0559134 7.30814)
(8.76791e-15 0.0225816 7.00576)
(-1.36324e-15 0.0401816 6.81968)
(-5.80922e-15 0.0962403 6.37302)
(-6.94333e-14 0.0959119 5.78254)
(-2.59538e-14 -0.0406929 5.47571)
(-2.34099e-14 -0.177986 6.01441)
(-1.69623e-14 -0.195662 7.09193)
(-4.76948e-14 -0.213629 8.07634)
(-2.17844e-14 -0.233806 9.07615)
(-2.0784e-14 -0.252977 10.2312)
(-2.07121e-14 -0.266192 11.55)
(-2.20239e-14 -0.265525 12.9444)
(-2.1422e-14 -0.256325 14.3294)
(-2.06082e-14 -0.246815 15.6631)
(-2.33126e-14 -0.235657 16.9054)
(-2.05535e-14 -0.162017 18.0225)
(-2.03242e-14 -0.0403672 18.5665)
(-2.05084e-14 0.122946 18.7912)
(-1.96071e-14 0.231861 17.2887)
(3.15146e-15 0.0911725 10.6059)
(-2.37829e-14 0.0780982 9.95149)
(-1.69115e-14 0.0694278 9.38448)
(-9.26228e-15 0.0602296 8.94044)
(-1.86021e-14 0.0509094 8.57572)
(-3.06611e-14 0.0378585 8.28175)
(1.93492e-14 0.0149046 8.09995)
(-3.39863e-14 -0.0102849 8.07325)
(-2.23814e-14 -0.0313965 8.18736)
(2.32471e-14 -0.0496648 8.40732)
(1.76436e-14 -0.0658606 8.72167)
(1.58846e-14 -0.0798029 9.12876)
(1.21843e-14 -0.0913703 9.61361)
(5.66788e-15 -0.0998536 10.1472)
(-1.7046e-15 -0.104666 10.6972)
(2.25523e-14 -0.105899 11.2368)
(2.44034e-14 -0.104328 11.7486)
(6.2935e-15 -0.101034 12.2246)
(9.29063e-15 -0.096753 12.664)
(1.93628e-14 -0.0914218 13.0694)
(-1.16871e-14 -0.0844198 13.4413)
(2.09249e-14 -0.0758398 13.776)
(-1.39182e-14 -0.0687856 14.0714)
(9.38371e-15 -0.07059 14.3436)
(6.30343e-15 -0.0904065 14.6489)
(2.76934e-15 -0.132463 15.0878)
(1.52966e-14 -0.189596 15.7544)
(6.88873e-15 -0.246255 16.6671)
(1.44459e-15 -0.288395 17.7594)
(7.47803e-16 -0.30945 18.9296)
(1.48074e-14 -0.309828 20.0856)
(1.18682e-15 -0.293151 21.1618)
(2.73239e-15 -0.263398 22.116)
(4.74531e-15 -0.223864 22.9218)
(1.64176e-15 -0.177272 23.5633)
(8.69419e-15 -0.125248 24.0305)
(1.06052e-14 -0.069914 24.3184)
(1.35765e-14 -0.0133984 24.4283)
(1.41365e-14 0.0418813 24.3668)
(1.34331e-14 0.0915932 24.1519)
(1.30818e-14 0.134343 23.8073)
(1.84152e-14 0.171708 23.3591)
(7.34624e-15 0.198259 22.8276)
(1.64569e-14 0.207813 22.2515)
(3.88175e-15 0.201706 21.6836)
(3.55293e-15 0.184133 21.1648)
(-2.29813e-15 0.161063 20.7139)
(9.38782e-15 0.138957 20.3305)
(7.34932e-15 0.120908 20.0015)
(2.03762e-14 0.107407 19.7156)
(-1.87467e-14 0.0977688 19.461)
(-8.8124e-15 0.0937077 19.2277)
(-1.32842e-14 0.0990997 18.9947)
(-5.04759e-16 0.114371 18.7325)
(2.50978e-14 0.139388 18.4168)
(-6.24087e-15 0.173515 18.0267)
(-7.07303e-15 0.214348 17.5424)
(7.98835e-15 0.259435 16.9537)
(2.24098e-14 0.30573 16.2587)
(-4.79763e-15 0.346718 15.4659)
(-4.86989e-15 0.374213 14.5979)
(-1.28889e-15 0.383075 13.6913)
(2.16485e-14 0.370252 12.7922)
(1.32417e-14 0.329404 11.9563)
(-6.94069e-15 0.25225 11.2524)
(4.50809e-15 0.129707 10.782)
(3.52133e-15 0.00202798 10.5924)
(7.39685e-15 -0.110857 10.6833)
(-4.51691e-14 -0.169382 10.9446)
(1.67946e-14 -0.144061 11.2882)
(8.0648e-15 -0.0806731 11.5395)
(-9.19117e-15 -0.01033 11.635)
(9.51882e-15 0.0549506 11.5465)
(-2.00015e-15 0.157761 11.2669)
(2.44736e-14 0.256784 10.7637)
(-2.05591e-14 0.268713 10.1334)
(-4.8278e-15 0.251139 9.50333)
(-3.80528e-15 0.275526 8.89523)
(-4.04218e-14 0.314292 8.23253)
(-1.22922e-14 0.28395 7.53948)
(-2.80216e-15 0.1615 6.99653)
(-2.38006e-14 0.0802114 6.69346)
(2.00116e-15 0.141304 6.44706)
(3.8044e-14 0.247995 5.87568)
(1.20208e-14 0.227345 5.46264)
(-5.48939e-14 -0.0730002 5.29927)
(-4.65187e-14 -0.39903 5.4575)
(-5.80841e-15 -0.416062 6.38575)
(-2.85391e-15 -0.47291 7.09309)
(-6.51975e-16 -0.592744 7.80377)
(-6.66071e-15 -0.718175 8.77558)
(-1.1925e-14 -0.79738 10.03)
(-1.29414e-14 -0.815014 11.4345)
(-2.9409e-14 -0.808055 12.8535)
(-2.67356e-14 -0.801672 14.2087)
(-3.86724e-14 -0.788119 15.4459)
(-4.83992e-14 -0.577641 16.5579)
(-5.11898e-14 -0.217351 17.1113)
(-5.46089e-14 0.292061 17.2676)
(-5.00812e-14 0.659732 15.7125)
(2.57136e-15 0.15078 10.5491)
(6.94481e-15 0.130535 9.89013)
(-2.46702e-14 0.115966 9.32182)
(3.1038e-14 0.100439 8.87659)
(1.5916e-14 0.08497 8.50809)
(-5.45412e-14 0.0634458 8.20553)
(2.7001e-14 0.0256159 8.01262)
(9.97202e-15 -0.0154137 7.96948)
(1.43295e-14 -0.0497029 8.05825)
(1.13876e-14 -0.0808577 8.25978)
(1.10399e-14 -0.111137 8.58855)
(8.99548e-15 -0.138781 9.04436)
(6.61798e-15 -0.160832 9.58533)
(3.04076e-15 -0.174841 10.1545)
(2.23004e-15 -0.18053 10.7081)
(-6.59106e-15 -0.179392 11.223)
(3.26473e-14 -0.173775 11.6934)
(2.94848e-15 -0.166137 12.1247)
(1.55498e-14 -0.158063 12.5286)
(-1.26224e-14 -0.14953 12.9157)
(1.52122e-14 -0.139221 13.2888)
(2.86785e-14 -0.126556 13.6403)
(5.39251e-15 -0.115876 13.9615)
(1.39909e-15 -0.120005 14.267)
(1.48693e-15 -0.157212 14.6265)
(-1.10797e-14 -0.236344 15.1548)
(-3.66411e-15 -0.34109 15.9274)
(3.35511e-15 -0.438806 16.9189)
(1.51064e-15 -0.504504 18.0367)
(3.96244e-15 -0.530786 19.184)
(6.45105e-15 -0.522495 20.2899)
(8.61695e-15 -0.487948 21.3089)
(3.22353e-15 -0.434252 22.2128)
(1.68341e-14 -0.366439 22.9821)
(2.46068e-14 -0.288347 23.6032)
(1.83426e-14 -0.202099 24.0656)
(1.25916e-14 -0.11094 24.3619)
(7.39524e-15 -0.0182721 24.4901)
(2.751e-15 0.0718844 24.4536)
(6.16178e-16 0.152847 24.2675)
(-1.45617e-16 0.222409 23.9521)
(1.76404e-16 0.282861 23.5307)
(1.20992e-15 0.325609 23.0207)
(2.15687e-15 0.340653 22.4601)
(2.70547e-15 0.330242 21.9023)
(2.12327e-15 0.301381 21.3884)
(1.4315e-15 0.26413 20.9381)
(1.1624e-16 0.229207 20.5514)
(-1.14395e-15 0.200861 20.2149)
(-3.05865e-15 0.179925 19.9184)
(-4.28145e-15 0.165669 19.6473)
(-5.00935e-15 0.160571 19.3883)
(-5.32973e-15 0.171157 19.1199)
(-4.69145e-15 0.198238 18.8129)
(-6.22176e-15 0.241249 18.4459)
(-2.69681e-14 0.298966 18.0031)
(1.66686e-15 0.3673 17.471)
(6.89499e-15 0.44225 16.8466)
(-9.07191e-16 0.519221 16.1321)
(1.62302e-14 0.587594 15.3348)
(1.0759e-15 0.634003 14.4724)
(1.39917e-15 0.650329 13.5749)
(4.9525e-16 0.631457 12.6814)
(3.19215e-16 0.565856 11.8415)
(-1.0363e-14 0.438354 11.1215)
(5.43712e-15 0.23276 10.6324)
(3.92768e-14 0.0104885 10.4298)
(6.83939e-16 -0.181548 10.5322)
(7.86505e-15 -0.271778 10.7856)
(7.32484e-15 -0.229493 11.1337)
(7.03601e-15 -0.128664 11.3847)
(5.64894e-15 -0.0107162 11.4839)
(1.82459e-14 0.105879 11.3777)
(8.60584e-15 0.290361 11.0569)
(-5.34367e-15 0.454343 10.4945)
(5.10847e-16 0.462288 9.80205)
(-1.21085e-16 0.432729 9.12558)
(-1.76951e-15 0.474519 8.48127)
(-3.29273e-15 0.530265 7.77099)
(-2.63558e-15 0.46359 7.03479)
(-2.95665e-15 0.254814 6.49445)
(2.66493e-15 0.145607 6.21958)
(-1.40249e-14 0.288412 5.97682)
(-1.26179e-14 0.389783 5.35943)
(6.52221e-16 0.283563 5.02478)
(6.96317e-16 -0.134285 4.97238)
(-5.54796e-15 -0.617083 4.92132)
(1.36233e-15 -0.643527 5.90832)
(6.79238e-15 -0.693507 6.4996)
(1.72353e-15 -0.894312 6.94824)
(-1.21878e-14 -1.16037 7.5888)
(-1.79546e-14 -1.36052 8.57076)
(-3.39778e-14 -1.41962 9.76756)
(-4.4823e-14 -1.38603 10.9501)
(-6.49988e-14 -1.31771 11.9803)
(-8.11187e-14 -1.26319 12.8743)
(-9.08088e-14 -0.883225 13.6864)
(-9.69283e-14 -0.278589 14.1702)
(-9.87716e-14 0.508791 14.2354)
(-8.63691e-14 1.03465 12.6085)
(2.83396e-16 0.210695 10.4639)
(2.7962e-14 0.183523 9.79761)
(-7.57693e-16 0.162654 9.22503)
(-2.36949e-14 0.14064 8.77497)
(-4.71686e-15 0.119245 8.39921)
(2.77342e-14 0.0894232 8.08569)
(-4.98011e-15 0.0370603 7.87831)
(-1.00469e-14 -0.0188092 7.80958)
(1.77336e-14 -0.0665834 7.86935)
(1.02438e-14 -0.114197 8.07258)
(9.16944e-15 -0.163116 8.44463)
(1.77092e-15 -0.205571 8.94838)
(4.23158e-17 -0.234716 9.50222)
(1.25266e-14 -0.248875 10.041)
(-4.28405e-15 -0.250828 10.5375)
(4.95397e-15 -0.244916 10.9925)
(6.35689e-15 -0.235468 11.4213)
(1.20379e-14 -0.226077 11.8426)
(-1.17669e-14 -0.218323 12.2706)
(5.92295e-15 -0.210877 12.7074)
(1.5355e-15 -0.200429 13.1413)
(7.44084e-15 -0.185282 13.5515)
(-3.9129e-15 -0.172268 13.9253)
(8.97857e-16 -0.181988 14.285)
(3.49201e-15 -0.241114 14.7011)
(7.36687e-15 -0.357027 15.2578)
(1.18691e-14 -0.500231 15.9921)
(1.23024e-14 -0.625737 16.879)
(1.22757e-14 -0.705194 17.8609)
(1.28783e-14 -0.733481 18.8759)
(1.88445e-14 -0.71864 19.8715)
(9.58881e-15 -0.671196 20.8078)
(3.18818e-15 -0.599484 21.6563)
(6.03602e-15 -0.509213 22.3957)
(7.11163e-15 -0.404842 23.0098)
(1.49753e-14 -0.288641 23.4849)
(-1.86574e-15 -0.164792 23.8086)
(1.27693e-14 -0.037768 23.9731)
(-2.75596e-15 0.0868242 23.9762)
(-2.96149e-14 0.199751 23.8288)
(-4.653e-15 0.29773 23.5494)
(4.67798e-15 0.383307 23.1599)
(-9.57957e-15 0.44436 22.6773)
(-1.72766e-14 0.466913 22.1385)
(-4.42602e-15 0.453796 21.5982)
(2.76633e-17 0.414478 21.0988)
(1.30082e-14 0.363281 20.6618)
(-3.06406e-15 0.315803 20.2872)
(-1.73235e-14 0.277701 19.9589)
(-1.08818e-14 0.250727 19.6652)
(8.46555e-15 0.234632 19.3888)
(-3.59931e-15 0.232036 19.1119)
(9.737e-15 0.251167 18.8132)
(-5.87174e-15 0.292739 18.4639)
(-1.91839e-14 0.355138 18.0457)
(-1.93793e-14 0.435735 17.5476)
(-2.48369e-14 0.528285 16.9625)
(1.29305e-14 0.627588 16.2954)
(-9.36181e-15 0.728866 15.5561)
(6.22236e-15 0.818767 14.7544)
(1.47464e-16 0.879952 13.9068)
(1.21106e-14 0.902396 13.0385)
(-4.19876e-15 0.879252 12.1799)
(-8.11493e-16 0.792798 11.3704)
(-2.57515e-15 0.618696 10.669)
(2.28346e-14 0.331143 10.1948)
(-1.0149e-14 0.00598634 10.0176)
(-1.25214e-14 -0.264669 10.1736)
(8.77302e-15 -0.377105 10.4553)
(8.54184e-15 -0.317683 10.8364)
(2.03712e-14 -0.182321 11.1078)
(-1.00691e-14 -0.0112696 11.2248)
(7.16215e-15 0.16943 11.1035)
(-3.67442e-14 0.447562 10.7258)
(-4.50359e-14 0.674058 10.0955)
(-1.30858e-14 0.666887 9.32694)
(-1.87181e-14 0.625074 8.60373)
(1.89226e-14 0.685573 7.92518)
(1.1801e-16 0.74961 7.15768)
(1.54212e-15 0.625208 6.37288)
(-1.06467e-15 0.313847 5.87699)
(4.75959e-16 0.17029 5.68878)
(1.08612e-14 0.353647 5.40363)
(-5.48138e-14 0.42468 4.76299)
(-2.89368e-15 0.436841 4.70254)
(-2.59594e-14 0.0051134 4.78249)
(3.04967e-14 -0.702319 4.49196)
(-3.17488e-15 -0.871248 5.30144)
(-1.19177e-14 -0.915373 5.61165)
(-5.22576e-14 -1.09525 5.66166)
(-1.94084e-14 -1.43018 5.8317)
(-5.96798e-14 -1.75192 6.38063)
(-8.17795e-14 -1.85774 7.21952)
(-9.3804e-14 -1.79314 8.02523)
(-1.04833e-13 -1.68903 8.53259)
(-1.1168e-13 -1.61531 8.99201)
(-1.2389e-13 -1.13029 9.22078)
(-1.29205e-13 -0.207799 9.89599)
(-1.36702e-13 1.01632 9.93242)
(-1.18472e-13 1.6066 8.3799)
(7.27018e-16 0.265213 10.3563)
(9.96406e-15 0.231957 9.67948)
(-6.50014e-15 0.206644 9.09931)
(-1.35682e-14 0.179433 8.64109)
(-1.46149e-14 0.153075 8.25637)
(-2.97748e-14 0.115894 7.93082)
(3.75791e-14 0.0502174 7.70201)
(-4.01746e-15 -0.0198195 7.60098)
(-1.66886e-15 -0.0837007 7.64623)
(5.25516e-15 -0.152376 7.87829)
(4.46866e-15 -0.220893 8.29125)
(7.85607e-15 -0.273858 8.79979)
(-1.12285e-14 -0.304428 9.31563)
(2.11206e-14 -0.315546 9.80136)
(5.79514e-15 -0.314327 10.2625)
(1.40422e-15 -0.307464 10.7215)
(1.49263e-14 -0.299871 11.1983)
(8.92932e-15 -0.294302 11.6997)
(6.43479e-15 -0.290379 12.2168)
(2.58903e-15 -0.284478 12.729)
(8.00838e-16 -0.271876 13.2113)
(8.34008e-15 -0.251642 13.6434)
(-5.10675e-16 -0.234628 14.0209)
(8.19531e-15 -0.247534 14.3645)
(1.33392e-14 -0.320881 14.7184)
(1.68563e-14 -0.460627 15.1437)
(1.42821e-14 -0.631976 15.702)
(2.47269e-14 -0.783746 16.4184)
(1.32634e-14 -0.882482 17.2632)
(1.60725e-14 -0.920453 18.1756)
(1.6088e-14 -0.905885 19.0956)
(1.44511e-14 -0.850882 19.9775)
(1.01716e-14 -0.76545 20.7897)
(1.41102e-14 -0.656477 21.5093)
(1.46462e-15 -0.529221 22.1183)
(4.99756e-15 -0.385805 22.6001)
(2.75924e-15 -0.231106 22.9388)
(2.73267e-15 -0.0705262 23.1234)
(2.29778e-15 0.0884931 23.1495)
(2.00735e-15 0.2336 23.0277)
(2.65893e-15 0.360317 22.7779)
(2.79488e-15 0.471002 22.4203)
(-3.36888e-15 0.550046 21.9728)
(8.54003e-15 0.580098 21.4689)
(6.58592e-15 0.564483 20.964)
(8.77215e-15 0.514828 20.5004)
(8.50194e-15 0.450063 20.1001)
(6.03696e-15 0.39143 19.7605)
(2.75771e-15 0.345886 19.4605)
(-4.50322e-15 0.315648 19.1856)
(6.68442e-15 0.301207 18.9193)
(-2.94202e-15 0.304838 18.6393)
(9.27542e-15 0.33545 18.3246)
(4.31498e-18 0.394007 17.946)
(-3.23222e-15 0.477885 17.4869)
(1.24684e-15 0.582434 16.9377)
(-9.05321e-15 0.698562 16.296)
(-5.17493e-15 0.819571 15.5735)
(-8.8351e-16 0.94068 14.7876)
(8.91356e-15 1.04607 13.9545)
(-8.22311e-15 1.11559 13.096)
(1.67732e-14 1.13933 12.2385)
(3.31435e-15 1.11024 11.4065)
(2.11525e-15 1.00424 10.6288)
(1.79152e-15 0.785326 9.95454)
(-5.31047e-14 0.415288 9.50953)
(1.68672e-15 -0.0265322 9.38709)
(-2.75699e-14 -0.373867 9.63303)
(2.68795e-15 -0.495609 9.97392)
(-2.08096e-14 -0.418616 10.4066)
(-1.11671e-14 -0.246877 10.7113)
(-2.67794e-14 -0.0117206 10.8568)
(3.96376e-16 0.252576 10.7366)
(-2.94327e-14 0.63362 10.2996)
(-3.6986e-14 0.912678 9.61349)
(-3.36284e-14 0.880413 8.76826)
(-3.73162e-14 0.829517 8.00359)
(-2.93146e-14 0.910585 7.28427)
(-2.10686e-14 0.968511 6.43434)
(2.64453e-14 0.751661 5.59125)
(2.33857e-14 0.370492 5.22354)
(-1.1219e-13 0.394419 5.18685)
(-3.68998e-14 0.680046 4.66449)
(-8.4261e-14 0.19533 4.31615)
(-1.52762e-13 -0.0567323 4.51571)
(-8.6463e-14 0.136983 4.92812)
(-5.84897e-14 -0.269151 3.3855)
(-5.47196e-14 -0.65992 3.74781)
(-6.09008e-14 -0.758097 3.76045)
(-9.1074e-15 -0.890768 3.69298)
(-6.86075e-14 -1.25316 3.57539)
(-7.6057e-14 -1.70667 3.53193)
(-8.87663e-14 -1.91977 3.81415)
(-1.12497e-13 -1.8867 4.2205)
(-1.26114e-13 -1.89208 4.3192)
(-1.18093e-13 -1.94727 4.45597)
(-1.25871e-13 -1.77762 3.90376)
(-1.41288e-13 -0.778236 6.18887)
(-1.49801e-13 0.847493 6.28972)
(-1.35938e-13 1.71697 5.22712)
(-2.17528e-16 0.331089 10.1857)
(2.17178e-14 0.285789 9.49817)
(3.45183e-15 0.253256 8.91027)
(3.60762e-14 0.219402 8.44434)
(-4.57359e-15 0.187431 8.05271)
(2.58507e-15 0.143133 7.71936)
(2.70462e-14 0.0646213 7.47298)
(2.03302e-14 -0.0207116 7.35557)
(-6.25248e-16 -0.104252 7.41473)
(-1.54138e-14 -0.195552 7.68273)
(-1.09894e-16 -0.280213 8.11035)
(8.35045e-15 -0.338935 8.6008)
(-4.24101e-15 -0.369403 9.0946)
(2.78203e-15 -0.380214 9.58759)
(3.05274e-15 -0.381336 10.1003)
(2.95483e-15 -0.379278 10.6468)
(5.16669e-15 -0.376923 11.2205)
(5.71613e-15 -0.374659 11.7972)
(2.3076e-14 -0.370566 12.3477)
(1.67515e-14 -0.36077 12.8491)
(1.06104e-14 -0.341464 13.2886)
(4.00356e-15 -0.313386 13.6624)
(2.13101e-14 -0.289487 13.9729)
(3.28663e-14 -0.299198 14.2261)
(2.10673e-14 -0.377891 14.4489)
(2.7578e-14 -0.537191 14.7208)
(2.07906e-14 -0.74069 15.1433)
(1.99586e-14 -0.926267 15.7534)
(1.64483e-14 -1.05001 16.5107)
(1.49002e-14 -1.1008 17.3477)
(1.93648e-14 -1.08854 18.2051)
(9.34465e-15 -1.02803 19.0392)
(8.39712e-15 -0.931204 19.8185)
(4.15221e-15 -0.805885 20.5183)
(3.68646e-15 -0.657828 21.1184)
(3.64331e-15 -0.488721 21.5998)
(1.16017e-15 -0.304366 21.9452)
(-6.82929e-16 -0.11131 22.1442)
(-6.74766e-16 0.0809761 22.1927)
(-4.53557e-16 0.256728 22.1009)
(-5.91903e-15 0.411178 21.8898)
(2.25259e-15 0.546087 21.5715)
(1.11961e-14 0.642233 21.165)
(2.40486e-15 0.679615 20.6996)
(1.5883e-14 0.661589 20.2326)
(1.24934e-14 0.601418 19.8081)
(1.16764e-14 0.523132 19.4501)
(1.01822e-14 0.454605 19.1537)
(8.69459e-15 0.403911 18.8914)
(7.76935e-15 0.372685 18.6437)
(7.00495e-15 0.362713 18.3974)
(7.55715e-15 0.37594 18.1245)
(7.51795e-15 0.420971 17.8043)
(6.53359e-15 0.499705 17.4065)
(5.62437e-15 0.609135 16.9155)
(4.24008e-15 0.74099 16.3196)
(4.25998e-15 0.88254 15.6204)
(3.39866e-15 1.02534 14.8347)
(-1.38085e-14 1.16427 13.9848)
(1.01766e-14 1.28029 13.0934)
(4.94069e-15 1.35104 12.192)
(3.24528e-14 1.36911 11.3141)
(8.04598e-15 1.32951 10.4826)
(4.69097e-15 1.20244 9.71757)
(-6.93942e-15 0.937511 9.05935)
(-1.19458e-14 0.481287 8.63874)
(-4.75397e-14 -0.0986358 8.59519)
(-2.21901e-14 -0.517674 8.94659)
(-8.27652e-16 -0.63192 9.37643)
(-2.89501e-14 -0.537175 9.87292)
(-3.15588e-15 -0.325108 10.2251)
(-3.4362e-14 -0.0199885 10.4261)
(-2.37865e-14 0.350917 10.3525)
(-1.45334e-14 0.847614 9.86203)
(1.47535e-14 1.16847 9.12679)
(-4.13717e-15 1.10733 8.18638)
(3.65982e-16 1.05893 7.36638)
(-2.26987e-15 1.17622 6.57636)
(-2.13113e-14 1.20637 5.59549)
(-1.15576e-14 0.684924 4.70999)
(-8.90687e-17 -0.0889725 4.9282)
(8.0261e-14 0.0561541 5.07323)
(6.68001e-14 0.651476 4.68616)
(1.23789e-13 0.570476 2.17226)
(4.42471e-15 0.599176 -2.74291)
(-6.37567e-14 0.298549 -4.36101)
(-6.53548e-14 -0.37742 -4.9462)
(-6.19164e-14 -0.778238 -4.59717)
(-6.53581e-14 -0.911266 -4.64221)
(-7.44631e-14 -1.19787 -4.36615)
(-7.39662e-14 -1.60158 -3.69466)
(-7.68256e-14 -1.97833 -3.13572)
(-8.96976e-14 -2.08128 -2.73899)
(-1.18943e-13 -1.90356 -2.72296)
(-1.19178e-13 -1.86182 -3.33878)
(-1.20577e-13 -1.95148 -4.34704)
(-1.28265e-13 -1.64686 -5.48487)
(-1.39872e-13 -0.127958 -5.76466)
(-1.36602e-13 1.32284 -5.06716)
(-1.20726e-13 1.87597 -5.89771)
(4.10448e-16 0.387279 10.0221)
(1.09721e-15 0.335004 9.3146)
(8.33406e-15 0.297335 8.71373)
(3.88378e-14 0.257607 8.23844)
(8.8459e-15 0.220511 7.83978)
(-2.50842e-15 0.170062 7.4985)
(3.6766e-14 0.0789256 7.23704)
(1.8096e-14 -0.0233139 7.11476)
(-2.57294e-15 -0.128384 7.19175)
(-1.65437e-15 -0.241241 7.48228)
(1.45852e-14 -0.339411 7.92336)
(-5.648e-15 -0.403634 8.4331)
(4.02391e-15 -0.437175 8.97353)
(6.434e-15 -0.452384 9.54485)
(6.84892e-15 -0.459168 10.1492)
(-8.50938e-15 -0.461544 10.7685)
(1.40403e-14 -0.460032 11.3684)
(2.42813e-14 -0.45455 11.916)
(1.25483e-14 -0.444416 12.3942)
(1.87411e-14 -0.427429 12.8024)
(2.12306e-15 -0.400869 13.1486)
(1.83521e-14 -0.365442 13.4394)
(3.57307e-14 -0.333527 13.6721)
(3.08583e-14 -0.336866 13.8405)
(2.94513e-14 -0.419364 13.9737)
(2.4777e-14 -0.600573 14.1653)
(1.08147e-14 -0.838777 14.5078)
(1.12669e-14 -1.05809 15.024)
(1.96388e-14 -1.20636 15.6853)
(6.51579e-15 -1.27128 16.442)
(1.24268e-14 -1.26422 17.2386)
(8.37869e-15 -1.20155 18.0271)
(5.93169e-15 -1.09638 18.7715)
(3.89638e-15 -0.957186 19.445)
(5.51446e-15 -0.790387 20.0279)
(3.79283e-15 -0.597409 20.5035)
(-2.67412e-15 -0.385449 20.8569)
(1.09807e-15 -0.162099 21.0789)
(3.04875e-15 0.0615338 21.1627)
(3.59429e-15 0.266064 21.1129)
(1.74533e-15 0.448109 20.9495)
(1.59044e-14 0.607715 20.6708)
(6.37722e-15 0.721041 20.3004)
(2.05713e-14 0.766312 19.8636)
(1.60216e-14 0.746034 19.4221)
(1.59799e-14 0.67439 19.0256)
(1.74228e-14 0.581312 18.7055)
(2.40279e-14 0.503108 18.4578)
(2.92627e-14 0.449269 18.2464)
(2.00801e-14 0.419392 18.0422)
(-7.03425e-15 0.41713 17.833)
(-1.13967e-14 0.443805 17.583)
(-1.78513e-14 0.506197 17.2712)
(-1.16502e-14 0.608445 16.8677)
(-1.24855e-14 0.748265 16.356)
(-9.27897e-15 0.911332 15.7224)
(-3.02917e-15 1.08112 14.9723)
(1.4921e-14 1.2478 14.1259)
(-1.5148e-14 1.40535 13.2067)
(7.29983e-15 1.5297 12.2419)
(7.14245e-15 1.59599 11.274)
(6.05689e-15 1.60144 10.3483)
(4.5496e-15 1.54566 9.48938)
(1.29381e-14 1.39432 8.71134)
(2.93497e-15 1.07956 8.04851)
(4.22296e-14 0.528393 7.63648)
(-1.56158e-14 -0.218614 7.69868)
(-3.19901e-14 -0.69708 8.15121)
(2.71396e-14 -0.784667 8.71041)
(-7.96276e-15 -0.671515 9.28078)
(1.68702e-14 -0.417525 9.71229)
(-3.87237e-14 -0.0477184 10.0101)
(-8.42043e-15 0.455664 10.0053)
(-2.82156e-15 1.08766 9.41942)
(-1.7198e-15 1.43918 8.59441)
(1.01801e-14 1.34778 7.52206)
(1.09626e-14 1.29936 6.64003)
(7.21486e-15 1.44607 5.7568)
(-8.75751e-15 1.50653 4.52844)
(-7.88296e-15 0.957669 2.62003)
(2.40097e-14 0.454565 -0.412327)
(6.10831e-14 0.630226 -2.75325)
(7.33229e-14 1.33424 -2.52247)
(6.56383e-14 1.77379 -3.34445)
(-4.22352e-15 1.5572 -5.27578)
(-6.64774e-14 0.802801 -5.47262)
(-5.90416e-14 -0.163783 -5.48977)
(-6.89637e-14 -0.699515 -5.39458)
(-5.3963e-14 -0.841646 -5.35448)
(-6.23071e-14 -1.2233 -5.42998)
(-6.41902e-14 -1.693 -5.28514)
(-7.4351e-14 -2.05664 -5.13948)
(-8.46216e-14 -2.11214 -4.99075)
(-1.05872e-13 -1.8213 -4.85906)
(-1.14387e-13 -1.62602 -5.17894)
(-1.08539e-13 -1.69097 -6.33441)
(-1.02919e-13 -1.58555 -8.08003)
(-1.01509e-13 -0.564902 -9.48051)
(-1.00506e-13 0.938083 -9.85787)
(-9.37843e-14 1.69135 -10.0201)
(5.09617e-15 0.447191 9.84641)
(-1.56155e-14 0.387014 9.12333)
(7.48423e-15 0.34288 8.51274)
(3.65164e-16 0.296659 8.0307)
(1.74614e-14 0.25439 7.62716)
(2.42457e-14 0.198192 7.28043)
(2.30727e-14 0.0937666 7.00768)
(-4.18953e-15 -0.0269588 6.87979)
(9.53208e-15 -0.154908 6.96751)
(-5.5374e-15 -0.290006 7.29338)
(-3.60698e-15 -0.402844 7.79439)
(1.50788e-16 -0.474853 8.38294)
(2.9928e-15 -0.513715 9.01029)
(4.88526e-15 -0.533433 9.65498)
(5.75036e-15 -0.542521 10.2914)
(2.08185e-14 -0.54324 10.8841)
(1.49829e-14 -0.536267 11.4028)
(1.94683e-14 -0.523558 11.8378)
(1.95014e-14 -0.50662 12.1996)
(1.46931e-14 -0.484194 12.5081)
(1.21241e-14 -0.453011 12.7794)
(1.00947e-14 -0.411975 13.016)
(2.20889e-14 -0.37219 13.2051)
(3.38271e-14 -0.369071 13.337)
(2.45901e-14 -0.455507 13.4412)
(1.95866e-14 -0.656 13.5833)
(1.11279e-14 -0.923451 13.829)
(2.19656e-14 -1.17399 14.2359)
(6.97024e-15 -1.3495 14.8207)
(3.19059e-15 -1.43291 15.5336)
(9.08413e-15 -1.43398 16.2961)
(9.94459e-15 -1.37051 17.046)
(1.07174e-14 -1.25793 17.7471)
(1.02549e-14 -1.10632 18.3796)
(1.13153e-14 -0.923305 18.9334)
(1.49461e-14 -0.709831 19.3989)
(1.51223e-15 -0.474151 19.7632)
(3.86176e-16 -0.223777 20.0135)
(4.31244e-15 0.0293745 20.1331)
(7.32546e-15 0.261615 20.1171)
(-2.72189e-16 0.472769 19.9845)
(1.02557e-14 0.658785 19.7184)
(2.18478e-14 0.789614 19.3557)
(3.22145e-14 0.843281 18.9181)
(2.4864e-14 0.820138 18.4738)
(2.0854e-14 0.734028 18.0807)
(1.84739e-14 0.621617 17.7843)
(1.74395e-14 0.530704 17.5881)
(2.47057e-14 0.473844 17.4467)
(1.09405e-14 0.447261 17.3141)
(-4.80446e-15 0.456713 17.1715)
(-5.22446e-15 0.501651 16.971)
(-1.8154e-14 0.58478 16.6904)
(-5.50209e-15 0.714865 16.3024)
(-1.91494e-15 0.890862 15.7866)
(-1.03492e-15 1.08988 15.1307)
(7.46778e-15 1.29171 14.3436)
(8.59334e-15 1.48608 13.4472)
(-6.9445e-15 1.66565 12.4637)
(1.29035e-14 1.79882 11.4215)
(1.79202e-15 1.85721 10.3745)
(1.09013e-15 1.84444 9.38157)
(-8.56926e-16 1.76703 8.4723)
(-3.52504e-15 1.58789 7.65618)
(-7.28881e-16 1.21737 6.96528)
(-1.34655e-15 0.555426 6.5427)
(-1.97761e-14 -0.398724 6.7569)
(-2.00549e-14 -0.93693 7.2887)
(-1.49685e-14 -0.992313 8.02812)
(-2.15419e-14 -0.861475 8.66569)
(-6.2235e-15 -0.555245 9.1684)
(-3.02633e-14 -0.113551 9.54221)
(-2.74705e-14 0.560068 9.55582)
(-2.36179e-14 1.37383 8.75629)
(-9.94431e-15 1.76752 7.78552)
(-3.80737e-14 1.64064 6.58708)
(-1.58177e-14 1.63775 5.67775)
(1.39592e-14 1.93098 4.68591)
(3.17645e-15 2.2423 2.99411)
(1.7133e-15 2.05559 0.401684)
(4.11065e-14 1.47201 -2.44312)
(6.13894e-14 0.855316 -4.41369)
(5.63337e-14 1.09263 -5.14496)
(6.80453e-15 1.81218 -5.5328)
(-4.27261e-14 1.72132 -5.88846)
(-6.01034e-14 0.806854 -6.03049)
(-5.07831e-14 -0.197129 -6.65462)
(-5.18221e-14 -0.757409 -7.40351)
(-5.49311e-14 -0.959214 -7.45346)
(-6.48313e-14 -1.30989 -7.73819)
(-6.50847e-14 -1.8014 -8.03337)
(-7.66057e-14 -2.17723 -8.30956)
(-8.85825e-14 -2.24624 -8.53018)
(-9.20011e-14 -1.90726 -8.57472)
(-9.7034e-14 -1.45646 -8.70568)
(-9.74555e-14 -1.1614 -9.46361)
(-9.59576e-14 -0.848186 -10.6961)
(-9.58029e-14 -0.0996708 -11.7982)
(-9.38605e-14 0.937301 -12.0789)
(-9.25228e-14 1.63147 -12.0042)
(9.44104e-15 0.508415 9.65508)
(-2.26174e-14 0.440255 8.9177)
(1.62332e-14 0.388627 8.30013)
(2.34799e-14 0.335072 7.81444)
(-2.64357e-15 0.287345 7.40874)
(7.89774e-15 0.225902 7.06127)
(4.68131e-14 0.108367 6.7784)
(8.99168e-15 -0.0317348 6.63642)
(-4.13979e-15 -0.185632 6.74889)
(9.94471e-15 -0.346651 7.16231)
(-7.85253e-15 -0.475841 7.77435)
(-4.39465e-15 -0.555027 8.45531)
(-6.3172e-16 -0.596411 9.13323)
(2.76696e-16 -0.6156 9.77068)
(5.67897e-15 -0.620842 10.3368)
(9.10916e-15 -0.614903 10.8098)
(1.04073e-14 -0.600465 11.1883)
(6.54983e-15 -0.581784 11.4917)
(1.19995e-14 -0.561437 11.7502)
(2.42522e-14 -0.5375 11.9904)
(7.44923e-15 -0.504753 12.2245)
(1.23079e-14 -0.459654 12.4452)
(1.57798e-14 -0.412763 12.6328)
(1.07902e-15 -0.403198 12.7756)
(3.41402e-14 -0.489217 12.876)
(2.30372e-14 -0.700013 12.9499)
(1.42949e-14 -0.992309 13.0942)
(-5.77914e-15 -1.27905 13.454)
(3.83614e-15 -1.48823 14.0508)
(4.66581e-15 -1.59112 14.7778)
(3.36995e-15 -1.59726 15.5235)
(1.52427e-14 -1.52989 16.2287)
(8.46733e-15 -1.40899 16.875)
(1.27312e-14 -1.24677 17.4594)
(1.82888e-14 -1.05154 17.9843)
(2.61955e-14 -0.822305 18.4441)
(2.3338e-14 -0.567081 18.8214)
(2.0556e-14 -0.291735 19.0928)
(1.87754e-14 -0.00884795 19.2277)
(1.72677e-14 0.25206 19.2154)
(1.6922e-14 0.495623 19.0749)
(1.31489e-14 0.710243 18.7774)
(9.59184e-15 0.858206 18.3784)
(2.82694e-14 0.91984 17.8978)
(2.34532e-14 0.89187 17.41)
(2.0604e-14 0.785784 16.9811)
(1.85412e-14 0.644992 16.6758)
(1.75726e-14 0.532864 16.5155)
(1.67527e-14 0.468775 16.4511)
(1.483e-14 0.445735 16.4158)
(1.2883e-14 0.471653 16.3711)
(1.04652e-14 0.540866 16.251)
(1.0312e-14 0.648977 16.0299)
(1.10193e-14 0.812703 15.6834)
(1.17451e-14 1.03211 15.1852)
(9.46386e-15 1.27205 14.5255)
(5.97998e-15 1.5099 13.7184)
(9.55644e-15 1.73698 12.7872)
(-1.56796e-14 1.94417 11.7499)
(-1.0288e-14 2.08911 10.6335)
(-6.6309e-15 2.13853 9.50269)
(2.75453e-15 2.1038 8.43128)
(-3.85625e-15 2.00046 7.45479)
(-4.35052e-15 1.79064 6.57828)
(-1.59074e-14 1.35732 5.83533)
(7.3812e-16 0.554348 5.38013)
(-7.26746e-14 -0.663102 5.80346)
(-2.59931e-14 -1.20771 6.36778)
(-3.61653e-14 -1.23585 7.24809)
(-4.48309e-14 -1.097 7.86102)
(-2.05473e-14 -0.717333 8.33424)
(-3.37395e-14 -0.196269 8.70106)
(-2.14215e-14 0.716336 8.75421)
(-3.74548e-14 1.62143 7.66852)
(-7.02758e-14 2.02739 6.51481)
(-1.95886e-14 1.90559 5.29635)
(2.45416e-14 1.87971 4.72796)
(-3.90609e-15 2.2902 4.05578)
(1.95387e-14 3.00114 2.34991)
(1.05193e-14 3.12295 -0.423802)
(1.45171e-14 2.44169 -3.18487)
(3.33076e-14 1.41686 -5.14465)
(8.88865e-15 1.24701 -6.09311)
(-2.42115e-14 1.7214 -6.25855)
(-7.07867e-14 1.68623 -6.25398)
(-6.44087e-14 1.01899 -6.72122)
(-5.38153e-14 0.192621 -7.7836)
(-5.32354e-14 -0.496458 -9.00815)
(-5.2513e-14 -0.885601 -9.56975)
(-5.36525e-14 -1.22576 -9.95467)
(-5.64111e-14 -1.69273 -10.5049)
(-6.64603e-14 -2.08165 -11.1282)
(-7.60871e-14 -2.19147 -11.759)
(-7.95962e-14 -1.91715 -12.2195)
(-8.84432e-14 -1.46165 -12.5075)
(-9.13673e-14 -1.07454 -12.9907)
(-9.17932e-14 -0.648652 -13.7322)
(-9.52168e-14 0.0909191 -14.5627)
(-9.36138e-14 0.958696 -14.8456)
(-9.17813e-14 1.53109 -14.8953)
(-5.94073e-15 0.563999 9.45086)
(-4.9357e-15 0.48976 8.70104)
(-1.42036e-15 0.432549 8.07815)
(-2.25935e-15 0.372389 7.59033)
(1.35794e-14 0.31949 7.18409)
(1.42747e-14 0.253864 6.8388)
(-6.38853e-15 0.123742 6.53705)
(1.10739e-14 -0.0386505 6.37935)
(-1.17643e-14 -0.225277 6.56769)
(-5.58502e-15 -0.415887 7.12542)
(1.31247e-14 -0.558809 7.84962)
(9.75023e-15 -0.639542 8.56778)
(1.27726e-15 -0.677129 9.20689)
(1.84176e-14 -0.689893 9.73936)
(6.72444e-15 -0.687283 10.155)
(1.20196e-14 -0.673775 10.4627)
(1.22685e-14 -0.654055 10.6905)
(5.77873e-15 -0.633633 10.8766)
(1.724e-14 -0.614816 11.0576)