/*--------------------------------*- C++ -*----------------------------------*\
| =========                 |                                                 |
| \\      /  F ield         | OpenFOAM: The Open Source CFD Toolbox           |
|  \\    /   O peration     | Version:  4.1                                   |
|   \\  /    A nd           | Web:      www.OpenFOAM.org                      |
|    \\/     M anipulation  |                                                 |
\*---------------------------------------------------------------------------*/
FoamFile
{
    version     2.0;
    format      ascii;
    class       volScalarField;
    location    "1900";
    object      p;
}
// * * * * * * * * * * * * * * * * * * * * * * * * * * * * * * * * * * * * * //

dimensions      [0 2 -2 0 0 0 0];

internalField   nonuniform List<scalar> 
26785
(
10023.7
10020
9994.45
9954.24
9893.45
9825.11
9734.4
9559.76
9296.86
8983.15
8635.38
8271.51
7910.24
7565.46
7247.34
6963.45
6718.49
6513.43
6345.75
6211.16
6105.28
6025.07
5969.65
5940.48
5943.3
5986.94
6084.57
6250.68
6496.75
6811.92
7142.27
7427.7
7634.03
7799.03
7982.47
8128.61
8200.05
8272.02
8360.5
8465.4
8583.65
8715.06
8857.83
9010.42
9171
9337.55
9507.9
9679.73
9850.66
10018.2
10180.1
10333.8
10477.2
10608.1
10724.6
10824.8
10907.3
10970.6
11013.6
11035.4
11035.4
11013.1
10968.2
10900.7
10810.7
10698.6
10564.7
10409.8
10234.5
10039.7
9826.28
9595.34
9347.89
9085.04
8807.93
8517.73
8215.61
7902.77
7580.38
7249.6
6911.57
6567.4
6218.18
5864.93
5508.64
5150.22
4790.48
4430.12
4069.75
3709.83
3350.85
2993.55
2639.24
2289.35
1944.06
1602.29
1266.58
938.38
620.312
245.369
10023.9
10020.1
9994.59
9954.44
9893.62
9825.52
9735.27
9560.64
9297.37
8983.34
8635.24
8271.14
7909.72
7564.82
7246.63
6962.72
6717.78
6512.79
6345.2
6210.68
6104.83
6024.6
5969.06
5939.62
5942.02
5985.06
6081.78
6246.56
6491.52
6806.82
7138.88
7426.88
7633.83
7796.02
7974.86
8121.66
8196.92
8271.35
8359.72
8464.71
8582.95
8714.41
8857.24
9009.91
9170.59
9337.26
9507.74
9679.73
9850.81
10018.6
10180.6
10334.5
10478.1
10609.2
10725.8
10826.2
10908.8
10972.2
11015.4
11037.3
11037.4
11015.2
10970.4
10902.9
10813
10700.8
10567
10412.1
10236.8
10041.9
9828.52
9597.54
9350.04
9087.13
8809.96
8519.69
8217.5
7904.58
7582.1
7251.24
6913.12
6568.87
6219.57
5866.23
5509.86
5151.35
4791.53
4431.09
4070.63
3710.64
3351.58
2994.2
2639.78
2289.79
1944.39
1602.52
1266.63
938.232
620.166
245.183
10024.1
10020.4
9994.85
9954.83
9893.95
9826.33
9736.92
9562.33
9298.39
8983.67
8634.79
8270.14
7908.39
7563.3
7244.98
6961.02
6716.14
6511.31
6343.91
6209.56
6103.82
6023.55
5967.77
5937.77
5939.16
5980.61
6074.86
6236.11
6478.11
6793.5
7129.67
7424.18
7632.7
7790.58
7965.45
8113.1
8191.15
8269.09
8357.97
8463.21
8581.53
8713.08
8856.05
9008.87
9169.75
9336.66
9507.42
9679.7
9851.11
10019.2
10181.6
10335.9
10479.8
10611.2
10728.2
10828.9
10911.8
10975.5
11018.9
11041.1
11041.4
11019.4
10974.7
10907.4
10817.5
10705.5
10571.7
10416.7
10241.4
10046.5
9833.08
9602.01
9354.41
9091.39
8814.09
8523.68
8221.35
7908.27
7585.63
7254.6
6916.32
6571.9
6222.42
5868.91
5512.37
5153.69
4793.7
4433.09
4072.47
3712.31
3353.1
2995.54
2640.94
2290.74
1945.14
1603.07
1266.84
938.104
620.025
245.008
10024.4
10020.9
9995.27
9955.42
9894.44
9827.53
9739.28
9564.8
9299.86
8983.87
8633.66
8268.16
7905.96
7560.63
7242.22
6958.29
6713.58
6509.05
6341.99
6207.93
6102.36
6022.04
5965.95
5935.18
5935.18
5974.45
6065.27
6221.3
6458.21
6772.23
7113.48
7418.29
7630.03
7782.01
7953.32
8103.67
8183.46
8265.22
8355.07
8460.79
8579.36
8711.07
8854.24
9007.31
9168.49
9335.77
9506.94
9679.68
9851.58
10020.2
10183.1
10338
10482.4
10614.4
10731.8
10833
10916.4
10980.5
11024.3
11046.9
11047.5
11025.7
10981.3
10914.2
10824.4
10712.5
10578.7
10423.8
10248.5
10053.5
9839.98
9608.79
9361.04
9097.85
8820.35
8529.73
8227.17
7913.85
7590.97
7259.68
6921.13
6576.44
6226.7
5872.92
5516.11
5157.17
4796.91
4436.05
4075.17
3714.76
3355.3
2997.49
2642.6
2292.08
1946.19
1603.81
1267.12
937.938
619.843
244.727
10024.7
10021.6
9995.81
9956.19
9895.08
9829.1
9742.24
9567.99
9301.53
8983.52
8631.47
8264.97
7902.44
7557.04
7238.66
6954.86
6710.41
6506.26
6339.63
6205.93
6100.55
6020.18
5963.67
5931.96
5930.27
5966.92
6053.67
6203.46
6433.84
6744.83
7090.56
7408.53
7625.31
7768.82
7935.03
8090.25
8173.5
8259.77
8351.09
8457.42
8576.39
8708.35
8851.81
9005.21
9166.81
9334.57
9506.29
9679.65
9852.21
10021.5
10185.2
10340.8
10486
10618.6
10736.8
10838.6
10922.6
10987.3
11031.7
11054.7
11055.8
11034.3
10990.2
10923.3
10833.8
10722
10588.3
10433.4
10258
10063
9849.36
9618.01
9370.06
9106.63
8828.87
8537.96
8235.09
7921.45
7598.22
7266.58
6927.68
6582.63
6232.51
5878.38
5521.2
5161.9
4801.28
4440.07
4078.84
3718.09
3358.28
3000.12
2644.85
2293.94
1947.65
1604.87
1267.58
937.86
619.716
244.564
10025.2
10022.4
9996.48
9957.13
9895.84
9830.99
9745.65
9571.78
9303.01
8982.22
8628.1
8260.81
7898.18
7552.87
7234.58
6950.91
6706.74
6503.03
6336.89
6203.6
6098.45
6018
5961.02
5928.21
5924.57
5958.2
6040.28
6183.08
6406.11
6712.82
7061.8
7394.22
7618.12
7751.41
7911.96
8071.33
8160.52
8252.42
8345.96
8453.09
8572.62
8704.92
8848.73
9002.58
9164.7
9333.07
9505.49
9679.63
9853.04
10023.3
10187.8
10344.3
10490.5
10624
10743.1
10845.8
10930.5
10996
11041
11064.7
11066.3
11045.3
11001.6
10935
10845.8
10734.1
10600.6
10445.7
10270.3
10075.2
9861.32
9629.75
9381.54
9117.8
8839.7
8548.42
8245.15
7931.08
7607.41
7275.32
6935.95
6590.43
6239.84
5885.23
5527.58
5167.81
4806.73
4445.06
4083.38
3722.19
3361.95
3003.34
2647.59
2296.17
1949.4
1606.1
1268.12
937.781
619.514
244.253
10026
10023.3
9997.28
9958.26
9896.73
9833.22
9749.46
9575.92
9303.87
8979.85
8623.79
8256.02
7893.52
7548.35
7230.13
6946.56
6702.68
6499.44
6333.84
6201.02
6096.13
6015.58
5958.06
5924.02
5918.2
5948.48
6025.32
6160.47
6375.55
6677.02
7027.72
7374
7607.46
7732.6
7888.47
8047.76
8144.63
8242.96
8339.58
8447.74
8567.98
8700.74
8845
8999.38
9162.14
9331.27
9504.55
9679.65
9854.1
10025.4
10191.1
10348.8
10496
10630.7
10750.8
10854.6
10940.3
11006.6
11052.5
11076.9
11079.2
11058.8
11015.6
10949.4
10860.5
10749
10615.6
10460.8
10285.3
10090.1
9876
9644.16
9395.62
9131.51
8852.98
8561.24
8257.47
7942.88
7618.66
7286
6946.06
6599.95
6248.78
5893.59
5535.35
5175
4813.35
4451.11
4088.88
3727.15
3366.37
3007.22
2650.89
2298.87
1951.51
1607.6
1268.85
937.811
619.34
244.02
10026.9
10024.3
9998.18
9959.54
9897.69
9835.79
9753.72
9579.97
9303.88
8976.53
8618.85
8250.94
7888.68
7543.63
7225.41
6941.9
6698.3
6495.56
6330.56
6198.24
6093.62
6012.97
5954.87
5919.52
5911.36
5938.02
6009.14
6135.96
6342.61
6637.94
6988.23
7345.88
7591.05
7714.02
7866.56
8022.3
8127.74
8232.34
8332.31
8441.49
8562.48
8695.79
8840.59
8995.62
9159.14
9329.16
9503.48
9679.73
9855.43
10028.1
10195.1
10354.1
10502.8
10638.8
10760.2
10865.1
10952
11019.4
11066.2
11091.6
11094.6
11075
11032.3
10966.7
10878.1
10766.9
10633.6
10478.7
10303.2
10107.8
9893.51
9661.34
9412.4
9147.83
8868.79
8576.48
8272.11
7956.89
7632.01
7298.67
6958.03
6611.22
6259.34
5903.44
5544.51
5183.46
4821.12
4458.21
4095.31
3732.93
3371.51
3011.7
2654.7
2301.97
1953.92
1609.31
1269.7
937.891
619.134
243.678
10027.8
10025.6
9999.23
9961
9898.72
9838.71
9758.52
9583.4
9302.97
8972.48
8613.62
8245.81
7883.8
7538.79
7220.51
6937
6693.66
6491.47
6327.1
6195.34
6091.02
6010.26
5951.54
5914.8
5904.19
5927.07
5992.03
6109.96
6307.69
6596.11
6943.34
7308.01
7566.35
7693.86
7845.01
7997.71
8111.81
8221.53
8324.57
8434.58
8556.2
8690.09
8835.48
8991.26
9155.67
9326.75
9502.29
9679.89
9857.07
10031.3
10199.9
10360.5
10510.7
10648.3
10771.2
10877.5
10965.7
11034.4
11082.4
11108.8
11112.8
11093.9
11052
10986.8
10898.7
10787.7
10654.6
10499.8
10324.2
10128.6
9913.96
9681.4
9431.98
9166.87
8887.22
8594.25
8289.18
7973.2
7647.55
7313.41
6971.95
6624.32
6271.61
5914.88
5555.12
5193.26
4830.11
4466.41
4102.74
3739.59
3377.42
3016.86
2659.06
2305.53
1956.69
1611.29
1270.76
938.096
618.977
243.388
10028.9
10026.9
10000.4
9962.63
9899.76
9841.92
9763.87
9585.81
9301.22
8967.97
8608.34
8240.75
7878.95
7533.9
7215.45
6931.9
6688.82
6487.21
6323.54
6192.38
6088.37
6007.5
5948.14
5909.99
5896.88
5915.88
5974.35
6082.85
6271.21
6552.14
6893.81
7259.88
7531.67
7668.82
7823.01
7974.63
8096.98
8210.27
8316
8426.86
8549.03
8683.55
8829.63
8986.26
9151.72
9324.03
9500.98
9680.17
9859.05
10035
10205.5
10368
10520
10659.3
10783.9
10891.9
10981.7
11051.8
11101.2
11128.7
11133.7
11115.8
11074.6
11010.1
10922.4
10811.8
10678.7
10524
10348.2
10152.4
9937.44
9704.43
9454.46
9188.71
8908.36
8614.63
8308.73
7991.89
7665.34
7330.27
6987.87
6639.28
6285.61
5927.92
5567.21
5204.4
4840.33
4475.71
4111.14
3747.12
3384.08
3022.64
2663.95
2309.49
1959.76
1613.47
1271.93
938.306
618.669
242.971
10030.2
10028.3
10001.6
9964.41
9900.79
9845.37
9769.59
9586.98
9298.75
8963.23
8603.17
8235.86
7874.18
7528.97
7210.29
6926.65
6683.84
6482.85
6319.93
6189.41
6085.74
6004.76
5944.75
5905.16
5889.56
5904.68
5956.39
6055.05
6233.59
6506.64
6840.99
7203.18
7486.08
7636.75
7799.96
7952.15
8081.87
8197.48
8305.82
8417.81
8540.71
8676
8822.91
8980.56
9147.22
9320.97
9499.57
9680.58
9861.42
10039.5
10212
10376.6
10530.7
10672
10798.6
10908.4
11000
11071.7
11122.5
11151.4
11157.6
11140.7
11100.4
11036.5
10949.3
10839
10706.2
10551.5
10375.6
10179.4
9964.08
9730.54
9479.95
9213.48
8932.32
8637.71
8330.88
8013.05
7685.47
7349.34
7005.86
6656.18
6301.42
5942.63
5580.83
5216.94
4851.8
4486.13
4120.54
3755.52
3391.49
3029.06
2669.35
2313.87
1963.11
1615.84
1273.22
938.5
618.108
242.466
10031.7
10029.9
10003
9966.37
9901.79
9849.06
9775.28
9586.86
9295.72
8958.45
8598.21
8231.16
7869.49
7524.04
7205.06
6921.28
6678.75
6478.43
6316.31
6186.47
6083.17
6002.08
5941.41
5900.42
5882.38
5893.66
5938.43
6026.98
6195.26
6460.18
6786.28
7140.98
7430.2
7597.61
7773.48
7929.68
8065.5
8182.26
8293.21
8406.88
8530.89
8667.23
8815.2
8974.04
9142.13
9317.54
9498.03
9681.13
9864.19
10044.5
10219.5
10386.4
10542.8
10686.4
10815.1
10927.1
11020.5
11094.1
11146.6
11176.9
11184.5
11168.7
11129.3
11066.2
10979.6
10869.7
10737.1
10582.3
10406.3
10209.8
9994.02
9759.88
9508.58
9241.28
8959.22
8663.61
8355.72
8036.77
7708.02
7370.69
7025.99
6675.07
6319.05
5959.02
5595.98
5230.87
4864.54
4497.69
4130.95
3764.8
3399.66
3036.12
2675.28
2318.66
1966.78
1618.42
1274.67
938.71
617.32
241.833
10033.4
10031.6
10004.6
9968.5
9902.73
9853.11
9780.59
9585.55
9292.29
8953.77
8593.53
8226.68
7864.92
7519.13
7199.77
6915.82
6673.59
6473.97
6312.72
6183.6
6080.68
5999.49
5938.17
5895.81
5875.43
5882.99
5920.69
5999.01
6156.63
6413.27
6730.78
7076.19
7366.98
7551.87
7741.79
7906.49
8047.46
8164.48
8277.82
8393.7
8519.3
8657.03
8806.32
8966.62
9136.38
9313.7
9496.35
9681.81
9867.38
10050.3
10227.9
10397.4
10556.4
10702.6
10833.7
10947.9
11043.6
11119.1
11173.4
11205.5
11214.5
11200
11161.6
11099.4
11013.4
10903.9
10771.5
10616.7
10440.5
10243.7
10027.4
9792.59
9540.48
9272.26
8989.16
8692.43
8383.33
8063.13
7733.06
7394.38
7048.29
6695.98
6338.57
5977.15
5612.73
5246.26
4878.59
4510.45
4142.43
3775.04
3408.68
3043.91
2681.84
2323.96
1970.87
1621.34
1276.4
939.12
616.597
241.221
10035.3
10033.4
10006.2
9970.84
9903.61
9857.59
9785.47
9583.3
9288.59
8949.28
8589.16
8222.43
7860.48
7514.27
7194.46
6910.31
6668.37
6469.51
6309.18
6180.83
6078.31
5997.03
5935.05
5891.34
5868.77
5872.71
5903.31
5971.45
6118.06
6366.33
6675.27
7010.79
7299.64
7499.73
7705.03
7881.82
8027.11
8143.72
8259.45
8378.04
8505.72
8645.2
8796.14
8958.17
9129.88
9309.41
9494.5
9682.6
9870.97
10056.8
10237.2
10409.7
10571.5
10720.4
10854.3
10971
11069
11146.8
11203.2
11237.1
11247.7
11234.6
11197.5
11136.1
11050.8
10941.8
10809.6
10654.9
10478.5
10281.3
10064.3
9828.75
9575.73
9306.46
9022.2
8724.21
8413.77
8092.15
7760.61
7420.43
7072.81
6718.95
6359.99
5997.04
5631.1
5263.15
4894.02
4524.45
4155.05
3786.3
3418.61
3052.52
2689.11
2329.89
1975.5
1624.73
1278.51
939.888
616.194
240.7
10037.2
10035.3
10008
9973.36
9904.44
9862.44
9789.81
9580.35
9284.77
8945.05
8585.11
8218.42
7856.2
7509.48
7189.16
6904.77
6663.13
6465.08
6305.71
6178.17
6076.07
5994.71
5932.08
5887.06
5862.39
5862.83
5886.37
5944.53
6079.87
6319.67
6620.26
6945.93
7230.47
7441.95
7663.19
7854.45
8003.82
8119.65
8237.96
8359.76
8489.95
8631.58
8784.5
8948.58
9122.55
9304.59
9492.43
9683.48
9874.93
10063.9
10247.6
10423.2
10588.2
10740.1
10876.9
10996.5
11097.1
11177.4
11236
11271.9
11284.4
11272.8
11236.9
11176.7
11092.1
10983.6
10851.6
10696.8
10520.2
10322.5
10104.8
9868.39
9614.32
9343.88
9058.31
8758.92
8446.99
8123.8
7790.65
7448.81
7099.51
6743.97
6383.34
6018.71
5651.14
5281.57
4910.87
4539.77
4168.87
3798.66
3429.53
3062.02
2697.18
2336.54
1980.76
1628.66
1281.11
941.11
616.248
240.34
10039.3
10037.3
10009.9
9976.01
9905.27
9867.56
9793.39
9576.93
9280.94
8941.14
8581.42
8214.68
7852.09
7504.8
7183.91
6899.23
6657.9
6460.7
6302.35
6175.65
6073.99
5992.55
5929.25
5882.98
5856.22
5853.24
5869.84
5918.36
6042.29
6273.56
6566.04
6882.21
7160.77
7379.71
7616.18
7823.15
7976.9
8092.06
8213.28
8338.73
8471.85
8616.01
8771.28
8937.75
9114.31
9299.17
9490.09
9684.39
9879.23
10071.7
10258.9
10438
10606.4
10761.7
10901.7
11024.3
11127.9
11210.9
11272
11310.1
11324.5
11314.7
11280.2
11221
11137.2
11029.2
10897.4
10742.6
10565.5
10367.3
10148.8
9911.4
9656.18
9384.42
9097.42
8796.49
8482.92
8158.03
7823.13
7479.5
7128.39
6771.04
6408.6
6042.2
5672.87
5301.58
4929.19
4556.44
4183.94
3812.16
3441.49
3072.46
2706.11
2343.95
1986.7
1633.19
1284.22
942.799
616.747
240.13
10041.8
10039.5
10012
9978.75
9906.16
9872.92
9796.18
9573.26
9277.22
8937.58
8578.09
8211.23
7848.2
7500.27
7178.75
6893.72
6652.71
6456.41
6299.14
6173.31
6072.09
5990.56
5926.6
5879.07
5850.21
5843.79
5853.65
5892.95
6005.47
6228.16
6512.79
6819.87
7091.2
7314.03
7564
7786.93
7945.63
8060.77
8185.33
8314.86
8451.29
8598.36
8756.35
8925.57
9105.07
9293.09
9487.4
9685.28
9883.84
10080.1
10271.1
10454
10626.2
10785.2
10928.7
11054.7
11161.5
11247.4
11311.2
11351.8
11368.3
11360.2
11327.1
11269.1
11186.1
11078.5
10946.9
10791.9
10614.5
10415.5
10196.2
9957.67
9701.17
9427.98
9139.42
8836.81
8521.49
8194.78
7858
7512.46
7159.43
6800.15
6435.79
6067.49
5696.3
5323.18
4948.99
4574.49
4200.27
3826.82
3454.51
3083.87
2715.9
2352.14
1993.33
1638.32
1287.83
944.934
617.627
240.053
10044.4
10041.7
10014.2
9981.58
9907.26
9878.54
9798.38
9569.53
9273.69
8934.43
8575.16
8208.11
7844.57
7495.93
7173.71
6888.3
6647.6
6452.25
6296.1
6171.18
6070.4
5988.78
5924.12
5875.24
5844.27
5834.29
5837.72
5868.21
5969.46
6183.55
6460.54
6758.97
7022.05
7245.63
7506.8
7744.8
7909.19
8025.7
8154.03
8288.06
8428.15
8578.49
8739.6
8911.93
9094.73
9286.27
9484.31
9686.1
9888.71
10089.1
10284.3
10471.4
10647.6
10810.6
10958
11087.8
11198
11287.1
11353.7
11396.8
11415.5
11409.2
11377.7
11320.8
11238.6
11131.4
10999.9
10844.8
10666.8
10467.1
10246.8
10007.1
9749.17
9474.45
9184.23
8879.84
8562.65
8234
7895.24
7547.68
7192.62
6831.3
6464.93
6094.62
5721.45
5346.38
4970.29
4593.92
4217.88
3842.65
3468.6
3096.24
2726.56
2361.11
2000.64
1644.03
1291.93
947.477
618.821
240.08
10047
10044.1
10016.5
9984.47
9908.8
9884.44
9800.2
9565.94
9270.46
8931.72
8572.66
8205.34
7841.25
7491.84
7168.85
6883
6642.61
6448.26
6293.3
6169.3
6068.96
5987.25
5921.81
5871.42
5838.27
5824.43
5821.95
5843.98
5934.23
6139.74
6409.24
6699.43
6953.4
7175.05
7444.8
7696.17
7867.03
7986.85
8119.34
8258.25
8402.33
8556.3
8720.91
8896.74
9083.2
9278.61
9480.73
9686.79
9893.8
10098.7
10298.4
10490
10670.8
10838.1
10989.7
11123.4
11237.2
11329.6
11399.3
11445
11466
11461.6
11431.6
11375.8
11294.4
11187.7
11056.3
10900.8
10722.3
10521.8
10300.5
10059.5
9800.12
9523.78
9231.81
8925.56
8606.41
8275.73
7934.87
7585.19
7227.99
6864.53
6496.02
6123.6
5748.33
5371.21
4993.1
4614.75
4236.77
3859.65
3483.75
3109.57
2738.09
2370.83
2008.61
1650.31
1296.5
950.403
620.285
240.198
10049.8
10046.6
10019.1
9987.42
9911.03
9890.66
9801.42
9562.61
9267.58
8929.47
8570.61
8202.97
7838.27
7488.04
7164.22
6877.86
6637.8
6444.51
6290.77
6167.73
6067.8
5985.98
5919.61
5867.51
5831.93
5813.91
5806.23
5820.03
5899.67
6096.66
6358.75
6641.13
6885.33
7102.79
7378.37
7641.24
7819.28
7944.34
8081.25
8225.35
8373.75
8531.7
8700.18
8879.9
9070.4
9270.04
9476.6
9687.29
9899.09
10108.9
10313.5
10510
10695.6
10867.6
11023.6
11161.4
11279.1
11375
11447.7
11496.1
11519.5
11517.1
11488.6
11434
11353.4
11247.1
11115.7
10960
10781
10579.6
10357.1
10114.8
9854
9575.99
9282.19
8973.99
8652.79
8319.98
7976.94
7625.03
7265.58
6899.86
6529.1
6154.45
5776.98
5397.68
5017.43
4636.98
4256.95
3877.82
3499.97
3123.86
2750.47
2381.32
2017.24
1657.14
1301.52
953.692
622
240.398
10052.7
10049.1
10021.8
9990.38
9913.98
9897.18
9801.75
9559.59
9265.1
8927.73
8569.04
8201.03
7835.69
7484.58
7159.86
6872.95
6633.22
6441.04
6288.59
6166.52
6066.99
5984.96
5917.35
5863.26
5824.84
5802.59
5790.38
5796.13
5865.64
6054.17
6308.86
6583.86
6817.82
7029.16
7308.12
7580.69
7766.2
7898.35
8039.77
8189.29
8342.32
8504.58
8677.33
8861.32
9056.23
9260.46
9471.83
9687.54
9904.52
10119.6
10329.5
10531.3
10722
10898.9
11059.6
11201.7
11323.3
11422.8
11498.7
11550
11575.7
11575.3
11548.5
11495.1
11415.3
11309.4
11178.1
11022.2
10842.6
10640.5
10416.9
10173.2
9910.86
9631.12
9335.43
9025.2
8701.86
8366.83
8021.5
7667.26
7305.44
6937.35
6564.22
6187.21
5807.41
5425.81
5043.3
4660.63
4278.44
3897.19
3517.26
3139.12
2763.71
2392.56
2026.53
1664.52
1307
957.333
623.956
240.679
10055.9
10051.9
10024.7
9993.36
9917.48
9903.82
9801.39
9556.9
9263.07
8926.53
8567.99
8199.58
7833.55
7481.52
7155.82
6868.3
6628.91
6437.92
6286.81
6165.74
6066.59
5984.07
5914.76
5858.36
5816.7
5790.59
5774.19
5771.99
5831.95
6012.09
6259.31
6527.32
6750.74
6954.28
7234.3
7514.84
7708.24
7849.08
7994.96
8150
8307.97
8474.86
8652.26
8840.88
9040.58
9249.78
9466.35
9687.48
9910.04
10130.8
10346.4
10553.8
10749.9
10931.9
11097.3
11243.9
11369.6
11472.8
11552
11606.2
11634.4
11636.1
11611
11558.9
11480
11374.7
11243.6
11087.5
10907.4
10704.4
10479.8
10234.8
9970.8
9689.27
9391.62
9079.28
8753.71
8416.35
8068.62
7711.92
7347.62
6977.04
6601.41
6221.92
5839.66
5455.64
5070.74
4685.73
4301.24
3917.75
3535.64
3155.35
2777.82
2404.56
2036.47
1672.45
1312.91
961.314
626.142
241.034
10059.2
10054.7
10027.7
9996.34
9921.41
9910.35
9800.81
9554.6
9261.52
8925.89
8567.48
8198.63
7831.91
7478.9
7152.16
6863.96
6624.93
6435.2
6285.51
6165.43
6066.53
5983.17
5911.71
5852.67
5807.57
5777.99
5757.46
5747.36
5798.39
5970.12
6209.7
6471.24
6684.33
6879.13
7157.59
7443.83
7645.95
7796.66
7946.89
8107.41
8270.6
8442.45
8624.86
8818.5
9023.34
9237.9
9460.06
9687.01
9915.56
10142.3
10364
10577.2
10778.9
10966.2
11136.6
11287.8
11417.7
11524.7
11607.3
11664.6
11695.5
11699.5
11676.2
11625.5
11547.7
11443
11312.2
11156
10975.4
10771.6
10545.9
10299.5
10033.9
9750.53
9450.84
9136.31
8808.41
8468.61
8118.36
7759.09
7392.18
7018.97
6640.72
6258.61
5873.76
5487.18
5099.76
4712.28
4325.38
3939.53
3555.11
3172.57
2792.8
2417.32
2047.06
1680.92
1319.26
965.621
628.539
241.458
10062.5
10057.6
10031
9999.3
9925.72
9916.49
9800.36
9552.72
9260.51
8925.85
8567.55
8198.24
7830.8
7476.77
7148.91
6859.97
6621.33
6432.95
6284.76
6165.57
6066.71
5982.09
5908.17
5846.18
5797.71
5764.73
5739.97
5722.03
5764.77
5927.97
6159.64
6414.56
6617.64
6803.36
7078.35
7368.69
7579.89
7741.17
7895.59
8061.45
8230.12
8407.26
8595.03
8794.04
9004.4
9224.69
9452.86
9686.04
9920.96
10154.1
10382
10601.3
10808.8
11001.6
11177.1
11333
11467.3
11578.3
11664.6
11725.1
11758.8
11765.3
11744
11695
11618.3
11514.4
11384
11227.7
11046.7
10842.2
10615.3
10367.5
10100.3
9815.01
9513.2
9196.37
8866.03
8523.68
8170.8
7808.82
7439.18
7063.2
6682.19
6297.33
5909.75
5520.47
5130.4
4740.32
4350.87
3962.54
3575.7
3190.77
2808.65
2430.84
2058.29
1689.92
1326.03
970.235
631.12
241.938
10065.9
10060.7
10034.4
10002.3
9930.34
9922.01
9800.26
9551.33
9260.06
8926.42
8568.22
8198.43
7830.26
7475.16
7146.11
6856.37
6618.14
6431.21
6284.62
6166.06
6067.09
5980.75
5904.12
5839.04
5787.33
5750.68
5721.58
5695.85
5730.89
5885.26
6108.26
6355.19
6548.7
6725.61
6996.25
7290.38
7510.54
7682.51
7841.03
8012.05
8186.44
8369.19
8562.65
8767.39
8983.63
9210.05
9444.62
9684.43
9926.07
10165.9
10400.4
10625.9
10839.4
11037.8
11218.6
11379.5
11518.3
11633.6
11723.7
11787.7
11824.5
11833.6
11814.6
11767.4
11692.1
11589.1
11459
11302.8
11121.5
10916.2
10688.2
10439
10170
9882.79
9578.78
9259.56
8926.67
8581.65
8225.99
7861.19
7488.66
7109.78
6725.86
6338.11
5947.65
5555.54
5162.68
4769.86
4377.74
3986.79
3597.4
3209.97
2825.37
2445.12
2070.16
1699.44
1333.22
975.14
633.857
242.464
10069.4
10063.9
10037.9
10005.2
9935.21
9926.65
9800.62
9550.45
9260.21
8927.62
8569.51
8199.24
7830.34
7474.13
7143.82
6853.2
6615.42
6430.06
6285.18
6166.74
6067.59
5979.17
5899.57
5831.51
5776.49
5735.72
5702.19
5668.68
5696.52
5841.52
6054.49
6291.91
6477.14
6646.19
6911.86
7209.53
7438.19
7620.42
7783.06
7959.1
8139.44
8328.13
8527.62
8738.43
8960.91
9193.85
9435.22
9682.03
9930.72
10177.5
10418.7
10650.7
10870.4
11074.6
11261
11427
11570.7
11690.4
11784.7
11852.4
11892.6
11904.6
11888.1
11842.8
11769
11667
11537.6
11381.5
11199.8
10993.8
10764.7
10514.1
10243.3
9953.98
9647.67
9325.95
8990.4
8642.58
8284.02
7916.24
7540.69
7158.77
6771.79
6380.99
5987.52
5592.42
5196.63
4800.93
4405.99
4012.3
3620.23
3230.16
2842.97
2460.15
2082.67
1709.48
1340.8
980.321
636.73
243.027
10073.1
10067.2
10041.7
10008.1
9940.22
9930.14
9801.44
9550.13
9260.97
8929.46
8571.44
8200.7
7831.06
7473.7
7142.05
6850.48
6613.2
6429.53
6286.52
6167.59
6068.02
5977.37
5894.68
5823.8
5765.07
5719.78
5681.71
5640.43
5661.47
5796.24
5997.77
6224.81
6403.37
6565.71
6825.69
7126.45
7362.83
7554.49
7721.43
7902.5
8089.04
8283.99
8489.8
8707
8936.09
9175.94
9424.52
9678.67
9934.7
10188.7
10436.8
10675.5
10901.5
11111.9
11304
11475.5
11624.4
11748.9
11847.7
11919.4
11963.2
11978.4
11964.5
11921.4
11849.3
11748.5
11619.7
11463.8
11281.8
11075.1
10844.9
10592.7
10320.1
10028.7
9719.98
9395.65
9057.31
8706.56
8344.96
7974.06
7595.34
7210.21
6820.02
6426.03
6029.38
5631.15
5232.28
4833.56
4435.66
4039.09
3644.2
3251.37
2861.46
2475.94
2095.81
1720.04
1348.79
985.773
639.727
243.622
10076.9
10070.6
10045.5
10011
9945.35
9932.22
9802.7
9550.36
9262.37
8931.97
8574.03
8202.83
7832.47
7473.91
7140.84
6848.25
6611.52
6429.69
6288.57
6168.81
6068.25
5975.37
5889.65
5815.94
5752.86
5702.83
5660.11
5610.98
5625.52
5749
5937.62
6154.11
6327.46
6484.21
6737.92
7041.08
7284.13
7484.12
7655.83
7842.14
8035.15
8236.65
8449.09
8673
8909.06
9156.21
9412.36
9674.19
9937.83
10199.2
10454.5
10700.1
10932.8
11149.5
11347.7
11525
11679.4
11809.1
11912.6
11988.7
12036.4
12055
12044
12003.3
11933
11833.5
11705.5
11549.8
11367.6
11160.2
10928.9
10675.2
10400.7
10107
9795.8
9468.75
9127.5
8773.68
8408.9
8034.72
7652.67
7264.18
6870.62
6473.27
6073.29
5671.77
5269.66
4867.77
4466.77
4067.17
3669.32
3273.61
2880.84
2492.49
2109.6
1731.11
1357.18
991.5
642.853
244.25
10080.8
10074.2
10049.5
10013.9
9950.62
9932.79
9804.35
9551.17
9264.42
8935.15
8577.3
8205.66
7834.6
7474.81
7140.22
6846.52
6610.4
6430.6
6291.07
6170.61
6068.29
5973.18
5884.65
5807.85
5739.77
5684.94
5637.33
5580.25
5588.41
5699.49
5873.82
6080.01
6249.42
6401.65
6648.55
6952.97
7201.46
7408.75
7585.92
7777.89
7977.67
8186.02
8405.35
8636.29
8879.68
9134.52
9398.61
9668.42
9939.92
10209
10471.7
10724.5
10964.1
11187.5
11392.1
11575.6
11735.8
11871
11979.6
12060.4
12112.4
12134.6
12126.8
12088.7
12020.4
11922.3
11795.1
11639.8
11457.4
11249.2
11016.8
10761.5
10485
10189
9875.26
9545.37
9201.06
8844.03
8475.91
8098.3
7712.75
7320.74
6923.64
6522.76
6119.28
5714.31
5308.8
4903.58
4499.33
4096.56
3695.63
3296.88
2901.13
2509.83
2124.04
1742.72
1365.99
997.514
646.123
244.915
10084.7
10077.9
10053.7
10016.7
9956.05
9931.82
9806.34
9552.56
9267.12
8939
8581.27
8209.22
7837.48
7476.41
7140.23
6845.32
6609.89
6432.33
6293.62
6172.94
6068.28
5970.92
5879.73
5799.36
5725.78
5666.19
5613.31
5548.18
5549.78
5647.21
5806.62
6002.8
6169.2
6317.89
6557.41
6861.42
7114.12
7327.96
7511.48
7709.68
7916.54
8132.01
8358.48
8596.75
8847.84
9110.75
9383.12
9661.21
9940.8
10217.7
10488.1
10748.4
10995.3
11225.8
11437.2
11627.2
11793.7
11934.8
12048.9
12134.7
12191.1
12217.3
12212.9
12177.5
12111.4
12014.9
11888.7
11733.8
11551.2
11342.4
11108.7
10851.8
10573.3
10275
9958.46
9625.6
9278.11
8917.71
8546.09
8164.88
7775.66
7379.94
6979.13
6574.55
6167.4
5758.81
5349.74
4941.04
4533.39
4127.3
3723.13
3321.22
2922.35
2527.97
2139.15
1754.88
1375.22
1003.83
649.563
245.626
10088.7
10081.6
10057.9
10019.4
9961.54
9929.38
9808.66
9554.54
9270.49
8943.54
8585.95
8213.53
7841.14
7478.76
7140.88
6844.66
6610
6435
6295.87
6175.63
6068.36
5968.74
5874.86
5790.31
5710.91
5646.65
5587.97
5514.69
5509.43
5591.79
5736.25
5922.72
6086.54
6232.66
6464.22
6765.75
7021.62
7241.63
7432.43
7637.45
7851.7
8074.53
8308.38
8554.29
8813.44
9084.8
9365.77
9652.39
9940.35
10225.4
10503.8
10771.9
11026.4
11264.4
11483.1
11680
11853.1
12000.5
12120.4
12211.5
12272.7
12303.2
12302.4
12270
12206.3
12111.5
11986.4
11831.9
11649.3
11439.7
11204.9
10946.3
10665.7
10364.8
10045.5
9709.57
9358.74
8994.81
8619.52
8234.53
7841.47
7441.86
7037.15
6628.69
6217.7
5805.3
5392.51
4980.16
4568.95
4159.4
3751.86
3346.64
2944.52
2546.94
2154.97
1767.62
1384.91
1010.48
653.201
246.391
10093
10085.5
10062.3
10022.1
9966.9
9925.53
9811.27
9557.1
9274.51
8948.77
8591.35
8218.62
7845.61
7481.89
7142.2
6844.56
6610.78
6438.77
6297.61
6178.48
6068.63
5966.74
5869.93
5780.59
5695.23
5626.37
5561.23
5479.7
5467.34
5533.25
5662.79
5839.81
6001.05
6145.6
6368.63
6665.57
6923.8
7149.94
7348.83
7561.2
7783.14
8013.52
8254.96
8508.82
8776.4
9056.55
9346.43
9641.86
9938.45
10232
10518.7
10795
11057.6
11303.4
11529.7
11734.1
11914.2
12068.1
12194.3
12291.1
12357.4
12392.3
12395.4
12366.3
12305.1
12212.2
12088.3
11934.4
11751.6
11541.5
11305.4
11045.1
10762.3
10458.8
10136.6
9797.38
9443.05
9075.42
8696.28
8307.33
7910.23
7506.55
7097.75
6685.22
6270.2
5853.84
5437.15
5020.99
4606.07
4192.9
3781.84
3373.18
2967.68
2566.76
2171.51
1780.95
1395.08
1017.49
657.063
247.218
10097.2
10089.5
10066.7
10024.8
9971.91
9920.43
9814.16
9560.25
9279.2
8954.71
8597.5
8224.51
7850.93
7485.82
7144.22
6845.02
6612.25
6443.78
6299.19
6181.3
6069.18
5964.99
5864.81
5770.17
5678.8
5605.38
5532.99
5442.96
5422.66
5471.67
5586.33
5753.93
5912.25
6056.18
6270.32
6560.84
6820.87
7053.3
7260.87
7480.97
7710.83
7948.93
8198.17
8460.26
8736.63
9025.92
9325
9629.51
9935
10237.4
10532.7
10817.6
11088.7
11342.8
11577.2
11789.3
11976.9
12137.8
12270.5
12373.3
12445.1
12484.9
12492.1
12466.4
12407.9
12317.1
12194.5
12041.3
11858.5
11647.7
11410.4
11148.3
10863.2
10557.1
10231.7
9889.13
9531.14
9159.64
8776.45
8383.35
7982.02
7574.06
7160.99
6744.19
6324.96
5904.45
5483.68
5063.55
4644.76
4227.83
3813.1
3400.87
2991.84
2587.46
2188.8
1794.9
1405.74
1024.87
661.175
248.114
10101.5
10093.6
10071.1
10027.5
9976.49
9914.29
9817.3
9563.97
9284.56
8961.36
8604.4
8231.23
7857.13
7490.6
7146.95
6846.08
6614.45
6449.84
6301.2
6183.94
6070.12
5963.49
5859.36
5759.04
5661.74
5583.69
5503.09
5404.65
5374.68
5407.13
5506.94
5664.89
5819.68
5963.8
6169.05
6451.85
6713.31
6952.25
7168.79
7396.85
7634.77
7880.71
8137.95
8408.58
8694.07
8992.82
9301.38
9615.23
9929.95
10241.4
10545.9
10839.8
11119.8
11382.6
11625.5
11845.8
12041.2
12209.6
12349.2
12458.4
12536
12580.9
12592.5
12570.6
12515.1
12426.4
12305.3
12152.8
11970.1
11758.6
11520
11256
10968.6
10659.7
10331.1
9984.93
9623.09
9247.53
8860.11
8462.65
8056.89
7644.45
7226.9
6805.65
6382.01
5957.17
5532.16
5107.88
4685.06
4264.21
3845.67
3429.71
3017.04
2609.05
2206.86
1809.5
1416.92
1032.65
665.558
249.085
10105.9
10097.7
10075.7
10030.3
9980.57
9907.34
9820.65
9568.27
9290.57
8968.73
8612.09
8238.8
7864.25
7496.27
7150.43
6847.74
6617.41
6456.61
6304.05
6186.43
6071.52
5962.2
5853.51
5747.26
5644.14
5561.28
5471.42
5365.27
5323.44
5339.7
5424.73
5572.52
5722.98
5867.87
6064.7
6339.04
6601.68
6847.3
7072.88
7308.97
7554.99
7808.86
8074.26
8353.71
8648.66
8957.17
9275.48
9598.96
9923.23
10244.2
10558.2
10861.6
11150.8
11422.8
11674.6
11903.6
12107.2
12283.5
12430.4
12546.4
12630.1
12680.5
12696.8
12678.9
12626.5
12540.3
12420.8
12269
12086.4
11874.2
11634.3
11368.5
11078.6
10766.7
10434.8
10084.9
9719
9339.18
8947.33
8545.3
8134.89
7717.78
7295.54
6869.64
6441.4
6012.04
5582.6
5154.02
4727
4302.07
3879.57
3459.76
3043.29
2631.57
2225.71
1824.76
1428.63
1040.84
670.231
250.134
10110.3
10102
10080.2
10033.2
9984.12
9899.87
9824.19
9573.13
9297.26
8976.84
8620.57
8247.25
7872.31
7502.84
7154.69
6850.01
6621.18
6463.7
6308.02
6188.9
6073.43
5960.99
5847.17
5734.89
5626.1
5538.12
5437.76
5324.37
5268.83
5269.49
5339.82
5476.73
5622
5767.9
5957.22
6222.93
6486.54
6738.9
6973.42
7217.45
7471.52
7733.34
8007.08
8295.63
8600.34
8918.89
9247.21
9580.62
9914.79
10245.7
10569.6
10882.8
11181.8
11463.4
11724.6
11962.6
12175
12359.5
12514.2
12637.4
12727.6
12783.8
12805.2
12791.4
12742.5
12658.8
12541
12390.2
12207.6
11994.8
11753.6
11485.7
11193.3
10878.3
10542.8
10189
9818.94
9434.66
9038.16
8631.37
8216.1
7794.09
7366.96
6936.2
6503.17
6069.09
5635.05
5201.98
4770.6
4341.44
3914.83
3491.01
3070.62
2655.03
2245.38
1840.7
1440.89
1049.47
675.206
251.264
10115
10106.4
10084.8
10036.3
9987.12
9892.19
9827.89
9578.58
9304.62
8985.69
8629.85
8256.6
7881.35
7510.38
7159.74
6852.92
6625.85
6470.55
6313.33
6191.53
6075.81
5959.69
5840.31
5721.98
5607.73
5514.11
5401.84
5280.97
5210.89
5196.66
5252.32
5377.57
5516.78
5663.55
5846.65
6103.98
6368.39
6627.38
6870.67
7122.47
7384.42
7654.16
7936.38
8234.29
8549.05
8877.89
9216.5
9560.14
9904.57
10245.8
10580
10903.5
11212.7
11504.4
11775.4
12022.9
12244.5
12437.8
12600.7
12731.5
12828.6
12890.9
12917.7
12908.4
12863.1
12782.1
12666.2
12516.3
12333.8
12120.4
11877.8
11607.8
11312.7
10994.5
10655.3
10297.4
9922.98
9534.04
9132.69
8720.9
8300.56
7873.44
7441.21
7005.38
6567.35
6128.37
5689.54
5251.8
4815.89
4382.34
3951.47
3523.51
3099.05
2679.46
2265.87
1857.34
1453.71
1058.54
680.492
252.474
10119.6
10110.8
10089.4
10039.6
9989.55
9884.65
9831.71
9584.6
9312.65
8995.31
8639.96