/*--------------------------------*- C++ -*----------------------------------*\
| =========                 |                                                 |
| \\      /  F ield         | OpenFOAM: The Open Source CFD Toolbox           |
|  \\    /   O peration     | Version:  4.1                                   |
|   \\  /    A nd           | Web:      www.OpenFOAM.org                      |
|    \\/     M anipulation  |                                                 |
\*---------------------------------------------------------------------------*/
FoamFile
{
    version     2.0;
    format      ascii;
    class       surfaceScalarField;
    location    "1900";
    object      phi;
}
// * * * * * * * * * * * * * * * * * * * * * * * * * * * * * * * * * * * * * //

dimensions      [0 3 -1 0 0 0 0];

internalField   nonuniform List<scalar> 
52920
(
4753.01
-9.82165
4768.92
-15.9521
4777.82
-8.95238
4821.43
-43.6801
4832.79
-11.4589
4870.78
-38.0623
5183.9
-313.201
5760.31
-576.46
6433.41
-673.161
7160.04
-726.682
7904.29
-744.3
8645.58
-741.338
9367.26
-721.719
10050.6
-683.385
10677.6
-627.005
11233.9
-556.371
11712.1
-478.177
12111.6
-399.564
12436.8
-325.212
12693.8
-257.078
12887.9
-194.104
13021
-133.18
13088.8
-67.8144
13070.7
18.0716
12931.2
139.519
12601.3
329.833
11955.6
645.727
10822
1133.56
9099.2
1722.78
6937.14
2162.03
4776.64
2160.48
3197.15
1579.44
2437.69
759.407
1558.75
878.891
-1480.52
3039.22
-4703.23
3222.64
-5831.36
1128.03
-6206.58
375.121
-6738.35
531.672
-7210.38
471.935
-7692.18
481.724
-8151.76
459.493
-8588.16
436.337
-9000.19
411.968
-9385.36
385.113
-9742.83
357.403
-10072.4
329.473
-10374.8
302.334
-10651.6
276.773
-10905.1
253.447
-11137.9
232.804
-11353
215.063
-11553.3
200.21
-11741.4
188.06
-11919.7
178.309
-12090.3
170.614
-12255
164.631
-12415.1
160.073
-12571.8
156.704
-12726.2
154.364
-12879.1
152.946
-13031.5
152.395
-13184.2
152.691
-13338
153.837
-13493.9
155.835
-13652.6
158.686
-13814.9
162.361
-13981.7
166.799
-14153.6
171.895
-14331.1
177.498
-14514.5
183.413
-14704
189.416
-14899.2
195.268
-15100
200.74
-15305.6
205.634
-15515.4
209.803
-15728.6
213.16
-15944.2
215.677
-16161.6
217.378
-16379.9
218.323
-16598.6
218.608
-16816.9
218.372
-17034.7
217.816
-17252
217.222
-17468.9
216.963
-17686.4
217.476
-17905.6
219.201
-18128.1
222.489
-18355.6
227.503
-18589.8
234.168
-18831.9
242.177
-19083
251.032
-19342.9
259.974
-19610.9
267.916
-19884.8
273.913
-20162.3
277.564
-20440.3
277.93
-20711
270.71
-20977.3
266.317
258.361
4752.34
-15.62
4762.71
-26.375
4765.76
-12.068
4801.3
-79.2916
4798.44
-8.70753
4826.7
-66.3984
5121.41
-607.997
5646.7
-1101.81
6262.63
-1289.14
6955.94
-1420.04
7731.65
-1520.06
8577.8
-1587.53
9454.38
-1598.34
10311.5
-1540.56
11108.6
-1424.12
11820.7
-1268.56
12438.6
-1096.05
12964.5
-925.54
13407.4
-768.089
13777.8
-627.535
14084.8
-501.111
14333.5
-381.975
14521.5
-255.815
14630.5
-90.9621
14621.9
148.125
14419.7
531.987
13884.8
1180.58
12816.8
2201.54
11067.4
3472.19
8736.25
4493.2
6271.49
4625.23
4365.46
3485.45
3201.44
1923.38
1974.56
2105.72
-678.25
5692
-3655.05
6199.39
-5166.01
2638.91
-5905.74
1114.74
-6466.9
1092.74
-6978.53
983.464
-7456.42
959.53
-7915.8
918.789
-8349.8
870.265
-8760.06
822.156
-9144.32
769.323
-9502.07
715.082
-9833.56
660.86
-10139.7
608.427
-10422.3
559.308
-10683.6
514.712
-10926.2
475.406
-11152.9
441.677
-11366.1
413.369
-11568.1
390.024
-11760.8
371.006
-11945.8
355.65
-12124.6
343.335
-12298.1
333.561
-12467.3
325.944
-12633.2
320.231
-12796.6
316.266
-12958.1
313.984
-13118.8
313.37
-13279.4
314.444
-13440.8
317.227
-13603.9
321.723
-13769.4
327.887
-13938.2
335.609
-14111
344.696
-14288.4
354.871
-14470.8
365.775
-14658.3
376.988
-14851.1
388.059
-15048.9
398.548
-15251.4
408.065
-15457.9
416.308
-15667.8
423.081
-15880.4
428.298
-16095
431.969
-16310.9
434.187
-16527.4
435.118
-16744
435.024
-16960.5
434.293
-17176.8
433.476
-17393.1
433.289
-17610.2
434.564
-17829.1
438.132
-18051.3
444.646
-18278.2
454.406
-18511.3
467.257
-18751.7
482.615
-19000.2
499.52
-19256.7
516.521
-19520.4
531.619
-19789.7
543.189
-20062.8
550.622
-20336.8
551.964
-20606.3
540.254
-20873.9
533.912
518.895
4735.29
-15.2283
4737.82
-28.9446
4732.44
-6.7466
4757.09
-104.011
4736.64
11.6481
4754.12
-83.9384
5021.78
-875.732
5470.66
-1550.73
6041.34
-1859.87
6823.66
-2202.4
7817.75
-2514.19
8913.87
-2683.69
9991.98
-2676.49
10978.4
-2526.97
11843
-2288.74
12580.6
-2006.27
13199.1
-1714.49
13712.1
-1438.65
14135.6
-1191.57
14484
-976.006
14769
-786.038
14997.6
-610.69
15170.4
-428.641
15276
-196.502
15286
138.028
15144.9
673.141
14749.4
1576.04
13918.8
3032.09
12439
4952.02
10249
6683.12
7692.13
7182.1
5523.32
5654.23
4029.23
3417.44
2433.62
3701.29
-318.92
8444.51
-3102.71
8983.15
-4657.73
4193.87
-5557.8
2014.73
-6171.22
1706.08
-6717.16
1529.32
-7201.06
1443.35
-7660.66
1378.32
-8093.62
1303.15
-8501.79
1230.27
-8884.96
1152.44
-9242.84
1072.9
-9576.22
994.15
-9886.26
918.441
-10175
847.965
-10444.6
784.323
-10697.7
728.431
-10936.5
680.485
-11163.3
640.077
-11379.7
606.434
-11587.3
578.606
-11787.4
555.667
-11980.8
536.796
-12168.6
521.355
-12351.6
508.873
-12530.4
499.052
-12705.9
491.716
-12878.7
486.803
-13049.6
484.307
-13219.5
484.269
-13389
486.726
-13558.9
491.691
-13730.2
499.116
-13903.4
508.87
-14079.4
520.712
-14258.8
534.284
-14442.2
549.116
-14629.8
564.644
-14822
580.247
-15018.8
595.305
-15220
609.243
-15425.2
621.593
-15634.2
632.019
-15846.2
640.333
-16060.7
646.488
-16277.1
650.56
-16494.7
652.751
-16713.1
653.409
-16931.9
653.075
-17151
652.525
-17370.5
652.773
-17590.9
655.001
-17813.1
660.389
-18038.4
669.88
-18267.9
683.928
-18503
702.351
-18744.7
724.347
-18993.7
748.549
-19250.1
772.887
-19513.1
794.612
-19781.5
811.611
-20054
823.118
-20328.3
826.202
-20600.5
812.457
-20871.8
805.28
783.078
4704.24
-8.46244
4698.35
-23.1058
4683.14
8.39899
4695.12
-116.068
4657.71
48.9525
4664.8
-91.1031
4882.1
-1093.13
5260.55
-1929.22
5918.27
-2517.64
6958.53
-3242.71
8199.36
-3755.05
9413.95
-3898.31
10492
-3754.6
11412.8
-3447.8
12188.9
-3064.9
12838.3
-2655.67
13377.9
-2254.07
13823.7
-1884.52
14190.8
-1558.7
14492.2
-1277.47
14738.1
-1031.9
14934.9
-807.546
15082.9
-576.714
15172.3
-285.913
15180.7
129.587
15062.1
791.811
14739.4
1898.63
14085.6
3685.96
12911.4
6126.17
11022
8572.46
8557.37
9646.77
6297.36
7914.22
4702.14
5012.62
2856.43
5546.96
-116.372
11417.3
-2745.32
11612.1
-4234.31
5682.81
-5217.58
2997.91
-5883.45
2371.86
-6452.42
2098.2
-6945.35
1936.18
-7406.92
1839.82
-7840.3
1736.46
-8247.44
1637.35
-8630.57
1535.52
-8989.89
1432.15
-9326.78
1330.94
-9642.73
1234.36
-9939.93
1145.09
-10220.6
1064.93
-10486.9
994.723
-10740.9
934.423
-10984.1
883.308
-11218
840.304
-11443.7
804.223
-11662
773.968
-11873.8
748.606
-12079.9
727.429
-12281
709.922
-12477.7
695.757
-12670.7
684.738
-12860.7
676.783
-13048.3
671.874
-13234.1
670.042
-13418.7
671.321
-13602.7
675.731
-13786.8
683.236
-13971.7
693.722
-14157.9
706.959
-14346.2
722.591
-14537.3
740.121
-14731.5
758.928
-14929.6
778.298
-15131.8
797.474
-15338.2
815.721
-15549
832.389
-15764
846.962
-15982.7
859.093
-16204.9
868.607
-16429.8
875.501
-16657
879.945
-16885.9
882.314
-17116.1
883.233
-17347.2
883.631
-17579.1
884.746
-17812.2
888.051
-18046.9
895.061
-18284
907.037
-18524.8
924.671
-18770.3
947.865
-19021.6
975.709
-19279.6
1006.51
-19544.3
1037.63
-19815.4
1065.67
-20091.9
1088.08
-20372.6
1103.85
-20655.5
1109.08
-20938.1
1095.04
-21220.1
1087.28
1056.34
4659.37
4.52176
4644.9
-8.67194
4618.11
35.1341
4616.72
-114.748
4565.66
99.9236
4550.88
-76.3858
4700.63
-1242.95
5090.14
-2318.77
5975.6
-3403.13
7255.46
-4522.6
8563.18
-5062.8
9706.33
-5041.47
10665.1
-4713.37
11472.6
-4255.4
12159.4
-3751.63
12743.1
-3239.47
13235.5
-2746.42
13646.8
-2295.92
13987.9
-1899.77
14268.6
-1558.26
14497.3
-1260.59
14679.6
-989.843
14815.5
-712.672
14896.3
-366.776
14902.2
123.757
14787.2
906.698
14477
2208.83
13872
4290.98
12861.9
7136.25
11223.6
10210.7
8900.27
11970.1
6618.48
10196
4968.49
6662.59
2887.54
7627.88
-259.672
14564.5
-2646.43
13998.8
-3929.07
6965.41
-4889
3957.76
-5592
3074.79
-6190.17
2696.29
-6693.83
2439.76
-7157.28
2303.2
-7593.17
2172.28
-8001.6
2045.72
-8387.15
1921.02
-8750.95
1795.9
-9094.96
1674.86
-9421.07
1560.43
-9731.54
1455.5
-10028.3
1361.71
-10313.3
1279.6
-10587.6
1208.78
-10852.6
1148.21
-11108.9
1096.61
-11357.4
1052.68
-11598.7
1015.29
-11833.6
983.478
-12062.7
956.534
-12286.7
933.922
-12506.2
915.282
-12721.9
900.371
-12934.1
889.053
-13143.5
881.256
-13350.5
876.966
-13555.3
876.19
-13758.5
878.951
-13960.6
885.243
-14161.8
895.01
-14363
908.099
-14564.6
924.233
-14767.5
942.979
-14972.3
963.748
-15179.8
985.803
-15390.6
1008.31
-15605.3
1030.39
-15824.1
1051.21
-16047.2
1070.05
-16274.5
1086.33
-16505.6
1099.71
-16740.1
1110.03
-16977.5
1117.37
-17217.3
1122.07
-17458.8
1124.79
-17701.7
1126.54
-17945.7
1128.73
-18190.8
1133.09
-18437.1
1141.45
-18685.5
1155.41
-18936.8
1175.95
-19192
1203.11
-19452.3
1235.95
-19718.3
1272.49
-19990.2
1309.62
-20267.9
1343.32
-20550.5
1370.64
-20836.9
1390.26
-21125.3
1397.55
-21414.4
1384.17
-21703.4
1376.21
1335.81
4580.7
27.4817
4555.63
16.3421
4514.48
76.2193
4500.88
-101.229
4436.17
164.534
4382.06
-22.3561
4494.76
-1355.74
5010.77
-2834.83
6148.5
-4540.89
7517.89
-5892.02
8742.38
-6287.33
9752.49
-6051.61
10598.1
-5558.99
11327.1
-4984.43
11962.9
-4387.52
12513.3
-3789.89
12981.9
-3215.03
13374.3
-2688.36
13698.6
-2224.03
13963.3
-1822.99
14176
-1473.39
14342.6
-1156.46
14463.7
-833.804
14532.7
-435.773
14533.5
122.963
14423.8
1016.35
14127.6
2504.95
13534.9
4883.69
12586.2
8084.97
11103.3
11693.6
8879.6
14193.8
6418.75
12656.8
4464.91
8616.41
2177.4
9915.36
-766.329
17508.2
-2736.92
15969.4
-3809.63
8038.07
-4656.24
4804.3
-5311.64
3730.1
-5920.45
3305.01
-6445.18
2964.41
-6913.24
2771.18
-7353.24
2612.21
-7766.59
2459.01
-8158.41
2312.79
-8531.34
2168.76
-8887.87
2031.3
-9230.25
1902.78
-9560.57
1785.75
-9880.24
1681.35
-10190.3
1589.6
-10491.2
1509.68
-10783.4
1440.38
-11067.2
1380.38
-11343
1328.47
-11611.3
1283.6
-11872.8
1244.92
-12128
1211.76
-12377.7
1183.6
-12622.5
1160.03
-12862.9
1140.74
-13099.3
1125.52
-13332.3
1114.19
-13562
1106.66
-13788.7
1102.89
-14012.6
1102.9
-14234.1
1106.73
-14453.5
1114.38
-14671.2
1125.84
-14888
1140.96
-15104.4
1159.43
-15321.4
1180.76
-15539.9
1204.26
-15760.7
1229.07
-15984.5
1254.21
-16212
1278.68
-16443.5
1301.54
-16679.1
1321.99
-16918.8
1339.43
-17162.3
1353.53
-17409.2
1364.23
-17658.9
1371.78
-17910.9
1376.8
-18164.8
1380.36
-18420
1383.97
-18676.5
1389.57
-18934.3
1399.27
-19193.9
1415
-19456
1438.03
-19721.5
1468.62
-19991.3
1505.83
-20266.3
1547.47
-20546.7
1589.98
-20832.2
1628.85
-21122.2
1660.69
-21415.8
1683.83
-21711.4
1693.16
-22008.4
1681.13
-22305
1672.81
1622.72
4505.74
59.0358
4469.22
52.8289
4412.03
133.355
4387.09
-76.3476
4297.79
253.748
4182.68
92.6872
4316.45
-1489.58
5026.31
-3544.72
6331.97
-5846.57
7656.07
-7216.15
8745.98
-7377.25
9638.1
-6943.75
10406.2
-6327.12
11088.6
-5666.81
11694.9
-4993.92
12223.4
-4318.39
12672.5
-3664.12
13045.6
-3061.48
13350
-2528.47
13594.3
-2067.29
13786.2
-1665.38
13932.2
-1302.5
14034
-935.573
14087.5
-489.306
14081.3
129.184
13977.5
1120.06
13704.8
2777.62
13132.4
5456.05
12210
9007.36
10821.3
13082.4
8647.03
16368
5760.86
15543
3196.35
11180.9
890.533
12221.1
-1336.25
19735
-2746.91
17380
-3715.99
9007.11
-4512.6
5600.86
-5096.49
4313.92
-5663.96
3872.39
-6195.43
3495.81
-6673.68
3249.36
-7121.43
3059.9
-7544.24
2881.76
-7947.62
2716.12
-8335.72
2556.81
-8711.61
2407.11
-9077.58
2268.74
-9435.16
2143.28
-9784.78
2030.96
-10126.4
1931.16
-10459.5
1842.76
-10783.7
1764.57
-11098.8
1695.49
-11405
1634.58
-11702.5
1581.09
-11991.9
1534.37
-12274
1493.85
-12549.5
1459.07
-12819
1429.57
-13083.3
1404.97
-13342.7
1384.92
-13597.6
1369.14
-13848.4
1357.42
-14095.2
1349.67
-14338.1
1345.85
-14577.4
1346.03
-14813.4
1350.33
-15046.4
1358.83
-15276.9
1371.55
-15505.9
1388.35
-15734
1408.87
-15962.2
1432.52
-16191.6
1458.46
-16423
1485.64
-16657.3
1512.92
-16894.9
1539.16
-17136.2
1563.31
-17381.3
1584.55
-17630.1
1602.31
-17882.2
1616.35
-18137.3
1626.81
-18394.7
1634.26
-18654.1
1639.75
-18915
1644.91
-19177.3
1651.82
-19440.9
1662.85
-19706.1
1680.23
-19973.6
1705.53
-20244.2
1739.17
-20518.6
1780.24
-20797.4
1826.34
-21081
1873.54
-21369
1916.87
-21660.9
1952.53
-21955.6
1978.54
-22252.1
1989.69
-22550.2
1979.24
-22848.1
1970.69
1912.46
4425.48
98.384
4378.16
100.102
4305.97
205.475
4274.41
-44.8711
4151.06
377.001
3968.47
275.2
4183.64
-1704.85
5095.83
-4456.95
6457.55
-7208.31
7669.71
-8428.34
8632.77
-8340.34
9440.13
-7751.15
10159.8
-7046.84
10812.9
-6319.92
11396.9
-5577.97
11903.7
-4825.17
12329.3
-4089.8
12677.1
-3409.34
12955.1
-2806.43
13172.3
-2284.57
13337.4
-1830.55
13457.7
-1422.79
13535.9
-1013.8
13571.1
-524.54
13557.1
143.144
13460.3
1216.86
13216
3021.85
12675.8
5996.21
11776
9907.16
10455.3
14403.1
8349.81
18473.5
5034.8
18857.9
1757.89
14457.8
-393.126
14372.1
-1665.97
21007.8
-2482.87
18196.9
-3368.77
9892.97
-4252.74
6484.75
-4882.06
4943.15
-5422.66
4412.91
-5950.4
4023.46
-6438.6
3737.49
-6898.82
3520.05
-7336.95
3319.83
-7758.58
3137.7
-8169.1
2967.27
-8571.96
2809.88
-8969.1
2665.85
-9360.97
2535.09
-9746.7
2416.67
-10124.9
2309.34
-10494.1
2211.95
-10853.2
2123.6
-11201.4
2043.71
-11538.7
1971.84
-11865.3
1907.66
-12181.8
1850.85
-12489
1801.05
-12787.8
1757.83
-13079
1720.75
-13363.4
1689.32
-13641.5
1663.06
-13913.9
1641.55
-14180.9
1624.44
-14442.8
1611.52
-14699.7
1602.73
-14951.8
1598.14
-15199.4
1597.93
-15442.9
1602.33
-15682.9
1611.5
-15920
1625.48
-16155.2
1644.06
-16389.4
1666.76
-16623.7
1692.78
-16859.1
1721.03
-17096.5
1750.26
-17336.4
1779.13
-17579.5
1806.4
-17826
1831
-18075.8
1852.15
-18328.9
1869.44
-18585
1882.88
-18843.7
1892.95
-19104.7
1900.72
-19367.6
1907.84
-19632.3
1916.55
-19898.9
1929.4
-20167.5
1948.86
-20438.7
1976.73
-20713.1
2013.6
-20991.4
2058.56
-21274.2
2109.07
-21561.5
2160.87
-21853.3
2208.65
-22148.9
2248.2
-22447.7
2277.27
-22748.8
2290.79
-23052.1
2282.62
-23354.7
2273.29
2206.82
4338.95
146.081
4280.14
158.875
4193.6
291.962
4157.8
-9.12663
3992.38
542.341
3756.25
511.28
4093.47
-2042.13
5174.71
-5538.21
6507.5
-8541.11
7594.68
-9515.54
8459.36
-9205.04
9211.65
-8503.45
9901.07
-7736.28
10532.3
-6951.18
11094.3
-6139.96
11575.5
-5306.42
11971.8
-4486.13
12287.5
-3725
12531.7
-3050.66
12714.8
-2467.71
12846.4
-1962.21
12934.9
-1511.31
12984.4
-1063.3
12997.3
-537.48
12973.8
166.619
12884.9
1305.72
12673
3233.74
12173.7
6495.46
11301.3
10779.5
10040.3
15664.1
8084.33
20429.5
4702.1
22240.2
864.835
18295
-1238.43
16475.4
-1683.48
21452.8
-1983.27
18496.7
-2729.39
10639
-3732.17
7487.47
-4529.83
5740.75
-5134.55
5017.55
-5692.6
4581.45
-6205.77
4250.6
-6687.8
4002.03
-7149.06
3781.04
-7596.75
3585.35
-8037.44
3407.91
-8474.7
3247.07
-8909.59
3100.72
-9341.12
2966.57
-9766.91
2842.46
-10184.3
2726.74
-10591
2618.55
-10985
2517.64
-11365.5
2424.15
-11732
2338.38
-12085
2260.58
-12425
2190.85
-12753
2129.1
-13070.2
2075.02
-13377.6
2028.16
-13676.3
1987.94
-13967
1953.76
-14250.4
1925.01
-14527.2
1901.22
-14797.7
1882.03
-15062.3
1867.34
-15321.4
1857.19
-15575.3
1851.82
-15824.5
1851.54
-16069.7
1856.67
-16311.6
1867.37
-16551.1
1883.59
-16789.2
1904.91
-17027
1930.58
-17265.5
1959.53
-17505.7
1990.4
-17748.3
2021.74
-17994
2052.11
-18243.2
2080.25
-18496.3
2105.2
-18753.2
2126.38
-19014
2143.64
-19278.4
2157.38
-19546.3
2168.57
-19817.3
2178.86
-20091.2
2190.49
-20368
2206.14
-20647.5
2228.44
-20930.2
2259.4
-21216.5
2299.84
-21506.8
2348.94
-21801.9
2404.11
-22101.9
2460.9
-22406.9
2513.68
-22716.6
2557.81
-23029.9
2590.66
-23346.4
2607.26
-23665.5
2601.74
-23982
2589.72
2509.58
4247.95
201.767
4177.91
228.867
4078.72
391.074
4038.3
31.2173
3826.21
754.334
3563.19
774.227
4037.86
-2516.87
5235.65
-6736.03
6494.36
-9799.85
7471.09
-10492.3
8267.48
-10001.5
8986.14
-9222.14
9655.58
-8405.75
10267.7
-7563.31
10806.3
-6678.58
11258.6
-5758.77
11621
-4848.57
11899.1
-4003.11
12103.5
-3255.15
12245.9
-2610.14
12337.1
-2053.45
12386.8
-1561.01
12400.5
-1077.08
12384.8
-521.735
12346.8
204.548
12263.9
1388.64
12086.8
3410.79
11635.3
6946.9
10796.4
11618.5
9592.06
16868.4
7848.07
22173.4
4858.16
25230.1
874.059
22279.1
-1463.87
18813.3
-1512.25
21501.2
-1454.93
18439.3
-2031.14
11215.2
-3046.13
8502.39
-4016.96
6711.5
-4771.65
5772.16
-5410.82
5220.54
-5975.6
4815.31
-6494.09
4520.46
-6988.08
4274.98
-7469.84
4067.07
-7947.76
3885.77
-8425.24
3724.48
-8902.1
3577.55
-9375.76
3440.17
-9842.41
3309.08
-10298.3
3182.62
-10740.3
3060.55
-11166.3
2943.57
-11575
2832.84
-11966.2
2729.53
-12340.3
2634.64
-12698.2
2548.76
-13041.2
2472.14
-13370.9
2404.63
-13688.5
2345.79
-13995.5
2294.97
-14293.2
2251.41
-14582.6
2214.37
-14864.5
2183.18
-15139.9
2157.39
-15409.3
2136.76
-15673.4
2121.3
-15932.8
2111.21
-16188.1
2106.84
-16440
2108.54
-16689.2
2116.55
-16936.5
2130.89
-17182.8
2151.22
-17429.1
2176.88
-17676.4
2206.8
-17925.6
2239.64
-18177.8
2273.88
-18433.6
2307.96
-18693.8
2340.47
-18958.9
2370.25
-19229
2396.52
-19504.3
2418.94
-19784.6
2437.71
-20069.7
2453.64
-20359.1
2468.23
-20652.3
2483.66
-20948.7
2502.61
-21248.2
2527.88
-21550.5
2561.76
-21856.1
2605.37
-22165.3
2658.19
-22478.9
2717.7
-22797.3
2779.33
-23120.8
2837.11
-23448.8
2885.88
-23780.7
2922.49
-24115.3
2941.93
-24452
2938.44
-24783.7
2921.43
2821.77
4124.26
269.053
4044.42
308.673
3936.82
498.63
3896.06
71.9163
3641.53
1008.79
3386.37
1029.34
4005.51
-3136.04
5270.89
-8001.43
6440.45
-10969.4
7330.4
-11382.3
8083.17
-10754.2
8782.19
-9921.18
9437.19
-9060.77
10031.4
-8157.55
10546.1
-7193.27
10968.2
-6180.92
11294.8
-5175.22
11532.7
-4241
11693.8
-3416.23
11790.7
-2707.11
11835.6
-2098.35
11839.4
-1564.86
11809.4
-1047.13
11756.6
-468.974
11696
265.161
11612.1
1472.45
11468.5
3554.45
11069.6
7345.76
10268.8
12419.2
9117.87
18019.3
7589.61
23701.7
5231.04
27588.6
1655.82
25854.3
-1008.49
21477.6
-1218.79
21711.5
-1012.64
18233.1
-1476.61
11679.1
-2471.17
9496.91
-3553.99
7794.27
-4431.13
6649.25
-5150.28
5939.64
-5770.91
5435.89
-6332.44
5081.95
-6865.53
4808.03
-7387.15
4588.65
-7906.91
4405.49
-8427.47
4244.99
-8947.13
4097.2
-9461.78
3954.78
-9966.43
3813.73
-10456.6
3672.78
-10928.8
3532.73
-11380.8
3395.52
-11811.5
3263.53
-12221
3139
-12610
3023.71
-12980.1
2918.86
-13333
2825.03
-13670.6
2742.23
-13994.9
2670.05
-14307.7
2607.74
-14610.7
2554.42
-14905.5
2509.16
-15193.4
2471.14
-15475.7
2439.68
-15753.3
2414.39
-16027.2
2395.1
-16297.8
2381.88
-16565.9
2374.94
-16831.9
2374.55
-17096.3
2380.93
-17359.5
2394.12
-17622.2
2413.91
-17885.1
2439.73
-18148.9
2470.66
-18414.7
2505.44
-18683.4
2542.59
-18956
2580.48
-19233
2617.53
-19515.1
2652.37
-19802.6
2683.95
-20095.3
2711.67
-20393.1
2735.46
-20695.3
2755.88
-21001.3
2774.26
-21310.3
2792.66
-21621.5
2813.83
-21934.4
2840.75
-22248.7
2876.08
-22564.7
2921.35
-22882.9
2976.36
-23203.9
3038.73
-23528.3
3103.72
-23856.2
3164.99
-24187.1
3216.8
-24520.1
3255.53
-24854.3
3276.16
-25189.2
3273.29
-25519.3
3251.53
3134.27
4017.21
349.439
3920.43
405.397
3799.66
619.334
3751.53
119.965
3446.58
1313.66
3228.42
1247.41
3992.92
-3900.59
5283.62
-9292.16
6365.59
-12051.4
7192.53
-12209.2
7919.46
-11481.2
8607.07
-10608.8
9250.5
-9704.22
9827.84
-8734.93
10319.4
-7684.87
10712.3
-6573.85
11004
-5466.97
11202.1
-4439.08
11319.2
-3533.42
11368.9
-2756.81
11364.1
-2093.56
11316.8
-1517.67
11235.9
-966.194
11137.6
-370.793
11044.5
358.223
10948.5
1568.49
10830.8
3672.12
10485.3
7691.19
9724.9
13179.6
8621.4
19122.8
7273.44
25049.6
5521.14
29340.9
2748.57
28626.9
3.96086
24222.2
-746.657
22462.1
-747.918
18234.4
-1281.35
12212.5
-2242
10457.5
-3297.91
8850.12
-4202.96
7554.23
-4960.08
6696.69
-5619.58
6095.33
-6220.27
5682.58
-6793.52
5381.23
-7357
5152.08
-7919.58
4968.02
-8482.32
4807.67
-9041.85
4656.7
-9592.74
4505.63
-10129.3
4350.27
-10646.8
4190.26
-11141.9
4027.8
-11612.8
3866.36
-12058.9
3709.7
-12481.2
3561.19
-12880.9
3423.42
-13260.2
3298.13
-13621.3
3186.16
-13966.7
3087.63
-14298.8
3002.11
-14619.8
2928.76
-14931.9
2866.52
-15237.1
2814.27
-15536.8
2770.92
-15832.7
2735.55
-16125.7
2707.42
-16416.7
2686.04
-16706
2671.17
-16993.8
2662.74
-17280.1
2660.87
-17564.9
2665.69
-17848
2677.32
-18129.8
2695.69
-18410.6
2720.49
-18691
2751.03
-18971.8
2786.25
-19253.9
2824.74
-19538.3
2864.83
-19825.5
2904.77
-20116.1
2942.92
-20410.1
2977.93
-20707.3
3008.89
-21007.3
3035.47
-21309.5
3058.06
-21613.1
3077.86
-21917.3
3096.94
-22221.7
3118.17
-22525.8
3144.85
-22829.7
3179.96
-23133.7
3225.42
-23438.6
3281.21
-23744.8
3344.95
-24052.7
3411.65
-24362.3
3474.57
-24673.1
3527.54
-24984.2
3566.71
-25295.4
3587.32
-25606.9
3584.77
-25917.5
3562.18
3437.47
3915.05
437.126
3805.45
514.958
3676.54
748.204
3615.73
180.723
3256.37
1672.96
3100.3
1403.43
3997.8
-4798.12
5279.21
-10573.6
6283.84
-13056
7067.55
-12993
7779.9
-12193.6
8460.21
-11289.1
9093.36
-10337.4
9654.9
-9296.49
10125.2
-8155.16
10491.4
-6940.08
10751.1
-5726.74
10912.3
-4600.25
10988
-3609.16
10991.9
-2760.74
10937.4
-2039.09
10837.1
-1417.43
10700.4
-829.532
10550.4
-220.808
10415.8
492.767
10293.5
1690.82
10187.9
3777.62
9891.35
7987.77
9169.61
13901.3
8104.94
20187.5
6891.93
26262.6
5596.2
30636.6
3656.06
30567
1186.74
26691.5
-95.8529
23744.7
-563.91
18702.4
-1268.75
12917.3
-2226.78
11415.5
-3218.78
9842.09
-4092.35
8427.75
-4854.05
7458.35
-5535.82
6777.05
-6168.84
6315.57
-6779.9
5992.26
-7383.61
5755.77
-7986.29
5570.66
-8586.72
5408.05
-9179.92
5249.89
-9759.68
5085.36
-10320.2
4910.79
-10857.2
4727.24
-11368.1
4538.72
-11852.2
4350.37
-12309.8
4167.36
-12742.7
3994.04
-13152.9
3833.66
-13543.1
3688.25
-13915.7
3558.79
-14273.5
3445.37
-14618.8
3347.48
-14954.2
3264.14
-15281.8
3194.1
-15603.5
3135.98
-15920.9
3088.38
-16235.4
3049.96
-16547.5
3019.55
-16857.7
2996.21
-17165.8
2979.27
-17471.4
2968.36
-17773.9
2963.42
-18072.8
2964.6
-18367.7
2972.2
-18658.5
2986.47
-18945.4
3007.42
-19229.1
3034.73
-19510.4
3067.54
-19790.2
3104.52
-20069.3
3143.91
-20348.3
3183.78
-20627.5
3222.19
-20907.1
3257.5
-21186.8
3288.57
-21466.2
3314.92
-21745
3336.86
-22022.8
3355.64
-22299.4
3373.49
-22574.7
3393.49
-22849
3419.2
-23123
3453.89
-23397.1
3499.58
-23672.2
3556.25
-23948.5
3621.27
-24226.2
3689.35
-24505
3753.4
-24784.5
3807.02
-25064.3
3846.52
-25344.6
3867.63
-25626.8
3866.91
-25913.6
3849.02
3728.03
3812.62
530.955
3693.17
634.361
3562.23
879.071
3485.85
257.022
3084.59
2074.14
3009.72
1478.22
4012.97
-5801.41
5263.48
-11824.1
6203.8
-13996.4
6958.33
-13747.5
7662.17
-12897.4
8336.61
-11963.6
8959.86
-10960.7
9506.68
-9843.33
9957.89
-8606.41
10300.7
-7282.95
10532.6
-5958.66
10661.5
-4729.18
10700.6
-3648.24
10663.2
-2723.38
10562.5
-1938.47
10410.8
-1265.76
10217.6
-636.393
10013.3
-16.5308
9830.59
675.429
9667.43
1853.93
9554.99
3890.03
9296.47
8246.26
8607.31
14590.5
7570.29
21224.5
6451.05
27381.9
5459.23
31628.4
4170.84
31855.4
2185.73
28676.6
614.009
25316.4
-400.131
19716.5
-1341.7
13858.9
-2311.27
12385
-3243.43
10774.2
-4071.48
9255.75
-4825
8211.83
-5520.75
7472.74
-6180.8
6975.58
-6825.8
6637.21
-7465.45
6395.39
-8102.56
6207.72
-8733.59
6039.03
-9352.43
5868.71
-9952.81
5685.7
-10529.7
5487.61
-11079.9
5277.45
-11602.4
5061.18
-12097.6
4845.57
-12567.1
4636.88
-13013.2
4440.09
-13438.2
4258.69
-13844.7
4094.69
-14234.9
3948.96
-14611
3821.49
-14975.2
3711.64
-15329.4
3618.31
-15675.4
3540.1
-16014.8
3475.37
-16348.7
3422.34
-16678
3379.25
-17002.9
3344.41
-17323.1
3316.42
-17638.1
3294.25
-17947
3277.31
-18249.2
3265.54
-18543.8
3259.29
-18830.8
3259.21
-19110.3
3265.95
-19382.9
3279.99
-19649.4
3301.26
-19911
3329.09
-20168.6
3362.1
-20423
3398.39
-20675
3435.76
-20924.8
3472.01
-21172.7
3505.31
-21418.5
3534.38
-21662.3
3558.73
-21904.2
3578.76
-22144.4
3595.89
-22383.5
3612.55
-22622
3632.04
-22860.9
3658.1
-23101
3694.02
-23343.2
3741.73
-23587.9
3800.93
-23835.3
3868.67
-24085.2
3939.33
-24337.4
4005.58
-24591.4
4061.03
-24847.3
4102.4
-25105.6
4125.95
-25368.2
4129.54
-25639.9
4120.66
4009.62
3712.2
629.202
3585.15
761.383
3456.23
1007.95
3362.69
350.519
2928.83
2507.94
2944.51
1462.49
4032.78
-6889.7
5241.8
-13033.1
6128.94
-14883.5
6863.17
-14481.8
7561.12
-13595.4
8229.57
-12632.1
8842.78
-11573.9
9375.83
-10376.4
9810.29
-9040.88
10133.2
-7605.91
10341.8
-6167.25
10443.9
-4831.31
10452.5
-3656.81
10380.3
-2651.24
10239.8
-1798
10041.1
-1067.07
9796.16
-391.525
9540.52
239.079
9304.58
911.331
9087.4
2071.07
8946.42
4030.97
8709.31
8483.35
8041.75
15258
7018.99
22247.2
5959.56
28441.3
5160.23
32427.7
4312.75
32702.9
2815.03
30174.3
1184.42
26947
-307.824
21208.8
-1499.3
15050.3
-2453.52
13339.2
-3327.67
11648.3
-4116.32
10044.4
-4860.68
8956.15
-5568.01
8180.04
-6251.51
7659.06
-6925.81
7311.49
-7595.43
7064.98
-8259.68
6871.95
-8913.3
6692.61
-9549.88
6505.29
-10164
6299.81
-10752.2
6075.78
-11313.1
5838.35
-11847.2
5595.26
-12356.1
5354.43
-12841.8
5122.61
-13306.5
4904.8
-13752
4704.2
-14179.9
4522.53
-14591.3
4360.44
-14987.7
4217.83
-15370.2
4094.11
-15740.1
3988.21
-16098.7
3898.69
-16447
3823.74
-16786
3761.29
-17115.9
3709.15
-17436.7
3665.22
-17748
3627.75
-18049.3
3595.5
-18339.9
3567.91
-18619.4
3545.11
-18888
3527.87
-19146.1
3517.27
-19394.5
3514.43
-19634.7
3520.12
-19867.9
3534.44
-20095.4
3556.66
-20318.5
3585.21
-20538.1
3617.92
-20754.6
3652.31
-20968.6
3685.99
-21180.3
3717.01
-21390.1
3744.12
-21598.3
3766.94
-21805.5
3786.02
-22012.6
3802.97
-22220.4
3820.39
-22430.1
3841.7
-22642.6
3870.63
-22858.9
3910.33
-23079.7
3962.45
-23305.1
4026.33
-23535.1
4098.7
-23769.5
4173.7
-24007.8
4243.89
-24249.8
4303.02
-24495.6
4348.29
-24746.1
4376.37
-25002.9
4386.39
-25270.5
4388.23
4287.64
3592.66
729.491
3465.86
888.122
3346.85
1126.89
3240.65
456.651
2789.55
2958.97
2903.1
1348.85
4055.34
-8041.97
5215.96
-14193.8
6059.01
-15726.6
6778.26
-15201
7470.82
-14288
8132.3
-13293.6
8735.04
-12176.7
9255.11
-10896.5
9674.88
-9460.68
9981.18
-7912.24
10170.8
-6356.89
10251.6
-4912.19
10236.3
-3641.56
10137.1
-2552.03
9964.91
-1625.86
9725.77
-827.978
9437.3
-103.102
9137.65
538.688
8846.19
1202.74
8565.06
2352.15
8374.67
4221.32
8137.7
8720.3
7476.08
15919.6
6452.32
23270.9
5425.31
29468.3
4747.55
33105.5
4180.86
33269.6
3068.39
31286.8
1487.47
28527.9
-354.311
23050.5
-1726.24
16422.2
-2622.89
14235.8
-3449.46
12474.9
-4210
10804.9
-4948.39
9694.49
-5667.23
8898.84
-6371.3
8363.08
-7069.85
8009.99
-7762.85
7757.96
-8446.94
7555.99
-9116.14
7361.75
-9764.81
7153.94
-10389.3
6924.22
-10988
6674.46
-11561.3
6411.69
-12110.9
6144.77
-12638.4
5881.9
-13145.3
5629.52
-13632.5
5392.01
-14100.3
5171.98
-14548.6
4970.84
-14977.4
4789.2
-15386.8
4627.24
-15777.4
4484.73
-16150.2
4360.94
-16506.1
4254.6
-16846.2
4163.85
-17171.3
4086.39
-17481.9
4019.71
-17778.1
3961.44
-18060
3909.64
-18327.6
3863.09
-18581.1
3821.45
-18821.3
3785.26
-19049.1
3755.72
-19266.2
3734.35
-19474.3
3722.54
-19675.3
3721.13
-19871
3730.09
-20062.7
3748.39
-20251.6
3774.13
-20438.5
3804.79
-20623.9
3837.67
-20808.1
3870.26
-20991.7
3900.62
-21175.2
3927.59
-21359.2
3950.95
-21544.6
3971.42
-21732.4
3990.72
-21923.5
4011.51
-22119
4037.18
-22319.7
4071.34
-22526.3
4116.91
-22739.1
4175.24
-22958.1
4245.36
-23183.2
4323.78
-23413.9
4404.49
-23650.1
4480.04
-23891.4
4544.36
-24138.2
4595.08
-24391
4629.13
-24651.3
4646.68
-24921.9
4658.89
4566.06
3492.52
841.306
3355.88
1024.73
3242.54
1240.2
3121.91
577.237
2675.48
3405.36
2891.48
1132.78
4076.98
-9227.48
5185.74
-15302.5
5992.08
-16533
6699.12
-15908.1
7385.55
-14974.4
8038.71
-13946.8
8630.41
-12768.4
9138.1
-11404.2
9544.9
-9867.5
9837.27
-8204.63
10011.7
-6531.33
10076.3
-4976.82
10043.6
-3608.87
9925.22
-2433.7
9729.71
-1430.37
9460.08
-558.381
9138.67
218.266
8803.26
874.055
8456.59
1549.37
8104.92
2703.78
7847.9
4478.3
7587.59
8980.59
6912.58
16594.6
5871.28
24312.2
4854.64
30484.9
4255.47
33704.7
3867.65
33657.4
3024.17
32130.2
1506.45
30045.6
-553.822
25110.8
-1995.64
17864
-2803.87
15044
-3595.81
13266.8
-4339.42
11548.4
-5075.63
10430.7
-5806.16
9629.34
-6527.99
9084.9
-7245.78
8727.76
-7956.23
8468.39
-8654.46
8254.21
-9335.05
8042.3
-9993.99
7812.88
-10629.6
7559.85
-11242.1
7286.94
-11832.6
7002.18
-12402.3
6714.47
-12951.8
6431.36
-13480.6
6158.32
-13987.5
5898.91
-14470.9
5655.35
-14929.2
5429.13
-15361.4
5221.46
-15767.5
5033.34
-16148.1
4865.33
-16504.5
4717.31
-16838.2
4588.31
-17150.8
4476.44
-17443.6
4379.19
-17717.7
4293.78
-17973.9
4217.65
-18213.1
4148.85
-18436.3
4086.35
-18645.1
4030.17
-18841.1
3981.25
-19026.5
3941.14
-19203.7
3911.56
-19375
3893.88
-19542.6
3888.67
-19708
3895.52
-19872.6
3912.96
-20037.1
3938.66
-20202.1
3969.83
-20368.1
4003.59
-20535.2
4037.43
-20704.1
4069.49
-20875.3
4098.74
-21049.4
4125.08
-21227.3
4149.32
-21409.8
4173.22
-21597.7
4199.39
-21791.6
4231.12
-21992.1
4271.83
-22199.4
4324.25
-22413.7
4389.48
-22634.7
4466.43
-22862.4
4551.45
-23096.5
4638.52
-23336.6
4720.19
-23582.8
4790.53
-23835.2
4847.47
-24094.1
4888.1
-24360.9
4913.44
-24636.7
4934.73
4846.53
3407.74
957.432
3263.19
1169.23
3154.39
1348.93
3012.71
718.84
2587.7
3830.3
2907.3
813.065
4094.66
-10414.9
5150.7
-16358.6
5925.46
-17307.8
6621.3
-16603.9
7300.27
-15653.4
7943.73
-14590.3
8523.87
-13348.5
9019.61
-11900
9414.75
-10262.7
9695.28
-8485.19
9857.49
-6693.58
9909.95
-5029.31
9865.45
-3564.41
9735.53
-2303.83
9524.02
-1218.91
9235.41
-269.814
8893.72
559.907
8531.13
1236.59
8129.75
1950.69
7702.7
3130.77
7368.46
4812.5
7062.17
9286.85
6352.39
17304.4
5276.74
25387.8
4252.62
31509
3706.03
34251.2
3437.79
33925.6
2769.96
32798
1291.19
31524.3
-865.333
27267.3
-2274.39
19273.1
-2990.39
15760
-3757.23
14033.6
-4493.42
12284.6
-5230.68
11167.9
-5972.55
10371.2
-6709.42
9821.73
-7442.2
9460.49
-8165.92
9192.09
-8875.61
8963.87
-9567.31
8733.95
-10238.9
8484.48
-10890.2
8211.09
-11521.6
7918.28
-12133.2
7613.79
-12724.3
7305.53
-13292.8
6999.85
-13835.8
6701.34
-14350.1
6413.22
-14832.9
6138.09
-15282.2
5878.42
-15697.5
5636.75
-16079.6
5415.39
-16430.2
5215.98
-16751.9
5039.02
-17047.3
4883.67
-17318.8
4747.88
-17568.4
4628.82
-17798.1
4523.43
-18009.4
4429.02
-18204.3
4343.75
-18384.8
4266.83
-18553.3
4198.62