/*--------------------------------*- C++ -*----------------------------------*\
| =========                 |                                                 |
| \\      /  F ield         | OpenFOAM: The Open Source CFD Toolbox           |
|  \\    /   O peration     | Version:  4.1                                   |
|   \\  /    A nd           | Web:      www.OpenFOAM.org                      |
|    \\/     M anipulation  |                                                 |
\*---------------------------------------------------------------------------*/
FoamFile
{
    version     2.0;
    format      ascii;
    class       volVectorField;
    location    "1900";
    object      U;
}
// * * * * * * * * * * * * * * * * * * * * * * * * * * * * * * * * * * * * * //

dimensions      [0 1 -1 0 0 0 0];

internalField   nonuniform List<vector> 
26785
(
(-5.34876e-15 0.0797746 38.7193)
(-6.02169e-15 0.0723041 37.0173)
(-5.27322e-15 0.0715262 35.415)
(-1.73601e-14 0.0581957 34.0757)
(-1.5965e-14 0.0657902 32.9293)
(-1.54895e-14 0.0593309 31.5056)
(4.83764e-14 -0.0251184 30.808)
(-1.8317e-14 -0.114872 32.0569)
(5.52066e-14 -0.163951 34.7172)
(-7.94472e-14 -0.195857 37.8385)
(4.42353e-14 -0.205581 41.1014)
(1.45605e-14 -0.197173 44.319)
(9.71212e-15 -0.177017 47.3404)
(1.42211e-15 -0.149946 50.0602)
(-2.46613e-15 -0.119116 52.3971)
(-4.08856e-15 -0.0863097 54.2891)
(-4.24686e-15 -0.0531561 55.7043)
(-3.21919e-15 -0.0213468 56.6507)
(-6.92975e-15 0.00794333 57.1694)
(-1.8004e-14 0.0340977 57.3213)
(2.21203e-14 0.0573528 57.1671)
(9.14586e-15 0.078643 56.755)
(-7.13489e-15 0.100112 56.1174)
(1.6089e-14 0.128258 55.2238)
(-4.62369e-15 0.169071 53.975)
(3.29758e-14 0.232152 52.2031)
(2.28221e-14 0.330796 49.576)
(2.14502e-14 0.475364 45.5679)
(8.54661e-16 0.638116 39.6606)
(7.71347e-15 0.738463 31.9294)
(2.57149e-15 0.698973 23.3946)
(6.22331e-14 0.49698 16.1358)
(1.19669e-14 0.185967 11.5805)
(-4.60185e-15 0.192574 10.8887)
(-5.15349e-14 0.930885 8.20391)
(5.69415e-15 1.15334 -6.60124)
(-9.99356e-14 0.435349 -13.3419)
(-9.65971e-14 0.106071 -14.3159)
(-1.3742e-13 0.135413 -15.9052)
(-2.39692e-13 0.103271 -16.8858)
(-1.36013e-13 0.108944 -17.8526)
(-2.83257e-13 0.104097 -18.7909)
(-1.73679e-13 0.101836 -19.687)
(-2.59067e-13 0.0993991 -20.5633)
(-6.72155e-14 0.0968602 -21.416)
(-2.00838e-13 0.0943002 -22.2459)
(-8.01803e-14 0.0916113 -23.0519)
(-7.00251e-14 0.0888709 -23.8317)
(-4.67981e-14 0.0861199 -24.5842)
(-8.36657e-14 0.0834213 -25.3083)
(-2.91117e-14 0.0808401 -26.0033)
(-1.15731e-13 0.0784187 -26.669)
(-9.88676e-14 0.0761616 -27.3055)
(-8.45625e-14 0.0740383 -27.9128)
(-6.01714e-14 0.071995 -28.4913)
(-4.17747e-14 0.0699748 -29.0411)
(-1.49068e-13 0.0679299 -29.5628)
(-1.46011e-13 0.0658317 -30.0568)
(-1.39516e-13 0.0636713 -30.5236)
(-1.76317e-13 0.0614594 -30.9642)
(-1.09565e-13 0.0592208 -31.3797)
(-8.94033e-14 0.0569917 -31.7713)
(-5.18047e-14 0.0548133 -32.1408)
(-1.16062e-13 0.0527288 -32.4898)
(-1.11054e-13 0.0507776 -32.8204)
(-1.00292e-13 0.0489917 -33.1347)
(-1.03076e-13 0.0473907 -33.4348)
(-1.04168e-13 0.0459785 -33.7229)
(-1.00075e-13 0.0447397 -34.0008)
(-5.34088e-14 0.04364 -34.2702)
(-1.28904e-13 0.0426259 -34.5326)
(-1.16348e-13 0.0416311 -34.7888)
(-1.10938e-13 0.0405818 -35.0391)
(-1.20063e-13 0.0394071 -35.2836)
(-1.42922e-13 0.0380468 -35.5216)
(-1.12005e-13 0.03646 -35.7524)
(-1.17596e-13 0.0346277 -35.9749)
(-1.21586e-13 0.0325527 -36.1881)
(-1.16937e-13 0.0302554 -36.3907)
(-1.09567e-13 0.027769 -36.5821)
(-9.29759e-14 0.0251382 -36.7613)
(-1.3083e-13 0.0224222 -36.9281)
(-1.32509e-13 0.0197024 -37.0822)
(-1.0785e-13 0.0170903 -37.224)
(-8.99384e-14 0.0147276 -37.3543)
(-1.12058e-13 0.0127762 -37.4749)
(-1.12327e-13 0.0113923 -37.5883)
(-1.05259e-13 0.0106908 -37.6981)
(-1.18931e-13 0.0107102 -37.8079)
(-1.16591e-13 0.0113948 -37.9221)
(-1.14808e-13 0.0126018 -38.044)
(-1.14498e-13 0.0141129 -38.1741)
(-1.12705e-13 0.0156092 -38.3075)
(-1.08931e-13 0.0166643 -38.4385)
(-1.02703e-13 0.0169277 -38.5707)
(-1.13149e-13 0.0162086 -38.716)
(-1.15499e-13 0.0140018 -38.8034)
(-1.13418e-13 0.00859176 -38.9755)
(-1.13496e-13 0.00356421 -38.522)
(-1.13505e-13 0.00423726 -38.6443)
(-2.9483e-16 0.216217 38.7321)
(-9.73796e-14 0.202157 36.9953)
(-3.33701e-14 0.204576 35.3431)
(-2.41705e-14 0.169307 33.9711)
(2.72516e-14 0.195879 32.743)
(-1.17945e-13 0.174191 31.2327)
(4.47615e-14 -0.0789694 30.5333)
(-3.58932e-14 -0.343408 31.6717)
(-4.75923e-14 -0.484011 34.0796)
(6.63156e-15 -0.561761 36.9023)
(-7.84024e-15 -0.584114 40.1616)
(-7.5048e-15 -0.578357 43.8284)
(-7.65416e-15 -0.554869 47.6396)
(-5.71573e-15 -0.510685 51.279)
(-2.695e-14 -0.444798 54.503)
(8.10335e-15 -0.3614 57.1722)
(1.89837e-14 -0.269071 59.2407)
(-8.51325e-15 -0.177162 60.7357)
(-2.6048e-15 -0.0921376 61.7274)
(-2.01339e-14 -0.0170925 62.3043)
(-3.15625e-14 0.0485095 62.5479)
(-2.974e-14 0.10775 62.5225)
(-4.95924e-14 0.168146 62.271)
(-4.21291e-16 0.248401 61.7657)
(-1.10514e-14 0.368239 60.9213)
(-2.06498e-14 0.563334 59.5436)
(4.83151e-15 0.887329 57.2625)
(-4.186e-15 1.38424 53.4524)
(-2.08133e-15 1.9725 47.4222)
(-1.36454e-14 2.38764 39.0093)
(4.31568e-14 2.34119 29.2171)
(-1.59437e-15 1.69218 20.511)
(-6.67573e-15 0.79031 15.1571)
(3.86837e-14 0.887058 12.4213)
(1.78416e-14 3.04625 8.11214)
(-5.04699e-14 3.51415 -5.33462)
(-1.13422e-13 1.40829 -11.3726)
(-9.34365e-14 0.453756 -13.7141)
(-9.92262e-14 0.422256 -15.091)
(-1.16788e-13 0.326763 -16.262)
(-1.70255e-13 0.325828 -17.2058)
(1.23473e-13 0.313935 -18.1613)
(-2.00276e-13 0.304664 -19.062)
(-5.49183e-14 0.297569 -19.9468)
(-2.06833e-13 0.289816 -20.8117)
(-1.63536e-13 0.282091 -21.6566)
(-2.25586e-13 0.274092 -22.481)
(-2.60501e-14 0.266017 -23.2825)
(-2.04706e-13 0.257991 -24.0596)
(-1.08565e-13 0.250187 -24.8105)
(-3.72755e-13 0.242764 -25.5341)
(-2.21274e-13 0.23581 -26.2293)
(-2.49114e-13 0.229309 -26.8955)
(-3.16684e-13 0.223157 -27.5321)
(-9.34334e-14 0.217206 -28.1388)
(-7.18284e-14 0.211307 -28.7154)
(-1.49986e-13 0.205345 -29.2619)
(-1.35688e-13 0.199261 -29.7788)
(-7.26924e-14 0.193044 -30.2665)
(-5.36488e-14 0.186735 -30.7259)
(7.29405e-15 0.180412 -31.1582)
(-6.1141e-14 0.174175 -31.5648)
(-1.29018e-13 0.168138 -31.9472)
(-9.5286e-14 0.162418 -32.3074)
(-1.3039e-13 0.157118 -32.6474)
(-1.40187e-13 0.152323 -32.9693)
(-1.53466e-13 0.148083 -33.2752)
(-9.71548e-14 0.144407 -33.5673)
(-1.3387e-13 0.141254 -33.8475)
(-1.1752e-13 0.138537 -34.1178)
(-7.97772e-14 0.136115 -34.3795)
(-1.17428e-13 0.133816 -34.6339)
(-1.27838e-13 0.131446 -34.8815)
(-1.68714e-13 0.128816 -35.1226)
(-8.16144e-14 0.125763 -35.357)
(-1.26726e-13 0.122167 -35.5843)
(-1.39891e-13 0.117967 -35.8036)
(-1.1277e-13 0.113157 -36.0141)
(-1.08705e-13 0.10778 -36.2148)
(-8.26778e-14 0.101915 -36.405)
(-8.36851e-14 0.0956816 -36.5838)
(-1.33833e-13 0.0892394 -36.7509)
(-1.35958e-13 0.082813 -36.906)
(-7.9596e-14 0.0767067 -37.0494)
(-7.76497e-14 0.0713057 -37.1819)
(-7.41022e-14 0.0670465 -37.305)
(-8.24927e-14 0.0643501 -37.421)
(-1.18287e-13 0.0635296 -37.533)
(-9.8034e-14 0.0646963 -37.6445)
(-1.02011e-13 0.0677118 -37.7594)
(-1.03337e-13 0.0722031 -37.8808)
(-1.01055e-13 0.0775839 -38.0092)
(-8.56764e-14 0.0829783 -38.1395)
(-9.68834e-14 0.0872136 -38.2661)
(-1.04123e-13 0.0893626 -38.3929)
(-9.35108e-14 0.0889991 -38.5328)
(-1.02543e-13 0.0847722 -38.6173)
(-1.04318e-13 0.0721724 -38.7871)
(-1.02546e-13 0.0608357 -38.3411)
(-1.02433e-13 0.0638868 -38.473)
(5.50281e-17 0.365272 38.6226)
(-4.27396e-14 0.345292 36.8393)
(-1.39112e-13 0.347583 35.1264)
(4.78169e-14 0.290003 33.7102)
(1.16855e-14 0.337756 32.3824)
(-1.01644e-13 0.293703 30.7692)
(3.36748e-14 -0.125083 30.0793)
(-5.347e-14 -0.5392 30.9492)
(-7.48149e-16 -0.755588 32.8738)
(-5.41866e-15 -0.920465 35.8581)
(-5.76981e-15 -1.05028 40.2703)
(-5.14583e-15 -1.12374 45.465)
(-2.93405e-15 -1.11623 50.5419)
(-4.93007e-15 -1.02989 54.9629)
(1.74826e-15 -0.88654 58.5436)
(-1.09257e-14 -0.711041 61.2856)
(2.53587e-14 -0.5262 63.2669)
(-1.94374e-14 -0.349844 64.5971)
(2.78362e-14 -0.192171 65.3937)
(-1.94355e-14 -0.0568757 65.7696)
(2.14263e-14 0.0581973 65.8188)
(2.90927e-14 0.159018 65.6133)
(-3.10888e-14 0.258917 65.2033)
(-4.43253e-16 0.386943 64.5755)
(5.2312e-15 0.576512 63.6814)
(-2.55325e-14 0.888715 62.381)
(5.3962e-15 1.41753 60.4076)
(-3.41341e-15 2.25793 57.2749)
(-1.272e-14 3.31692 52.2356)
(-8.49041e-15 4.16438 44.5792)
(-1.32299e-14 4.23384 34.6573)
(1.76433e-14 3.17174 25.0018)
(-4.24483e-14 1.74074 18.4804)
(2.84934e-14 1.92355 14.2017)
(-1.78899e-14 5.02113 8.09323)
(-9.08803e-14 5.54002 -4.77536)
(-1.22049e-13 2.40902 -9.99998)
(-1.28003e-13 0.931954 -12.9555)
(-1.04483e-13 0.733116 -14.2501)
(-1.09118e-13 0.583528 -15.5169)
(-1.19236e-13 0.547831 -16.4806)
(-1.20954e-13 0.528405 -17.4447)
(-1.21342e-13 0.511728 -18.359)
(-1.35915e-13 0.500595 -19.2536)
(-1.36698e-13 0.488718 -20.1331)
(-1.29555e-13 0.4768 -20.9954)
(-1.15874e-13 0.464495 -21.841)
(-1.11155e-13 0.451956 -22.6671)
(-1.17537e-13 0.439394 -23.4717)
(-1.39209e-13 0.427058 -24.2525)
(-1.28846e-13 0.41516 -25.0076)
(-1.2834e-13 0.403781 -25.7352)
(-1.22066e-13 0.392849 -26.4337)
(-1.12893e-13 0.382195 -27.1021)
(-9.49891e-14 0.371608 -27.7395)
(-2.36485e-13 0.360906 -28.3455)
(-2.1757e-13 0.349967 -28.9199)
(-1.64054e-13 0.338749 -29.4631)
(-1.74941e-13 0.32728 -29.9757)
(-4.08921e-14 0.315656 -30.4585)
(-5.49259e-14 0.304017 -30.9126)
(-6.42588e-14 0.292535 -31.3395)
(-7.18656e-14 0.281396 -31.7407)
(-6.84687e-14 0.270787 -32.1181)
(-1.07467e-13 0.260875 -32.4734)
(-1.1515e-13 0.251799 -32.8087)
(-4.18403e-14 0.243648 -33.1261)
(-6.95415e-14 0.236451 -33.4275)
(-6.36809e-14 0.230158 -33.715)
(-6.35581e-14 0.224643 -33.9905)
(-6.27476e-14 0.219703 -34.2555)
(-8.54051e-14 0.215072 -34.5117)
(-8.72492e-14 0.210443 -34.7598)
(-8.67501e-14 0.205506 -35.0008)
(-1.10233e-13 0.199981 -35.2348)
(-1.10453e-13 0.193649 -35.4618)
(-1.158e-13 0.186372 -35.6814)
(-1.16981e-13 0.178102 -35.8931)
(-1.18278e-13 0.168873 -36.096)
(-1.25239e-13 0.158787 -36.2895)
(-1.3913e-13 0.148019 -36.4728)
(-1.42869e-13 0.136825 -36.6456)
(-1.4641e-13 0.12557 -36.8073)
(-9.48675e-14 0.114754 -36.9582)
(-1.00168e-13 0.105005 -37.0987)
(-9.93207e-14 0.0970318 -37.2301)
(-1.02106e-13 0.0915159 -37.3542)
(-1.08747e-13 0.0889642 -37.4737)
(-1.1244e-13 0.0895621 -37.5917)
(-1.16609e-13 0.0930959 -37.7118)
(-9.23848e-14 0.0989754 -37.837)
(-8.72078e-14 0.106267 -37.9678)
(-1.02692e-13 0.113593 -38.0993)
(-1.01295e-13 0.119169 -38.2262)
(-9.77892e-14 0.121649 -38.3525)
(-9.72092e-14 0.120494 -38.4921)
(-1.04756e-13 0.113742 -38.5799)
(-9.81735e-14 0.0954359 -38.7521)
(-9.78716e-14 0.0798718 -38.3185)
(-9.78002e-14 0.0843575 -38.4608)
(6.92273e-16 0.517327 38.4025)
(2.69018e-14 0.494128 36.5713)
(4.11379e-14 0.496643 34.7951)
(2.54648e-14 0.417625 33.3269)
(-6.49364e-14 0.488177 31.8847)
(4.07432e-14 0.413249 30.2015)
(-2.48036e-14 -0.152656 29.4864)
(-5.3207e-14 -0.688626 29.7748)
(7.83843e-16 -1.04514 31.6617)
(-8.08506e-15 -1.43905 36.1302)
(-1.84693e-15 -1.73365 42.3537)
(-6.31655e-15 -1.82354 48.5377)
(2.80237e-15 -1.73038 53.7246)
(5.09011e-15 -1.52323 57.7543)
(-1.24171e-14 -1.261 60.7685)
(1.25758e-14 -0.980601 62.9455)
(1.45983e-14 -0.70693 64.4332)
(1.80766e-14 -0.457359 65.3562)
(-2.54524e-14 -0.24065 65.8247)
(6.12042e-15 -0.0585698 65.9383)
(4.71869e-15 0.0935942 65.7784)
(-2.59801e-14 0.224759 65.4072)
(-2.80793e-14 0.353384 64.8714)
(-6.95813e-15 0.516547 64.1543)
(-3.87063e-15 0.757329 63.2181)
(-1.49062e-15 1.15486 61.9571)
(-9.32549e-16 1.82951 60.152)
(-5.47491e-15 2.92607 57.4472)
(-1.07971e-14 4.40277 53.3459)
(-1.35556e-14 5.76609 47.0015)
(-2.268e-15 6.14737 37.8375)
(7.2991e-15 4.82521 27.8866)
(-2.16812e-15 2.88221 20.77)
(2.57873e-14 3.16541 15.9912)
(-6.01195e-14 6.97843 8.21052)
(-8.59891e-14 7.32998 -4.55146)
(-3.00592e-13 3.36888 -8.90956)
(-1.88528e-13 1.45709 -12.1193)
(-7.8069e-14 1.04658 -13.4561)
(-2.80725e-13 0.845811 -14.7579)
(-1.34726e-15 0.776012 -15.7452)
(1.92773e-13 0.74512 -16.7209)
(-1.19985e-13 0.72026 -17.6558)
(-1.68649e-13 0.704786 -18.5657)
(-4.25413e-14 0.689549 -19.4652)
(-1.07199e-13 0.67418 -20.3506)
(-2.95538e-14 0.658467 -21.2234)
(-2.17542e-14 0.642331 -22.0803)
(-8.23623e-14 0.626065 -22.9191)
(-1.90674e-13 0.609963 -23.7365)
(-1.18458e-13 0.594243 -24.5297)
(-2.07981e-13 0.578939 -25.296)
(-9.95527e-14 0.563915 -26.0332)
(-4.53353e-14 0.548949 -26.7396)
(-4.21337e-14 0.533805 -27.4142)
(-1.99681e-14 0.518309 -28.0564)
(-1.28308e-13 0.502367 -28.6662)
(-8.68817e-14 0.485984 -29.2439)
(-1.28009e-13 0.469242 -29.7903)
(-1.07876e-13 0.452297 -30.3062)
(-1.46626e-13 0.435345 -30.793)
(-8.25439e-14 0.418616 -31.2518)
(-5.36472e-14 0.40235 -31.684)
(-7.14181e-14 0.386787 -32.0913)
(-9.79305e-14 0.372147 -32.4751)
(1.3698e-16 0.358617 -32.8371)
(-7.89409e-14 0.34633 -33.1789)
(-6.33847e-14 0.33535 -33.5023)
(-1.14931e-13 0.325653 -33.8093)
(-1.46901e-13 0.31712 -34.1015)
(-1.15851e-13 0.309529 -34.3809)
(-1.41136e-13 0.302571 -34.6491)
(-1.1344e-13 0.295874 -34.9078)
(-1.25168e-13 0.289038 -35.1582)
(-1.42265e-13 0.281679 -35.4012)
(-6.11266e-14 0.273474 -35.6375)
(-1.21e-13 0.264192 -35.8671)
(-8.99066e-14 0.253709 -36.09)
(-9.45159e-14 0.242013 -36.3057)
(-9.62128e-14 0.229194 -36.5137)
(-8.6209e-14 0.215444 -36.7132)
(-7.59886e-14 0.201077 -36.9036)
(-6.10932e-14 0.186553 -37.0845)
(-9.60718e-14 0.172509 -37.2556)
(-9.04005e-14 0.159755 -37.417)
(-7.941e-14 0.149218 -37.5692)
(-6.22071e-14 0.14181 -37.7137)
(-1.06872e-13 0.138238 -37.8524)
(-9.8756e-14 0.138814 -37.9881)
(-1.13233e-13 0.143337 -38.124)
(-1.04281e-13 0.151092 -38.2631)
(-8.56026e-14 0.160881 -38.4062)
(-8.46957e-14 0.170912 -38.5491)
(-8.92414e-14 0.178903 -38.6867)
(-9.03659e-14 0.183157 -38.8231)
(-9.46867e-14 0.182913 -38.9728)
(-9.39172e-14 0.175578 -39.0743)
(-8.81668e-14 0.154574 -39.2567)
(-8.93891e-14 0.137264 -38.8473)
(-8.99074e-14 0.142896 -39.0069)
(1.3771e-15 0.655044 38.0716)
(-5.26139e-14 0.629143 36.1942)
(-4.57727e-14 0.636686 34.3558)
(-6.80671e-14 0.542268 32.8186)
(-5.6063e-14 0.638917 31.2723)
(-8.42818e-14 0.53458 29.5675)
(7.5388e-14 -0.142921 28.611)
(-2.19059e-14 -0.825279 28.3023)
(-4.91269e-15 -1.47811 31.3386)
(1.14938e-14 -2.1627 37.8)
(7.58874e-15 -2.51229 44.8751)
(1.05671e-14 -2.49346 50.7565)
(-6.78949e-15 -2.25653 55.1886)
(2.20125e-14 -1.92602 58.4683)
(-4.33847e-15 -1.56626 60.8944)
(8.55328e-15 -1.20574 62.654)
(3.12478e-14 -0.863267 63.8572)
(1.32474e-14 -0.554207 64.5874)
(9.12295e-15 -0.286865 64.9231)
(5.57816e-15 -0.0625969 64.9426)
(5.01845e-15 0.124419 64.7131)
(1.56944e-14 0.284746 64.2891)
(-9.59457e-15 0.441224 63.7143)
(-1.52753e-15 0.637741 62.9711)
(-2.54282e-16 0.924789 62.0298)
(5.18602e-16 1.39963 60.7947)
(-1.62254e-14 2.20568 59.0479)
(1.87964e-14 3.50596 56.4267)
(-4.32391e-15 5.29507 52.652)
(-8.67586e-15 7.14056 47.2328)
(-1.76925e-14 7.9622 38.9695)
(-8.78262e-15 6.50226 29.0897)
(-8.1441e-16 4.04442 21.6396)
(3.26241e-14 4.52471 16.5144)
(-5.60742e-14 9.11599 7.21802)
(-1.72294e-13 9.0197 -5.16405)
(-1.98705e-13 4.21498 -8.36853)
(-1.44777e-13 2.0135 -11.3167)
(-2.0564e-13 1.40234 -12.6119)
(-1.26011e-13 1.12526 -13.9892)
(-1.13021e-13 1.00684 -15.0235)
(-1.64471e-13 0.966456 -16.0069)
(-2.59254e-13 0.934307 -16.972)
(-3.29073e-14 0.913729 -17.9079)
(-1.00342e-13 0.895835 -18.8369)
(-1.40198e-13 0.87776 -19.7562)
(-1.6833e-13 0.859488 -20.6674)
(-1.55966e-13 0.840566 -21.5672)
(-8.91122e-14 0.821309 -22.4522)
(-1.21898e-13 0.801982 -23.3182)
(-3.93583e-14 0.782761 -24.1612)
(-2.05763e-13 0.763621 -24.9772)
(-9.51293e-14 0.744391 -25.7634)
(-6.10662e-14 0.724857 -26.5175)
(-7.7098e-14 0.704824 -27.2385)
(5.36719e-15 0.684179 -27.9258)
(-9.45591e-14 0.66289 -28.5795)
(-7.5441e-14 0.641021 -29.2003)
(-1.32114e-13 0.618701 -29.789)
(-1.28268e-13 0.59612 -30.3468)
(-1.64162e-13 0.573502 -30.8748)
(-1.25512e-13 0.551097 -31.3742)
(-1.11041e-13 0.529163 -31.8462)
(-1.16554e-13 0.507963 -32.292)
(-8.94455e-14 0.487748 -32.7126)
(-1.80536e-13 0.468752 -33.1093)
(-7.65531e-14 0.451168 -33.4833)
(-1.52051e-13 0.435129 -33.836)
(-1.01055e-13 0.420688 -34.1691)
(-1.47335e-13 0.407791 -34.4842)
(-1.54802e-13 0.396267 -34.7834)
(-1.78579e-13 0.385828 -35.0687)
(-1.16168e-13 0.37608 -35.342)
(-1.08745e-13 0.366563 -35.6052)
(-7.63265e-14 0.356794 -35.8599)
(-8.32737e-14 0.346323 -36.1073)
(-1.24159e-13 0.334782 -36.3481)
(-8.96924e-14 0.321922 -36.5826)
(-9.88971e-14 0.307623 -36.8108)
(-7.08341e-14 0.291907 -37.0321)
(-5.82379e-14 0.274937 -37.2462)
(-6.75915e-14 0.257037 -37.4522)
(-4.4675e-14 0.238719 -37.6495)
(-7.46614e-14 0.22072 -37.8377)
(-6.7965e-14 0.204003 -38.0164)
(-9.81974e-14 0.189704 -38.186)
(-9.51327e-14 0.178981 -38.3471)
(-1.00691e-13 0.172793 -38.5014)
(-1.08846e-13 0.171649 -38.6512)
(-9.48839e-14 0.175427 -38.7995)
(-9.52428e-14 0.183343 -38.9492)
(-9.52096e-14 0.193953 -39.1014)
(-1.11005e-13 0.205068 -39.252)
(-9.90275e-14 0.213956 -39.3962)
(-9.8343e-14 0.218585 -39.5379)
(-9.25499e-14 0.217935 -39.6922)
(-9.22263e-14 0.208941 -39.8014)
(-9.5913e-14 0.185027 -39.9862)
(-9.96458e-14 0.165018 -39.594)
(-9.84325e-14 0.168918 -39.7623)
(-9.5683e-15 0.825288 37.4744)
(1.26162e-14 0.785078 35.5413)
(3.49255e-14 0.792239 33.6344)
(-3.88122e-14 0.676373 32.0121)
(-4.46349e-14 0.793872 30.4047)
(-1.10548e-14 0.668709 28.6618)
(6.6422e-14 -0.110174 27.2551)
(2.71682e-14 -1.03561 27.01)
(-6.55308e-15 -2.10889 32.0853)
(3.55779e-15 -2.98977 39.7544)
(1.59533e-14 -3.25424 46.5161)
(1.78171e-14 -3.07347 51.5268)
(-9.30518e-16 -2.70287 55.1738)
(8.87873e-15 -2.27619 57.9155)
(8.48937e-15 -1.84167 60.0123)
(1.20984e-14 -1.41535 61.5768)
(5.75698e-15 -1.01196 62.6599)
(-9.2015e-15 -0.647591 63.3088)
(1.54282e-14 -0.332002 63.5825)
(1.58737e-14 -0.0671714 63.5494)
(3.57032e-16 0.15324 63.2714)
(-1.74663e-14 0.341122 62.8021)
(7.99986e-16 0.523372 62.187)
(-1.67293e-14 0.749903 61.4113)
(-4.5893e-14 1.07765 60.4588)
(-1.06771e-14 1.62284 59.2513)
(-2.03954e-14 2.55892 57.5897)
(-1.69122e-14 4.06006 55.0546)
(-6.90316e-15 6.10084 51.3337)
(-1.76965e-14 8.35277 46.3535)
(-8.74219e-15 9.67172 38.8119)
(-1.19592e-14 8.20171 28.9528)
(1.11658e-14 5.27804 20.1984)
(1.1644e-14 6.01356 13.9963)
(-5.2794e-14 11.3215 4.34436)
(-1.45491e-13 10.4743 -6.17965)
(-1.75372e-13 4.83449 -8.45568)
(-1.5911e-13 2.45118 -10.9615)
(-2.11056e-13 1.73558 -11.8789)
(-2.16497e-13 1.42911 -13.1694)
(-4.12129e-13 1.25421 -14.3026)
(-3.78053e-13 1.19305 -15.317)
(-1.19565e-13 1.15512 -16.3174)
(-2.4284e-13 1.12925 -17.2949)
(-1.32699e-13 1.10925 -18.267)
(-1.68113e-13 1.08939 -19.2352)
(-1.63678e-13 1.06952 -20.2003)
(-1.39516e-13 1.04878 -21.1587)
(-1.01756e-13 1.02734 -22.1057)
(-6.60843e-14 1.00535 -23.0353)
(-6.5773e-14 0.982871 -23.9417)
(-7.37872e-14 0.959844 -24.8199)
(-9.61508e-14 0.93614 -25.6658)
(-9.80791e-14 0.911645 -26.4771)
(-1.1825e-13 0.886297 -27.2523)
(-1.31724e-13 0.860107 -27.9913)
(-1.26232e-13 0.833146 -28.6944)
(-8.95511e-14 0.805544 -29.3626)
(-1.11944e-13 0.777466 -29.9972)
(-1.2209e-13 0.749113 -30.5996)
(-1.3551e-13 0.720699 -31.1709)
(-1.16959e-13 0.692456 -31.7124)
(-1.25108e-13 0.664627 -32.2252)
(-7.63115e-14 0.637468 -32.7102)
(-3.73912e-14 0.611244 -33.1682)
(-9.77726e-14 0.58623 -33.6001)
(-9.86951e-14 0.562687 -34.0069)
(-9.00338e-14 0.540842 -34.3896)
(-1.80055e-14 0.520856 -34.7497)
(-4.76815e-14 0.502794 -35.0888)
(-3.8117e-14 0.486583 -35.4088)
(-8.5184e-14 0.47201 -35.7119)
(-6.83168e-14 0.458711 -36.0005)
(-8.6861e-14 0.446204 -36.2767)
(-5.20684e-14 0.433932 -36.5426)
(-8.24737e-14 0.421328 -36.8)
(-1.09965e-13 0.407881 -37.0502)
(-9.21906e-14 0.393189 -37.294)
(-1.00529e-13 0.376998 -37.5316)
(-1.04702e-13 0.359227 -37.7631)
(-1.18092e-13 0.339972 -37.9879)
(-1.22086e-13 0.319532 -38.2056)
(-1.48996e-13 0.298435 -38.4156)
(-9.1376e-14 0.277477 -38.6171)
(-9.48076e-14 0.25773 -38.8097)
(-8.48424e-14 0.240497 -38.9934)
(-1.09662e-13 0.227154 -39.1687)
(-1.04542e-13 0.218894 -39.3366)
(-1.07817e-13 0.216434 -39.4992)
(-1.05499e-13 0.219773 -39.6591)
(-8.49996e-14 0.228112 -39.8191)
(-8.95536e-14 0.239834 -39.9802)
(-1.09092e-13 0.252441 -40.1389)
(-1.19632e-13 0.262855 -40.2903)
(-1.07895e-13 0.268751 -40.4382)
(-1.05701e-13 0.26886 -40.598)
(-1.08942e-13 0.259885 -40.7157)
(-1.11034e-13 0.235598 -40.9037)
(-1.10011e-13 0.214858 -40.5305)
(-1.11531e-13 0.217203 -40.7065)
(-2.31676e-15 0.967379 36.9051)
(-2.51346e-15 0.92518 34.9189)
(2.96163e-14 0.941025 32.9317)
(-5.70312e-14 0.805078 31.2137)
(-1.31637e-15 0.95023 29.565)
(2.28622e-14 0.823159 27.6248)
(7.36293e-14 -0.0911617 25.659)
(2.05863e-14 -1.38705 26.4107)
(-1.58713e-14 -2.88827 33.3756)
(-5.33402e-15 -3.81099 41.1646)
(3.01473e-14 -3.909 47.0674)
(1.00454e-14 -3.57069 51.2341)
(1.62894e-14 -3.09644 54.331)
(1.52562e-14 -2.59915 56.7662)
(1.31304e-14 -2.10566 58.697)
(1.23942e-15 -1.62198 60.1616)
(2.11128e-14 -1.16181 61.1702)
(1.99539e-14 -0.744073 61.7521)
(-2.02232e-15 -0.381103 61.9603)
(1.05625e-14 -0.0760021 61.862)
(-1.98165e-15 0.177723 61.5196)
(7.2387e-15 0.392938 60.9888)
(6.14091e-15 0.600225 60.3192)
(-2.36201e-14 0.854387 59.4999)
(-1.82385e-14 1.21726 58.5315)
(-2.4224e-14 1.82339 57.3543)
(-3.08524e-14 2.88108 55.7965)
(-2.40771e-14 4.59086 53.4212)
(-3.99584e-15 6.8694 49.7595)
(-2.69576e-14 9.46472 44.9586)
(-1.12469e-14 11.3213 37.9629)
(-1.02655e-15 10.1148 27.9444)
(7.1855e-16 6.79744 16.3083)
(4.05641e-15 7.58506 8.52016)
(-1.01938e-13 13.188 0.549706)
(-1.36822e-13 11.5476 -6.62775)
(-1.66339e-13 5.31123 -8.32583)
(-2.07948e-13 2.74247 -10.7094)
(-2.98406e-13 1.94952 -11.3808)
(-3.07584e-13 1.69778 -12.43)
(-3.82226e-13 1.50996 -13.5782)
(-1.35444e-13 1.42874 -14.6516)
(-2.5143e-13 1.38509 -15.7025)
(-8.70338e-14 1.3547 -16.7388)
(-7.60204e-14 1.33304 -17.7712)
(-3.96264e-14 1.31242 -18.8059)
(1.58494e-15 1.29196 -19.8427)
(8.09554e-14 1.27032 -20.8772)
(8.23445e-15 1.24736 -21.9025)
(8.68666e-14 1.22294 -22.9103)
(3.22523e-14 1.197 -23.8929)
(-1.99162e-14 1.16952 -24.8437)
(-8.4592e-14 1.14053 -25.758)
(-9.54323e-14 1.11016 -26.6327)
(-1.07287e-13 1.07857 -27.4666)
(-1.15431e-13 1.04596 -28.2597)
(-1.56086e-13 1.01256 -29.0131)
(-6.73779e-14 0.978565 -29.728)
(-1.05433e-13 0.944169 -30.4063)
(-9.26899e-14 0.909558 -31.0498)
(-8.85356e-14 0.874904 -31.66)
(-8.92898e-14 0.840387 -32.2385)
(-1.04543e-13 0.806198 -32.7863)
(-8.83224e-14 0.772557 -33.3045)
(-1.16628e-13 0.739723 -33.7938)
(-3.6612e-14 0.707994 -34.255)
(-6.39469e-14 0.677694 -34.6889)
(-9.66453e-14 0.649152 -35.0963)
(-4.08328e-14 0.622657 -35.4785)
(-7.19493e-14 0.598411 -35.8371)
(-5.06931e-14 0.576484 -36.1738)
(-7.55055e-14 0.556775 -36.4909)
(-1.05783e-13 0.538993 -36.7909)
(-8.60603e-14 0.522676 -37.0762)
(-1.11179e-13 0.507223 -37.3491)
(-1.13368e-13 0.491969 -37.6118)
(-1.11277e-13 0.47626 -37.866)
(-9.66081e-14 0.459531 -38.1128)
(-9.33846e-14 0.441367 -38.3531)
(-1.12725e-13 0.421545 -38.5869)
(-8.29225e-14 0.400058 -38.8141)
(-8.88851e-14 0.377135 -39.0344)
(-7.83385e-14 0.353282 -39.2472)
(-9.521e-14 0.329313 -39.4519)
(-1.09338e-13 0.306376 -39.648)
(-1.08897e-13 0.285913 -39.8354)
(-1.15078e-13 0.269497 -40.0145)
(-1.23386e-13 0.258561 -40.186)
(-1.16996e-13 0.254042 -40.3519)
(-1.34509e-13 0.256087 -40.5144)
(-1.23675e-13 0.263907 -40.676)
(-1.13736e-13 0.275728 -40.8378)
(-1.20098e-13 0.288768 -40.9963)
(-1.12542e-13 0.299618 -41.1466)
(-1.16376e-13 0.305617 -41.292)
(-1.12037e-13 0.305201 -41.4482)
(-1.13092e-13 0.295012 -41.5646)
(-1.18883e-13 0.269353 -41.7461)
(-1.19519e-13 0.246626 -41.3804)
(-1.19604e-13 0.246399 -41.5533)
(7.73286e-14 1.11998 36.2894)
(1.26839e-14 1.07743 34.2594)
(-6.03465e-14 1.10088 32.1968)
(-2.88746e-14 0.938228 30.4002)
(-4.16128e-14 1.12562 28.7637)
(3.9031e-14 1.01482 26.4583)
(4.74253e-16 -0.120934 24.0657)
(-9.0183e-15 -1.89748 26.5213)
(2.43879e-14 -3.73297 34.5969)
(1.47492e-14 -4.56683 41.8087)
(2.53749e-14 -4.4767 46.7997)
(2.33094e-14 -4.01021 50.34)
(2.12689e-14 -3.46164 53.105)
(1.9961e-14 -2.91081 55.3747)
(2.31553e-14 -2.36579 57.2083)
(1.21927e-14 -1.82693 58.5928)
(-1.11519e-14 -1.31012 59.5184)
(1.25138e-14 -0.838838 60.0106)
(2.14556e-14 -0.428699 60.1255)
(2.06746e-14 -0.0840004 59.9344)
(1.932e-14 0.201853 59.5027)
(1.97794e-14 0.442614 58.8901)
(2.73356e-14 0.672429 58.1512)
(-1.24813e-14 0.949683 57.2791)
(-5.64103e-15 1.33955 56.2928)
(2.83862e-15 1.99533 55.1544)
(-1.39877e-14 3.16222 53.7138)
(-2.04603e-14 5.08476 51.5402)
(-3.46696e-14 7.60865 48.0049)
(-2.21988e-14 10.507 43.3)
(-1.87025e-14 12.9266 36.7508)
(-1.48365e-14 12.3945 26.8019)
(-7.04201e-15 8.76281 11.9516)
(-2.37169e-14 9.04936 2.30631)
(-1.11117e-13 14.3697 -2.43302)
(-1.23451e-13 12.2465 -6.0796)
(-1.76515e-13 5.81701 -7.04299)
(-2.36119e-13 3.10998 -9.52526)
(-3.42379e-13 2.15689 -10.6359)
(-3.51096e-13 1.9354 -11.6777)
(-3.61183e-13 1.76512 -12.8657)
(-2.1921e-13 1.6752 -14.0154)
(-1.75722e-13 1.62764 -15.1377)
(-4.79011e-14 1.59385 -16.2521)
(-2.91678e-14 1.57108 -17.3644)
(8.16568e-15 1.55066 -18.4843)
(2.92066e-14 1.53059 -19.6105)
(6.00961e-15 1.50886 -20.7372)
(1.0975e-13 1.48468 -21.8548)
(-3.8308e-14 1.45757 -22.9524)
(-1.46736e-13 1.4274 -24.0202)
(-7.63669e-14 1.39431 -25.05)
(-8.02618e-14 1.35866 -26.0365)
(-8.21151e-14 1.32094 -26.9764)
(-8.80829e-14 1.28166 -27.8687)
(-6.59314e-14 1.24131 -28.7137)
(-1.55218e-13 1.20027 -29.5131)
(-5.93737e-15 1.15886 -30.2688)
(-9.70614e-14 1.11729 -30.9833)
(-1.03382e-13 1.07571 -31.659)
(-8.41977e-14 1.03424 -32.2981)
(-1.01619e-13 0.992967 -32.9025)
(-1.1824e-13 0.952009 -33.4738)
(-1.29156e-13 0.911518 -34.0132)
(-1.19537e-13 0.871714 -34.5216)
(-6.22606e-14 0.832898 -34.9999)
(-8.1483e-14 0.795442 -35.4489)
(-1.11608e-13 0.759761 -35.8696)
(-1.00249e-13 0.726269 -36.2631)
(-1.17836e-13 0.695318 -36.6309)
(-9.19819e-14 0.667128 -36.9748)
(-5.94329e-14 0.641732 -37.2972)
(-8.14427e-14 0.61894 -37.6004)
(-1.15361e-13 0.598335 -37.8871)
(-1.12374e-13 0.579301 -38.1596)
(-1.48907e-13 0.561099 -38.4204)
(-1.38057e-13 0.542949 -38.6714)
(-1.01474e-13 0.524133 -38.9141)
(-9.43152e-14 0.504074 -39.1494)
(-8.4529e-14 0.482402 -39.3779)
(-1.10606e-13 0.458992 -39.5998)
(-1.47127e-13 0.433994 -39.815)
(-1.06915e-13 0.407872 -40.0231)
(-1.22453e-13 0.381449 -40.2239)
(-1.00681e-13 0.35593 -40.4171)
(-1.11441e-13 0.332869 -40.6025)
(-1.14658e-13 0.314013 -40.7805)
(-1.15518e-13 0.300991 -40.952)
(-1.21632e-13 0.294926 -41.1183)
(-1.12582e-13 0.296085 -41.2816)
(-1.22466e-13 0.303679 -41.4441)
(-1.14365e-13 0.315806 -41.6068)
(-1.06613e-13 0.329467 -41.7662)
(-1.06184e-13 0.341009 -41.9175)
(-1.00213e-13 0.347505 -42.0638)
(-1.04367e-13 0.347189 -42.2209)
(-1.0803e-13 0.336907 -42.3416)
(-1.15817e-13 0.311555 -42.5238)
(-1.15224e-13 0.288544 -42.1717)
(-1.14208e-13 0.287277 -42.3462)
(3.02145e-14 1.27504 35.6249)
(-3.53989e-14 1.23557 33.55)
(-6.0037e-15 1.26725 31.4057)
(3.39373e-14 1.06766 29.5532)
(-8.75486e-14 1.32074 27.9445)
(-2.95416e-14 1.23337 25.1623)
(8.18173e-14 -0.235594 22.7025)
(-3.08771e-14 -2.54505 27.0518)
(2.0578e-14 -4.57541 35.4375)
(4.2597e-14 -5.24002 41.8125)
(2.63359e-14 -4.97542 46.0544)
(2.47608e-14 -4.41331 49.1891)
(2.31809e-14 -3.81114 51.7697)
(1.88501e-14 -3.21526 53.9432)
(2.36128e-14 -2.62058 55.6968)
(2.73856e-14 -2.02594 56.9898)
(2.41346e-14 -1.45165 57.8066)
(2.23029e-14 -0.926726 58.1774)
(4.30827e-14 -0.470194 58.1657)
(7.0736e-14 -0.0873099 57.8496)
(3.36498e-14 0.228712 57.2991)
(4.28206e-14 0.492501 56.5792)
(4.41836e-14 0.741685 55.7506)
(2.10655e-14 1.03674 54.8103)
(7.4567e-14 1.44419 53.7977)
(1.61273e-14 2.137 52.7013)
(-2.06492e-15 3.39919 51.3947)
(-4.49828e-14 5.53397 49.4515)
(-2.73939e-14 8.31531 46.0971)
(-2.59288e-14 11.4902 41.4832)
(-2.13648e-14 14.4409 35.3309)
(-1.42753e-14 14.9011 26.0944)
(-3.20066e-14 11.2666 9.95819)
(-6.63209e-14 10.3845 -2.35029)
(-1.13055e-13 14.8197 -3.9653)
(-1.13825e-13 12.5808 -4.72527)
(-1.57328e-13 6.32118 -4.7398)
(-2.33942e-13 3.66964 -7.14738)
(-3.18262e-13 2.52958 -9.19372)
(-2.87936e-13 2.23178 -10.6878)
(-1.56447e-13 2.05241 -12.1022)
(-3.91038e-14 1.94472 -13.4053)
(-1.2143e-13 1.88922 -14.6365)
(-4.21304e-14 1.8513 -15.852)
(-5.75366e-14 1.82742 -17.064)
(-5.37394e-14 1.80789 -18.286)
(-5.90018e-14 1.78893 -19.5166)
(-7.37335e-14 1.76747 -20.7474)
(-9.91759e-14 1.74183 -21.966)
(-1.08677e-13 1.71116 -23.159)
(-1.0267e-13 1.67535 -24.3146)
(-9.72177e-14 1.63489 -25.4237)
(-7.90047e-14 1.59063 -26.4802)
(-6.99205e-14 1.54358 -27.4811)
(-5.47887e-14 1.49469 -28.4255)
(-1.44416e-14 1.44479 -29.3145)
(-5.15369e-14 1.39449 -30.1503)
(-8.44088e-14 1.34422 -30.9358)
(-1.38165e-13 1.29424 -31.6742)
(-1.04964e-13 1.24466 -32.3689)
(-1.33773e-13 1.19551 -33.0227)
(-1.59198e-13 1.14679 -33.6385)
(-1.66208e-13 1.09849 -34.2182)
(-1.16762e-13 1.05068 -34.7638)
(-1.36786e-13 1.00351 -35.2767)
(-8.3662e-14 0.95726 -35.7581)
(-9.52452e-14 0.91232 -36.2092)
(-1.48652e-13 0.869182 -36.6312)
(-1.22679e-13 0.828369 -37.0254)
(-1.37731e-13 0.79037 -37.3934)
(-7.67048e-14 0.75555 -37.7372)
(-1.13257e-13 0.724077 -38.059)
(-1.18876e-13 0.695861 -38.3611)
(-1.08656e-13 0.670541 -38.6462)
(-1.59706e-13 0.647503 -38.9167)
(-1.64433e-13 0.625952 -39.1751)
(-1.13056e-13 0.605006 -39.4234)
(-1.24034e-13 0.583809 -39.6634)
(-7.47944e-14 0.561639 -39.8964)
(-5.44461e-14 0.537985 -40.1234)
(-9.15043e-14 0.512603 -40.3449)
(-1.10911e-13 0.485557 -40.5612)
(-1.34083e-13 0.457256 -40.7723)
(-1.1287e-13 0.428503 -40.9782)
(-1.05393e-13 0.400529 -41.1786)
(-1.15384e-13 0.374962 -41.3733)
(-1.19187e-13 0.353671 -41.5624)
(-1.14681e-13 0.338448 -41.7463)
(-1.10506e-13 0.330583 -41.926)
(-1.04342e-13 0.330466 -42.1031)
(-9.11454e-14 0.337335 -42.2796)
(-9.34825e-14 0.349195 -42.4565)
(-1.09891e-13 0.362872 -42.6306)
(-1.14875e-13 0.374499 -42.7974)
(-1.22154e-13 0.38087 -42.9597)
(-1.22708e-13 0.379987 -43.1337)
(-1.10995e-13 0.368984 -43.2749)
(-1.11794e-13 0.343186 -43.4739)
(-1.10803e-13 0.317863 -43.1518)
(-1.16058e-13 0.312364 -43.3382)
(-1.51301e-14 1.41183 34.9234)
(-1.68237e-14 1.38004 32.8078)
(-2.386e-14 1.42814 30.5843)
(-1.76211e-14 1.18924 28.7033)
(2.7867e-14 1.53913 27.0922)
(6.48929e-15 1.46111 23.8029)
(-7.07821e-14 -0.449863 21.7028)