/*--------------------------------*- C++ -*----------------------------------*\
| =========                 |                                                 |
| \\      /  F ield         | OpenFOAM: The Open Source CFD Toolbox           |
|  \\    /   O peration     | Version:  4.1                                   |
|   \\  /    A nd           | Web:      www.OpenFOAM.org                      |
|    \\/     M anipulation  |                                                 |
\*---------------------------------------------------------------------------*/
FoamFile
{
    version     2.0;
    format      ascii;
    class       volScalarField;
    location    "1400";
    object      p;
}
// * * * * * * * * * * * * * * * * * * * * * * * * * * * * * * * * * * * * * //

dimensions      [0 2 -2 0 0 0 0];

internalField   nonuniform List<scalar> 
6820
(
-7.89272
-8.69246
-9.15296
-9.2978
-9.37636
-9.45067
-9.51051
-9.5561
-9.59482
-9.6303
-9.6631
-9.69344
-9.72177
-9.74853
-9.77396
-9.79825
-9.82158
-9.8441
-9.86599
-9.8874
-9.90846
-9.92933
-9.95015
-9.97108
-9.99229
-10.014
-10.0363
-10.0596
-10.0839
-10.1102
-10.1369
-10.1707
-10.1859
-9.56643
-9.73222
-9.71781
-9.63824
-9.59599
-9.59275
-9.6028
-9.61637
-9.63367
-9.65447
-9.67716
-9.70055
-9.72411
-9.74761
-9.77085
-9.79369
-9.81609
-9.83805
-9.85962
-9.88087
-9.90188
-9.92277
-9.94364
-9.96462
-9.98587
-10.0075
-10.0298
-10.0529
-10.0771
-10.103
-10.1307
-10.164
-10.2054
-9.54486
-9.3568
-9.33819
-9.37267
-9.41447
-9.46274
-9.50925
-9.54976
-9.58626
-9.62063
-9.65305
-9.68345
-9.71207
-9.73918
-9.76498
-9.78963
-9.81328
-9.8361
-9.85823
-9.87982
-9.90102
-9.92196
-9.9428
-9.96367
-9.98473
-10.0061
-10.0281
-10.0507
-10.0744
-10.0995
-10.1263
-10.1571
-10.1888
-9.46272
-9.36034
-9.40978
-9.47042
-9.50385
-9.53436
-9.5659
-9.59473
-9.62153
-9.64779
-9.6736
-9.6987
-9.72305
-9.74675
-9.76982
-9.7923
-9.81424
-9.8357
-9.85676
-9.87752
-9.89805
-9.91846
-9.93885
-9.95933
-9.98002
-10.0011
-10.0226
-10.0447
-10.0677
-10.0917
-10.1169
-10.1439
-10.1705
-9.4552
-9.41531
-9.44748
-9.48522
-9.50743
-9.5323
-9.56148
-9.58981
-9.61674
-9.64326
-9.66942
-9.6949
-9.71963
-9.74365
-9.76701
-9.78972
-9.81183
-9.83342
-9.85457
-9.87535
-9.89588
-9.91623
-9.9365
-9.95681
-9.97726
-9.99796
-10.019
-10.0405
-10.0627
-10.0855
-10.109
-10.1331
-10.1565
-9.46439
-9.44429
-9.46021
-9.48998
-9.5139
-9.5393
-9.56762
-9.59529
-9.62165
-9.64747
-9.67287
-9.69763
-9.72167
-9.74505
-9.7678
-9.78996
-9.81157
-9.8327
-9.85342
-9.87382
-9.89397
-9.91395
-9.93385
-9.95377
-9.97378
-9.99397
-10.0144
-10.0352
-10.0563
-10.0779
-10.0996
-10.1214
-10.1423
-9.47381
-9.46265
-9.47376
-9.50006
-9.52403
-9.54796
-9.57409
-9.60026
-9.62557
-9.65043
-9.67495
-9.69894
-9.72234
-9.74515
-9.7674
-9.78912
-9.81035
-9.83114
-9.85155
-9.87164
-9.8915
-9.91118
-9.93076
-9.95031
-9.9699
-9.98959
-10.0094
-10.0294
-10.0496
-10.0699
-10.0901
-10.11
-10.1288
-9.48391
-9.47884
-9.48848
-9.51094
-9.53335
-9.55572
-9.58002
-9.60486
-9.62921
-9.65319
-9.6769
-9.70019
-9.72297
-9.74523
-9.76699
-9.78827
-9.80909
-9.8295
-9.84956
-9.86931
-9.88882
-9.90815
-9.92735
-9.94648
-9.96558
-9.98471
-10.0039
-10.0231
-10.0423
-10.0614
-10.0802
-10.0984
-10.1156
-9.4948
-9.49345
-9.50224
-9.52135
-9.5421
-9.56323
-9.58601
-9.60954
-9.63288
-9.65597
-9.67885
-9.70141
-9.72354
-9.74523
-9.76646
-9.78727
-9.80766
-9.82767
-9.84734
-9.86672
-9.88585
-9.90478
-9.92356
-9.94223
-9.96082
-9.97935
-9.99782
-10.0162
-10.0345
-10.0525
-10.07
-10.0869
-10.1028
-9.50597
-9.50667
-9.51493
-9.53153
-9.55069
-9.57063
-9.592
-9.61424
-9.63655
-9.65874
-9.6808
-9.70261
-9.72408
-9.74517
-9.76587
-9.78618
-9.80611
-9.82569
-9.84495
-9.86392
-9.88264
-9.90115
-9.91948
-9.93765
-9.95569
-9.9736
-9.99136
-10.0089
-10.0263
-10.0433
-10.0597
-10.0754
-10.0902
-9.51706
-9.51883
-9.52674
-9.54143
-9.55906
-9.57781
-9.59789
-9.61891
-9.6402
-9.66149
-9.68273
-9.7038
-9.7246
-9.74508
-9.76522
-9.78502
-9.80447
-9.8236
-9.84241
-9.86095
-9.87923
-9.89728
-9.91512
-9.93277
-9.95024
-9.96751
-9.98457
-10.0014
-10.0178
-10.0338
-10.0493
-10.064
-10.0778
-9.52787
-9.53015
-9.53775
-9.55096
-9.56716
-9.58476
-9.60365
-9.62352
-9.64381
-9.66422
-9.68464
-9.70496
-9.72509
-9.74495
-9.76452
-9.78379
-9.80274
-9.82139
-9.83974
-9.85782
-9.87563
-9.8932
-9.91053
-9.92764
-9.94452
-9.96115
-9.9775
-9.99354
-10.0092
-10.0243
-10.0389
-10.0527
-10.0657
-9.53827
-9.54076
-9.54802
-9.56004
-9.57496
-9.59146
-9.60924
-9.62803
-9.64734
-9.66688
-9.68649
-9.70608
-9.72553
-9.74477
-9.76376
-9.78249
-9.80093
-9.81908
-9.83695
-9.85454
-9.87186
-9.88893
-9.90574
-9.92229
-9.93857
-9.95456
-9.97023
-9.98552
-10.0004
-10.0147
-10.0285
-10.0415
-10.0538
-9.54818
-9.55071
-9.55761
-9.56865
-9.58242
-9.59787
-9.61463
-9.6324
-9.65077
-9.66945
-9.68828
-9.70714
-9.72591
-9.74452
-9.76293
-9.7811
-9.79901
-9.81666
-9.83402
-9.85112
-9.86794
-9.88449
-9.90075
-9.91674
-9.93242
-9.94778
-9.96277
-9.97736
-9.99149
-10.0051
-10.0181
-10.0304
-10.042
-9.55756
-9.56003
-9.56655
-9.57676
-9.58952
-9.60399
-9.61978
-9.63659
-9.65406
-9.67191
-9.68997
-9.70811
-9.72621
-9.7442
-9.76202
-9.77963
-9.797
-9.81412
-9.83098
-9.84756
-9.86386
-9.87988
-9.8956
-9.91102
-9.9261
-9.94083
-9.95518
-9.96909
-9.98253
-9.99543
-10.0077
-10.0194
-10.0304
-9.56636
-9.56873
-9.57487
-9.58435
-9.59621
-9.60977
-9.62466
-9.64057
-9.65718
-9.67423
-9.69154
-9.70897
-9.72641
-9.74377
-9.761
-9.77805
-9.79488
-9.81147
-9.8278
-9.84386
-9.85964
-9.87512
-9.89029
-9.90514
-9.91963
-9.93376
-9.94747
-9.96074
-9.97353
-9.98578
-9.99746
-10.0085
-10.0189
-9.57456
-9.57681
-9.58258
-9.59142
-9.60248
-9.61519
-9.62924
-9.64431
-9.66011
-9.67638
-9.69296
-9.7097
-9.72649
-9.74324
-9.75988
-9.77636
-9.79264
-9.80869
-9.8245
-9.84003
-9.85528
-9.87022
-9.88484
-9.89912
-9.91304
-9.92657
-9.93968
-9.95233
-9.9645
-9.97615
-9.98723
-9.99774
-10.0076
-9.58215
-9.58427
-9.58969
-9.59795
-9.60829
-9.62023
-9.63349
-9.64777
-9.6628
-9.67834
-9.69421
-9.71028
-9.72643
-9.74257
-9.75862
-9.77454
-9.79028
-9.80579
-9.82107
-9.83607
-9.85079
-9.86519
-9.87927
-9.89299
-9.90634
-9.91929
-9.93181
-9.94388
-9.95546
-9.96653
-9.97707
-9.98704
-9.99644
-9.58911
-9.59111
-9.5962
-9.60393
-9.61362
-9.62486
-9.63739
-9.65093
-9.66523
-9.68006
-9.69526
-9.71068
-9.72621
-9.74175
-9.75723
-9.77259
-9.78778
-9.80276
-9.81751
-9.83199
-9.84617
-9.86004
-9.87358
-9.88675
-9.89954
-9.91193
-9.92389
-9.9354
-9.94643
-9.95696
-9.96697
-9.97645
-9.98538
-9.59542
-9.59731
-9.60208
-9.60934
-9.61844
-9.62904
-9.64089
-9.65375
-9.66737
-9.68153
-9.69608
-9.71088
-9.72581
-9.74077
-9.75568
-9.77049
-9.78515
-9.7996
-9.81382
-9.82778
-9.84144
-9.85478
-9.86778
-9.88042
-9.89268
-9.90453
-9.91595
-9.92692
-9.93742
-9.94743
-9.95695
-9.96595
-9.97444
-9.60108
-9.60286
-9.60735
-9.61418
-9.62275
-9.63275
-9.64398
-9.65621
-9.66918
-9.68272
-9.69666
-9.71086
-9.7252
-9.7396
-9.75397
-9.76825
-9.78237
-9.79631
-9.81001
-9.82345
-9.83659
-9.84942
-9.86191
-9.87402
-9.88576
-9.89708
-9.90798
-9.91844
-9.92843
-9.93796
-9.947
-9.95556
-9.96362
-9.60607
-9.60775
-9.61197
-9.61841
-9.6265
-9.63597
-9.64663
-9.65827
-9.67065
-9.6836
-9.69696
-9.71059
-9.72439
-9.73824
-9.75208
-9.76584
-9.77945
-9.79288
-9.80607
-9.81901
-9.83165
-9.84397
-9.85595
-9.86757
-9.87879
-9.88961
-9.90002
-9.90998
-9.9195
-9.92855
-9.93714
-9.94527
-9.95292
-9.61037
-9.61195
-9.61594
-9.62202
-9.62968
-9.63867
-9.64881
-9.6599
-9.67174
-9.68415
-9.69696
-9.71006
-9.72333
-9.73667
-9.75
-9.76325
-9.77637
-9.78931
-9.80201
-9.81446
-9.82661
-9.83845
-9.84994
-9.86106
-9.8718
-9.88214
-9.89207
-9.90156
-9.91062
-9.91923
-9.92739
-9.9351
-9.94235
-9.61396
-9.61546
-9.61923
-9.62499
-9.63226
-9.64081
-9.65048
-9.66109
-9.67243
-9.68433
-9.69664
-9.70925
-9.72202
-9.73487
-9.74772
-9.7605
-9.77314
-9.7856
-9.79783
-9.80981
-9.82149
-9.83285
-9.84387
-9.85453
-9.8648
-9.87468
-9.88415
-9.89319
-9.90181
-9.90999
-9.91774
-9.92505
-9.93193
-9.61682
-9.61825
-9.62182
-9.62729
-9.63421
-9.64237
-9.65162
-9.66179
-9.67267
-9.68412
-9.69598
-9.70812
-9.72044
-9.73284
-9.74523
-9.75755
-9.76974
-9.78175
-9.79354
-9.80506
-9.81629
-9.82721
-9.83778
-9.84798
-9.85781
-9.86725
-9.87628
-9.8849
-9.89309
-9.90087
-9.90822
-9.91515
-9.92166
-9.61894
-9.62029
-9.62368
-9.62888
-9.63549
-9.64331
-9.65219
-9.66197
-9.67246
-9.6835
-9.69494
-9.70667
-9.71857
-9.73055
-9.74252
-9.75442
-9.76619
-9.77777
-9.78913
-9.80023
-9.81103
-9.82151
-9.83166
-9.84144
-9.85084
-9.85986
-9.86847
-9.87668
-9.88448
-9.89187
-9.89884
-9.9054
-9.91156
-9.62028
-9.62156
-9.62479
-9.62974
-9.63607
-9.64359
-9.65216
-9.6616
-9.67175
-9.68243
-9.69352
-9.70488
-9.7164
-9.728
-9.73959
-9.7511
-9.76248
-9.77367
-9.78463
-9.79532
-9.80572
-9.8158
-9.82554
-9.83492
-9.84392
-9.85254
-9.86077
-9.86859
-9.87601
-9.88303
-9.88964
-9.89585
-9.90166
-9.62082
-9.62204
-9.62509
-9.62983
-9.63591
-9.64317
-9.65148
-9.66065
-9.67051
-9.6809
-9.69168
-9.70272
-9.71392
-9.72518
-9.73643
-9.74759
-9.7586
-9.76943
-9.78002
-9.79034
-9.80036
-9.81006
-9.81942
-9.82842
-9.83704
-9.84529
-9.85314
-9.8606
-9.86766
-9.87433
-9.8806
-9.88647
-9.89196
-9.62053
-9.62168
-9.62457
-9.62908
-9.63495
-9.64201
-9.65011
-9.65907
-9.66871
-9.67887
-9.6894
-9.70019
-9.71112
-9.7221
-9.73305
-9.7439
-9.7546
-9.7651
-9.77536
-9.78534
-9.79502
-9.80438
-9.81339
-9.82204
-9.83032
-9.83822
-9.84573
-9.85285
-9.85958
-9.86591
-9.87186
-9.87742
-9.88259
-9.61939
-9.62046
-9.62315
-9.62743
-9.63312
-9.64004
-9.64801
-9.65683
-9.66632
-9.67632
-9.68667
-9.69726
-9.70796
-9.71869
-9.72938
-9.73996
-9.75037
-9.76057
-9.77052
-9.78019
-9.78955
-9.79858
-9.80727
-9.81559
-9.82354
-9.83112
-9.8383
-9.8451
-9.85151
-9.85754
-9.86318
-9.86844
-9.87333
-9.6174
-9.61835
-9.62078
-9.6248
-9.63034
-9.63719
-9.6451
-9.65386
-9.6633
-9.67324
-9.68351
-9.694
-9.70458
-9.71517
-9.72569
-9.73608
-9.74628
-9.75625
-9.76596
-9.77537
-9.78446
-9.79322
-9.80162
-9.80966
-9.81732
-9.8246
-9.83149
-9.838
-9.84412
-9.84985
-9.8552
-9.86017
-9.86476
-9.61457
-9.61534
-9.61736
-9.62105
-9.6265
-9.63339
-9.64136
-9.65013
-9.65955
-9.66944
-9.67962
-9.68998
-9.70041
-9.71082
-9.72115
-9.73133
-9.74131
-9.75105
-9.76052
-9.76968
-9.77853
-9.78703
-9.79518
-9.80296
-9.81036
-9.81738
-9.82402
-9.83027
-9.83614
-9.84163
-9.84674
-9.85149
-9.85588
-9.61099
-9.61141
-9.61276
-9.61599
-9.62139
-9.62845
-9.63667
-9.6458
-9.65561
-9.66585
-9.67632
-9.68689
-9.69745
-9.70793
-9.71826
-9.72838
-9.73825
-9.74785
-9.75714
-9.76611
-9.77473
-9.78299
-9.79089
-9.7984
-9.80554
-9.81228
-9.81864
-9.82461
-9.8302
-9.8354
-9.84022
-9.84466
-9.84871
-9.6069
-9.60654
-9.60669
-9.60952
-9.61512
-9.62218
-9.63009
-9.63889
-9.64845
-9.65851
-9.66883
-9.67929
-9.68977
-9.70019
-9.71047
-9.72055
-9.73039
-9.73995
-9.7492
-9.75811
-9.76668
-9.77488
-9.7827
-9.79015
-9.7972
-9.80386
-9.81013
-9.81601
-9.8215
-9.82661
-9.83134
-9.83572
-9.83976
-9.60298
-9.60078
-9.59799
-9.60039
-9.60796
-9.6176
-9.62784
-9.63856
-9.64958
-9.66065
-9.67162
-9.68244
-9.69306
-9.70344
-9.71355
-9.72337
-9.73287
-9.74205
-9.75088
-9.75935
-9.76747
-9.77521
-9.78257
-9.78956
-9.79616
-9.80237
-9.8082
-9.81365
-9.81871
-9.82339
-9.82769
-9.8316
-9.83511
-9.60042
-9.59532
-9.58783
-9.58561
-9.5883
-9.59396
-9.60217
-9.61235
-9.62359
-9.63525
-9.64708
-9.65893
-9.67065
-9.68214
-9.69333
-9.70417
-9.71464
-9.72472
-9.73438
-9.74362
-9.75244
-9.76082
-9.76877
-9.77628
-9.78337
-9.79002
-9.79625
-9.80207
-9.80747
-9.81247
-9.81709
-9.82135
-9.82529
-9.60086
-9.58096
-9.5838
-9.60363
-9.62042
-9.63138
-9.64125
-9.6517
-9.66203
-9.67187
-9.68139
-9.69074
-9.69992
-9.70889
-9.71765
-9.72617
-9.73446
-9.74249
-9.75024
-9.7577
-9.76485
-9.77168
-9.77819
-9.78436
-9.79019
-9.79568
-9.80081
-9.8056
-9.81003
-9.81411
-9.81783
-9.82118
-9.82414
-9.63832
-9.51508
-9.45199
-9.45566
-9.47805
-9.4998
-9.52114
-9.5429
-9.56404
-9.58392
-9.60253
-9.61999
-9.63636
-9.6517
-9.6661
-9.67964
-9.69237
-9.70435
-9.71563
-9.72623
-9.73619
-9.74555
-9.75432
-9.76253
-9.77019
-9.77734
-9.78397
-9.79011
-9.79578
-9.801
-9.80577
-9.81013
-9.81409
-9.79822
-9.81138
-9.77007
-9.72791
-9.70394
-9.69342
-9.68892
-9.68698
-9.68711
-9.68931
-9.69314
-9.69805
-9.70366
-9.70979
-9.71626
-9.72295
-9.72973
-9.73651
-9.74324
-9.74984
-9.75628
-9.76251
-9.76851
-9.77425
-9.77972
-9.78489
-9.78976
-9.79432
-9.79856
-9.80248
-9.80608
-9.80936
-9.81231
-8.63397
-8.9343
-9.19933
-9.32527
-9.39025
-9.44635
-9.49588
-9.53423
-9.56393
-9.58883
-9.61066
-9.62994
-9.6471
-9.6626
-9.67678
-9.68987
-9.702
-9.71329
-9.72382
-9.73367
-9.74288
-9.75149
-9.75953
-9.76704
-9.77403
-9.78052
-9.78653
-9.79207
-9.79717
-9.80183
-9.80606
-9.80988
-9.81331
-10.2739
-10.1758
-10.2256
-10.2801
-10.3047
-10.32
-10.3311
-10.3358
-10.335
-10.3311
-10.3262
-10.3222
-10.321
-10.3238
-10.3319
-10.3459
-10.3661
-10.3923
-10.424
-10.4602
-10.4999
-10.5418
-10.5848
-10.6275
-10.6688
-10.7075
-10.7427
-10.7733
-10.7985
-10.8173
-10.8289
-10.8324
-10.8272
-10.8124
-10.7873
-10.7513
-10.7035
-10.6436
-10.5708
-10.4847
-10.385
-10.2714
-10.1436
-10.0016
-9.84534
-9.67488
-9.49044
-9.2923
-9.0809
-8.85679
-8.62064
-8.37326
-8.11556
-7.84857
-7.57343
-7.29135
-7.00363
-6.71159
-6.41663
-6.12012
-5.82347
-5.52803
-5.23512
-4.946
-4.66184
-4.38374
-4.11267
-3.8495
-3.59498
-3.34973
-3.11426
-2.88894
-2.67404
-2.46972
-2.27602
-2.09293
-1.92033
-1.75803
-1.60578
-1.46327
-1.33013
-1.20596
-1.09034
-0.982844
-0.883012
-0.790402
-0.704568
-0.625076
-0.551501
-0.483436
-0.420471
-0.362238
-0.308285
-0.25837
-0.211657
-0.168717
-0.126311
-0.0906505
-0.043511
-0.0296329
-10.2706
-10.2651
-10.2933
-10.3129
-10.3086
-10.2989
-10.2912
-10.2843
-10.2777
-10.2726
-10.2695
-10.2694
-10.2729
-10.2809
-10.2938
-10.3121
-10.3356
-10.3641
-10.397
-10.4336
-10.473
-10.5141
-10.5559
-10.5973
-10.6372
-10.6746
-10.7085
-10.7378
-10.7617
-10.7793
-10.7897
-10.7921
-10.7858
-10.77
-10.7441
-10.7072
-10.6589
-10.5984
-10.5253
-10.4391
-10.3395
-10.2262
-10.0989
-9.95758
-9.80224
-9.63295
-9.44989
-9.25338
-9.04382
-8.82178
-8.5879
-8.34298
-8.08791
-7.8237
-7.55146
-7.27238
-6.98771
-6.69876
-6.40688
-6.11342
-5.81975
-5.52718
-5.23702
-4.95048
-4.66873
-4.39283
-4.12375
-3.86235
-3.60937
-3.36543
-3.13103
-2.90656
-2.6923
-2.4884
-2.29494
-2.11191
-1.93921
-1.77667
-1.62405
-1.48104
-1.34732
-1.22249
-1.10614
-0.997858
-0.897204
-0.80374
-0.717031
-0.636649
-0.562175
-0.493204
-0.429328
-0.370179
-0.315301
-0.264457
-0.216779
-0.172924
-0.12938
-0.0931841
-0.0435687
-0.0330927
-10.2289
-10.235
-10.2402
-10.253
-10.2603
-10.2645
-10.2685
-10.271
-10.2706
-10.2684
-10.2656
-10.2636
-10.2639
-10.2678
-10.2764
-10.2904
-10.3101
-10.3353
-10.3657
-10.4005
-10.4387
-10.4791
-10.5204
-10.5614
-10.6008
-10.6376
-10.6705
-10.6988
-10.7216
-10.7379
-10.7471
-10.7484
-10.741
-10.7242
-10.6973
-10.6598
-10.6108
-10.55
-10.4766
-10.3905
-10.291
-10.1781
-10.0515
-9.91102
-9.7568
-9.58886
-9.4074
-9.21272
-9.00523
-8.78548
-8.5541
-8.31187
-8.05966
-7.79846
-7.52935
-7.25347
-6.97206
-6.68639
-6.39777
-6.10752
-5.81696
-5.52739
-5.24008
-4.95622
-4.67696
-4.40333
-4.1363
-3.87671
-3.62529
-3.38268
-3.14937
-2.92575
-2.71211
-2.50863
-2.3154
-2.1324
-1.95956
-1.79673
-1.64369
-1.50014
-1.36577
-1.24021
-1.12307
-1.01394
-0.912395
-0.818008
-0.730355
-0.649014
-0.573572
-0.503626
-0.438771
-0.37864
-0.322772
-0.270934
-0.222238
-0.177395
-0.132696
-0.0958095
-0.043921
-0.0362164
-10.2019
-10.2187
-10.2299
-10.2471
-10.2595
-10.2646
-10.2661
-10.2656
-10.2632
-10.26
-10.2575
-10.2568
-10.2588
-10.2644
-10.2742
-10.2884
-10.3072
-10.3304
-10.3577
-10.3885
-10.4221
-10.4576
-10.4941
-10.5305
-10.5659
-10.5991
-10.6293
-10.6553
-10.6762
-10.6911
-10.6992
-10.6994
-10.6912
-10.6736
-10.6462
-10.608
-10.5587
-10.4976
-10.4243
-10.3382
-10.2392
-10.1268
-10.001
-9.86166
-9.70875
-9.54237
-9.36272
-9.17009
-8.96489
-8.74763
-8.51897
-8.27963
-8.03048
-7.77248
-7.50666
-7.23416
-6.95616
-6.67391
-6.38867
-6.10175
-5.81443
-5.52797
-5.24361
-4.96253
-4.68584
-4.41457
-4.14967
-3.89196
-3.64218
-3.40096
-3.16879
-2.94607
-2.7331
-2.53007
-2.33707
-2.15412
-1.98115
-1.81802
-1.66453
-1.52042
-1.38538
-1.25905
-1.14107
-1.03104
-0.928547
-0.83318
-0.744522
-0.66216
-0.585685
-0.514701
-0.448804
-0.387626
-0.330706
-0.277811
-0.228039
-0.182138
-0.136262
-0.0985443
-0.0445791
-0.0389649
-10.1824
-10.2017
-10.2141
-10.2274
-10.2372
-10.2417
-10.2439
-10.2452
-10.2456
-10.2454
-10.2456
-10.247
-10.2505
-10.2567
-10.2664
-10.28
-10.2978
-10.3196
-10.3452
-10.3741
-10.4055
-10.4386
-10.4725
-10.5062
-10.5385
-10.5686
-10.5954
-10.6181
-10.6358
-10.6477
-10.6529
-10.6507
-10.6404
-10.6211
-10.5922
-10.5531
-10.5031
-10.4416
-10.3681
-10.2822
-10.1836
-10.072
-9.94713
-9.80899
-9.65754
-9.49288
-9.3152
-9.12477
-8.92201
-8.70741
-8.4816
-8.24531
-7.99936
-7.74469
-7.4823
-7.2133
-6.93885
-6.66014
-6.37843
-6.09496
-5.811
-5.52778
-5.24651
-4.96834
-4.69436
-4.42558
-4.16293
-3.90724
-3.65922
-3.41951
-3.18859
-2.96688
-2.75468
-2.55218
-2.35949
-2.17665
-2.00359
-1.84021
-1.68631
-1.54165
-1.40593
-1.27884
-1.16
-1.04904
-0.945572
-0.849185
-0.759477
-0.676045
-0.598486
-0.526408
-0.459411
-0.397128
-0.339098
-0.285086
-0.234184
-0.187158
-0.140083
-0.101392
-0.0455785
-0.0412672
-10.1647
-10.1841
-10.1977
-10.2102
-10.2205
-10.2271
-10.2313
-10.2341
-10.2357
-10.2365
-10.2375
-10.2395
-10.2434
-10.2498
-10.2593
-10.2724
-10.2891
-10.3093
-10.3329
-10.3594
-10.388
-10.4181
-10.4487
-10.479
-10.5081
-10.5351
-10.5589
-10.5788
-10.5939
-10.6033
-10.6062
-10.6019
-10.5896
-10.5686
-10.5382
-10.4977
-10.4466
-10.3843
-10.3104
-10.2243
-10.1258
-10.0147
-9.8906
-9.75354
-9.60347
-9.44048
-9.26474
-9.07654
-8.87624
-8.66435
-8.44147
-8.20829
-7.96563
-7.71438
-7.45554
-7.19015
-6.91936
-6.64433
-6.36627
-6.08639
-5.80594
-5.5261
-5.24806
-4.97294
-4.70182
-4.43568
-4.17544
-3.9219
-3.67578
-3.4377
-3.20817
-2.98759
-2.77627
-2.57441
-2.38214
-2.1995
-2.02645
-1.86288
-1.70864
-1.56348
-1.42714
-1.2993
-1.17963
-1.06776
-0.963306
-0.865889
-0.775111
-0.690581
-0.611902
-0.538691
-0.47055
-0.407114
-0.347924
-0.29274
-0.24066
-0.192447
-0.144155
-0.104353
-0.046945
-0.043062
-10.1489
-10.1676
-10.1819
-10.1942
-10.2045
-10.2118
-10.2167
-10.2202
-10.2227
-10.2247
-10.2268
-10.2298
-10.2345
-10.2414
-10.2509
-10.2635
-10.2792
-10.298
-10.3197
-10.3439
-10.3699
-10.3972
-10.4248
-10.4521
-10.478
-10.5018
-10.5225
-10.5394
-10.5515
-10.5581
-10.5585
-10.5517
-10.5373
-10.5143
-10.4822
-10.4404
-10.3882
-10.3251
-10.2507
-10.1644
-10.0661
-9.9553
-9.83195
-9.69592
-9.54719
-9.38583
-9.21202
-9.02601
-8.82819
-8.61902
-8.39908
-8.16907
-7.92975
-7.68199
-7.42677
-7.16509
-6.89806
-6.62681
-6.35251
-6.07635
-5.79951
-5.52318
-5.24849
-4.97655
-4.70839
-4.445
-4.18726
-3.93597
-3.69185
-3.4555
-3.22744
-3.00806
-2.7977
-2.59655
-2.40477
-2.2224
-2.04942
-1.88574
-1.7312
-1.58561
-1.44869
-1.32016
-1.1997
-1.08694
-0.981535
-0.883103
-0.791263
-0.70563
-0.625822
-0.551456
-0.482144
-0.417522
-0.357134
-0.300737
-0.247438
-0.197983
-0.148458
-0.107421
-0.0486845
-0.0443146
-10.134
-10.1519
-10.1663
-10.1785
-10.1888
-10.1966
-10.2024
-10.2068
-10.2102
-10.2132
-10.2163
-10.2202
-10.2254
-10.2324
-10.2418
-10.2538
-10.2685
-10.2859
-10.3057
-10.3277
-10.3513
-10.3758
-10.4006
-10.4248
-10.4477
-10.4684
-10.4861
-10.5
-10.5092
-10.5131
-10.5109
-10.5018
-10.4851
-10.4602
-10.4263
-10.383
-10.3296
-10.2656
-10.1905
-10.1039
-10.0056
-9.89515
-9.77246
-9.6374
-9.48996
-9.33021
-9.1583
-8.97449
-8.77915
-8.57272
-8.35576
-8.12895
-7.89302
-7.64882
-7.39727
-7.13937
-6.87616
-6.60876
-6.33829
-6.0659
-5.79275
-5.51998
-5.2487
-4.97998
-4.71484
-4.45424
-4.19904
-3.95004
-3.70794
-3.47334
-3.24677
-3.02862
-2.81922
-2.61881
-2.42753
-2.24544
-2.07254
-1.90876
-1.75396
-1.60794
-1.47047
-1.34127
-1.22003
-1.10641
-1.00007
-0.900643
-0.807755
-0.721032
-0.640097
-0.564577
-0.494085
-0.428262
-0.366654
-0.309017
-0.254469
-0.203732
-0.152963
-0.110585
-0.0507779
-0.0450258
-10.1198
-10.1368
-10.1511
-10.1632
-10.1735
-10.1818
-10.1882
-10.1933
-10.1976
-10.2014
-10.2052
-10.2097
-10.2153
-10.2225
-10.2316
-10.243
-10.2567
-10.2727
-10.2909
-10.3107
-10.3319
-10.3538
-10.3758
-10.3971
-10.417
-10.4348
-10.4495
-10.4605
-10.467
-10.4683
-10.4635
-10.4521
-10.4332
-10.4064
-10.3708
-10.3261
-10.2715
-10.2065
-10.1308
-10.044
-9.94561
-9.83549
-9.71343
-9.57934
-9.43317
-9.275
-9.10499
-8.92338
-8.7305
-8.52681
-8.31284
-8.08923
-7.85669
-7.61605
-7.36818
-7.11405
-6.85468
-6.59113
-6.32449
-6.05587
-5.7864
-5.51719
-5.2493
-4.9838
-4.72167
-4.46384
-4.21118
-3.96445
-3.72437
-3.49153
-3.26643
-3.04951
-2.84108
-2.6414
-2.45061
-2.2688
-2.09598
-1.93208
-1.777
-1.63055
-1.49252
-1.36264
-1.24061
-1.12613
-1.01885
-0.918426
-0.824488
-0.736674
-0.654613
-0.577936
-0.506262
-0.43923
-0.376394
-0.3175
-0.261688
-0.209641
-0.157624
-0.113822
-0.0531754
-0.0452379
-10.106
-10.1223
-10.1363
-10.1482
-10.1585
-10.1671
-10.174
-10.1797
-10.1847
-10.1892
-10.1937
-10.1986
-10.2045
-10.2117
-10.2206
-10.2314
-10.2441
-10.2587
-10.2751
-10.293
-10.3118
-10.3312
-10.3505
-10.369
-10.3861
-10.4009
-10.4128
-10.421
-10.4248
-10.4235
-10.4163
-10.4026
-10.3817
-10.353
-10.3158
-10.2696
-10.2138
-10.1481
-10.0718
-9.98465
-9.88632
-9.77654
-9.65515
-9.52202
-9.37714
-9.22058
-9.05246
-8.87304
-8.68263
-8.48167
-8.27067
-8.05024
-7.82107
-7.58395
-7.33974
-7.08936
-6.83378
-6.57404
-6.3112
-6.04632
-5.7805
-5.51481
-5.2503
-4.98799
-4.72884
-4.47378
-4.22363
-3.97918
-3.74111
-3.51001
-3.2864
-3.0707
-2.86324
-2.66428
-2.47399
-2.29247
-2.11972
-1.95572
-1.80036
-1.65348
-1.51487
-1.3843
-1.26149
-1.14613
-1.0379
-0.936458
-0.841455
-0.752535
-0.669332
-0.591485
-0.518614
-0.450361
-0.386283
-0.32612
-0.26903
-0.215653
-0.162387
-0.117102
-0.0557967
-0.0450349
-10.0927
-10.1082
-10.1218
-10.1336
-10.1438
-10.1526
-10.1599
-10.1661
-10.1716
-10.1766
-10.1816
-10.1869
-10.193
-10.2002
-10.2087
-10.2188
-10.2305
-10.2438
-10.2585
-10.2744
-10.2911
-10.3081
-10.3248
-10.3406
-10.3549
-10.3669
-10.376
-10.3815
-10.3827
-10.3788
-10.3693
-10.3534
-10.3304
-10.2999
-10.2611
-10.2136
-10.1567
-10.0901
-10.0133
-9.92592
-9.82764
-9.71823
-9.59751
-9.46538
-9.3218
-9.16683
-9.00061
-8.82337
-8.63542
-8.43717
-8.22911
-8.01183
-7.78601
-7.55239
-7.31179
-7.06511
-6.8133
-6.55734
-6.29825
-6.03708
-5.77487
-5.51268
-5.25151
-4.99237
-4.73619
-4.48387
-4.23624
-3.99404
-3.75798
-3.52862
-3.3065
-3.09203
-2.88555
-2.68734
-2.49756
-2.31632
-2.14367
-1.97957
-1.82394
-1.67663
-1.53747
-1.40622
-1.28262
-1.16638
-1.05719
-0.954731
-0.858654
-0.768614
-0.684255
-0.60522
-0.531135
-0.461642
-0.396302
-0.33485
-0.276465
-0.221738
-0.16722
-0.120401
-0.0585497
-0.0445392
-10.0797
-10.0944
-10.1076
-10.1192
-10.1294
-10.1383
-10.1459
-10.1525
-10.1583
-10.1638
-10.1691
-10.1747
-10.1809
-10.1879
-10.196
-10.2054
-10.2161
-10.2281
-10.2412
-10.2552
-10.2698
-10.2844
-10.2986
-10.3118
-10.3234
-10.3328
-10.3392
-10.342
-10.3407
-10.3343
-10.3225
-10.3044
-10.2795
-10.2472
-10.2068
-10.158
-10.1001
-10.0327
-9.95534
-9.86773
-9.76953
-9.6605
-9.54047
-9.40932
-9.26703
-9.11366
-8.94933
-8.77426
-8.58874
-8.39318
-8.18804
-7.97389
-7.75137
-7.5212
-7.28418
-7.04117
-6.79308
-6.54085
-6.28548
-6.02798
-5.76936
-5.51063
-5.25278
-4.99678
-4.74355
-4.49397
-4.24884
-4.00891
-3.77484
-3.54724
-3.32661
-3.11338
-2.90789
-2.71043
-2.52117
-2.34024
-2.16769
-2.00351
-1.84763
-1.69992
-1.56021
-1.42828
-1.30391
-1.1868
-1.07666
-0.973184
-0.876034
-0.784873
-0.699353
-0.619122
-0.543811
-0.473065
-0.406449
-0.343691
-0.283995
-0.227896
-0.172118
-0.123723
-0.0613617
-0.0439005
-10.067
-10.0811
-10.0938
-10.1051
-10.1152
-10.1241
-10.1319
-10.1387
-10.1449
-10.1506
-10.1562
-10.1619
-10.1681
-10.1749
-10.1826
-10.1912
-10.2009
-10.2116
-10.2232
-10.2354
-10.2478
-10.2602
-10.272
-10.2827
-10.2917
-10.2985
-10.3023
-10.3026
-10.2987
-10.29
-10.2759
-10.2557
-10.2289
-10.1948
-10.153
-10.1028
-10.0439
-9.97574
-9.89792
-9.8101
-9.71199
-9.60334
-9.48399
-9.35383
-9.21283
-9.06104
-8.89858
-8.72565
-8.54255
-8.34964
-8.14738
-7.93632
-7.71707
-7.49032
-7.25684
-7.01745
-6.77303
-6.5245
-6.27282
-6.01895
-5.76387
-5.50858
-5.25403
-5.00116
-4.75086
-4.504
-4.26136
-4.02368
-3.79163
-3.56578
-3.34664
-3.13466
-2.93018
-2.73348
-2.54476
-2.36415
-2.19172
-2.02748
-1.87135
-1.72325
-1.583
-1.45042
-1.32528
-1.20731
-1.09623
-0.991745
-0.893527
-0.801248
-0.714569
-0.633142
-0.556602
-0.484597
-0.416698
-0.352626
-0.291609
-0.234126
-0.17708
-0.127084
-0.0641847
-0.0432636
-10.0546
-10.068
-10.0802
-10.0912
-10.1012
-10.11
-10.1179
-10.1249
-10.1313
-10.1372
-10.1429
-10.1487
-10.1547
-10.1612
-10.1684
-10.1763
-10.185
-10.1945
-10.2045
-10.2149
-10.2254
-10.2356
-10.2451
-10.2534
-10.2599
-10.2641
-10.2654
-10.2632
-10.2569
-10.2459
-10.2296
-10.2074
-10.1787
-10.1429
-10.0996
-10.0482
-9.9883
-9.91938
-9.84108
-9.75306
-9.65504
-9.54678
-9.42811
-9.29893
-9.1592
-9.00897
-8.84835
-8.67755
-8.49682
-8.30653
-8.10713
-7.89911
-7.68308
-7.45971
-7.22972
-6.99391
-6.75313
-6.50825
-6.26021
-6.00993
-5.75838
-5.50649
-5.25521
-5.00544
-4.75806
-4.5139
-4.27375
-4.03833
-3.80828
-3.58418
-3.36656
-3.15583
-2.95236
-2.75644
-2.56827
-2.388
-2.2157
-2.0514
-1.89506
-1.74657
-1.6058
-1.47258
-1.34668
-1.22786
-1.11585
-1.01036
-0.911077
-0.817685
-0.729848
-0.647226
-0.569458
-0.496193
-0.42701
-0.361619
-0.299278
-0.240406
-0.182089
-0.13048
-0.066978
-0.0427315
-10.0424
-10.0551
-10.0669
-10.0776
-10.0873
-10.0961
-10.104
-10.111
-10.1175
-10.1235
-10.1293
-10.135
-10.1408
-10.147
-10.1536
-10.1608
-10.1685
-10.1766
-10.1852
-10.1939
-10.2025
-10.2106
-10.2178
-10.2238
-10.2279
-10.2297
-10.2286
-10.224
-10.2154
-10.2021
-10.1837
-10.1594
-10.1289
-10.0915
-10.0468
-9.99418
-9.93326
-9.86361
-9.78485
-9.69665
-9.59872
-9.49084
-9.37285
-9.24463
-9.10616
-8.95747
-8.79868
-8.62996
-8.45158
-8.26388
-8.06727
-7.86226
-7.64941
-7.42937
-7.20282
-6.97055
-6.73335
-6.49208
-6.24764
-6.00092
-5.75284
-5.50433
-5.25628
-5.0096
-4.76512
-4.52366
-4.28598
-4.0528
-3.82475
-3.60242
-3.3863
-3.17684
-2.9744
-2.77926
-2.59166
-2.41174
-2.23959
-2.07525
-1.9187
-1.76984
-1.62857
-1.49471
-1.36807
-1.24841
-1.13547
-1.02898
-0.928644
-0.834142
-0.745151
-0.661334
-0.582338
-0.507814
-0.437344
-0.370635
-0.306969
-0.246706
-0.187113
-0.133897
-0.069702
-0.0423542
-10.0303
-10.0425
-10.0538
-10.0642
-10.0736
-10.0823
-10.09
-10.0971
-10.1036
-10.1096
-10.1153
-10.1209
-10.1265
-10.1322
-10.1383
-10.1446
-10.1513
-10.1582
-10.1653
-10.1724
-10.1791
-10.1852
-10.1903
-10.1941
-10.1959
-10.1953
-10.1918
-10.1849
-10.174
-10.1586
-10.1381
-10.1119
-10.0796
-10.0407
-9.9945
-9.94072
-9.87885
-9.8085
-9.72929
-9.64091
-9.54308
-9.43558
-9.31825
-9.19099
-9.05376
-8.90659
-8.74958
-8.58292
-8.40685
-8.22169
-8.02785
-7.82579
-7.61607
-7.3993
-7.17615
-6.94736
-6.7137
-6.47599
-6.2351
-5.99189
-5.74726
-5.50208
-5.25725
-5.01361
-4.77201
-4.53323
-4.29802
-4.06707
-3.84103
-3.62045
-3.40585
-3.19767
-2.99626
-2.80192
-2.61489
-2.43534
-2.26336
-2.099
-1.94224
-1.79304
-1.65127
-1.51679
-1.38941
-1.26892
-1.15507
-1.04759
-0.9462
-0.850592
-0.760448
-0.675439
-0.595216
-0.519432
-0.447675
-0.379646
-0.314654
-0.253002
-0.192126
-0.137315
-0.0723275
-0.0421443
-10.0184
-10.0301
-10.0409
-10.0509
-10.0601
-10.0685
-10.0762
-10.0831
-10.0895
-10.0954
-10.101
-10.1064
-10.1117
-10.117
-10.1224
-10.1279
-10.1336
-10.1393
-10.145
-10.1504
-10.1554
-10.1596
-10.1626
-10.1642
-10.1638
-10.1609
-10.1552
-10.1461
-10.133
-10.1154
-10.0929
-10.0649
-10.0309
-9.99036
-9.94285
-9.88792
-9.82513
-9.75409
-9.67445
-9.5859
-9.48817
-9.38105
-9.26437
-9.13805
-9.00203
-8.85636
-8.70111
-8.53647
-8.36266
-8.18
-7.98887
-7.78973
-7.58308
-7.36954
-7.14972
-6.92436
-6.69418
-6.45999
-6.2226
-5.98285
-5.74162
-5.49974
-5.25808
-5.01747
-4.77872
-4.5426
-4.30984
-4.08112
-3.85707
-3.63826
-3.42518
-3.21827
-3.0179
-2.82438
-2.63794
-2.45876
-2.28696
-2.12259
-1.96566
-1.81612
-1.67387
-1.53878
-1.41068
-1.28937
-1.17461
-1.06615
-0.963717
-0.867008
-0.775717
-0.689519
-0.60807
-0.531027
-0.457984
-0.388636
-0.322316
-0.259277
-0.197108
-0.140723
-0.0748425
-0.0420948
-10.0067
-10.0178
-10.0282
-10.0378
-10.0467
-10.0549
-10.0623
-10.0691
-10.0754
-10.0811
-10.0865
-10.0916
-10.0965
-10.1012
-10.106
-10.1107
-10.1154
-10.1199
-10.1242
-10.1281
-10.1313
-10.1337
-10.1348
-10.1342
-10.1317
-10.1267
-10.1188
-10.1075
-10.0923
-10.0727
-10.0483
-10.0184
-9.98273
-9.9407
-9.89188
-9.83583
-9.77215
-9.70045
-9.62039
-9.53168
-9.43405
-9.3273
-9.21127
-9.08587
-8.95105
-8.80683
-8.65331
-8.49065
-8.31907
-8.13886
-7.9504
-7.7541
-7.55048
-7.3401
-7.12357
-6.90157
-6.67482
-6.44408
-6.21014
-5.97381
-5.73592
-5.49731
-5.25879
-5.02117
-4.78524
-4.55175
-4.32143
-4.09493
-3.87286
-3.6558
-3.44424
-3.23861
-3.0393
-2.84659
-2.66076
-2.48197
-2.31037
-2.146
-1.98891
-1.83904
-1.69633
-1.56065
-1.43184
-1.30972
-1.19407
-1.08464
-0.981169
-0.883367
-0.790933
-0.703551
-0.62088
-0.542581
-0.468253
-0.397588
-0.329942
-0.265519
-0.20205
-0.144112
-0.0772488
-0.042189
-9.99517
-10.0057
-10.0156
-10.0249
-10.0334
-10.0413
-10.0485
-10.0551
-10.0611
-10.0666
-10.0717
-10.0765
-10.0809
-10.0852
-10.0892
-10.0931
-10.0967
-10.1001
-10.1031
-10.1055
-10.107
-10.1076
-10.1068
-10.1043
-10.0997
-10.0926
-10.0826
-10.0692
-10.052
-10.0304
-10.0041
-9.97253
-9.93523
-9.89175
-9.84166
-9.78453
-9.71998
-9.64764
-9.56718
-9.47832
-9.38079
-9.27441
-9.15901
-9.03451
-8.90086
-8.75807
-8.60625
-8.44552
-8.27612
-8.09831
-7.91246
-7.71896
-7.5183
-7.31102
-7.09771
-6.87902
-6.65563
-6.42829
-6.19774
-5.96477
-5.73019
-5.49478
-5.25935
-5.02469
-4.79155
-4.56068
-4.33276
-4.10846
-3.88838
-3.67306
-3.46302
-3.25868
-3.06041
-2.86854
-2.68332
-2.50494
-2.33353
-2.1692
-2.01195
-1.86178
-1.71862
-1.58236
-1.45286
-1.32995
-1.21341
-1.10302
-0.998525
-0.89964
-0.806072
-0.717512
-0.633625
-0.554074
-0.478467
-0.406489
-0.33752
-0.271719
-0.206943
-0.147477
-0.0795556
-0.0424046
-9.98375
-9.99379
-10.0032
-10.0121
-10.0202
-10.0278
-10.0347
-10.041
-10.0468
-10.052
-10.0568
-10.0611
-10.0651
-10.0688
-10.0721
-10.0751
-10.0778
-10.08
-10.0816
-10.0826
-10.0826
-10.0814