/*--------------------------------*- C++ -*----------------------------------*\
| =========                 |                                                 |
| \\      /  F ield         | OpenFOAM: The Open Source CFD Toolbox           |
|  \\    /   O peration     | Version:  4.1                                   |
|   \\  /    A nd           | Web:      www.OpenFOAM.org                      |
|    \\/     M anipulation  |                                                 |
\*---------------------------------------------------------------------------*/
FoamFile
{
    version     2.0;
    format      ascii;
    class       volScalarField;
    location    "1500";
    object      p;
}
// * * * * * * * * * * * * * * * * * * * * * * * * * * * * * * * * * * * * * //

dimensions      [0 2 -2 0 0 0 0];

internalField   nonuniform List<scalar> 
26785
(
-1114.32
-1108.14
-1104.85
-1102.96
-1101.76
-1101.22
-1097.87
-1098.21
-1102.17
-1106.14
-1107.08
-1104.68
-1099.52
-1092.64
-1086.64
-1083.29
-1082.42
-1083.1
-1085.3
-1089.3
-1095.19
-1102.74
-1111.8
-1122.38
-1134.76
-1149.48
-1167.17
-1188.5
-1214.79
-1247.8
-1288.48
-1336.57
-1391.36
-1452.29
-1519.14
-1592.09
-1671.72
-1758.77
-1853.94
-1957.42
-2068.56
-2185.5
-2305.03
-2422.69
-2533.11
-2630.81
-2711.27
-2772.27
-2816.86
-2848.41
-2868.36
-2879.38
-2884.26
-2884.76
-2881.76
-2875.39
-2865.42
-2851.78
-2835.2
-2817.36
-2799.86
-2782.54
-2763.94
-2742.9
-2719.52
-2695.22
-2672.51
-2650.59
-2628.83
-2606.71
-2577.39
-2543.85
-2513.99
-2482.18
-2441.1
-2393.76
-2346.06
-2291.58
-2228.45
-2160.29
-2075.77
-1974.49
-1864.06
-1754.12
-1653.95
-1568.14
-1490.08
-1416.41
-1351.1
-1277.06
-1189.5
-1095.06
-996.778
-896.241
-794.04
-690.297
-581.037
-451.612
-279.481
-108.186
-1114.3
-1108.13
-1104.85
-1102.96
-1101.76
-1101.26
-1097.85
-1098.19
-1102.16
-1106.16
-1107.13
-1104.74
-1099.55
-1092.63
-1086.6
-1083.25
-1082.38
-1083.08
-1085.28
-1089.29
-1095.19
-1102.75
-1111.8
-1122.38
-1134.74
-1149.45
-1167.12
-1188.43
-1214.7
-1247.71
-1288.41
-1336.51
-1391.3
-1452.2
-1519.01
-1591.92
-1671.49
-1758.52
-1853.69
-1957.22
-2068.46
-2185.55
-2305.27
-2423.15
-2533.79
-2631.67
-2712.2
-2773.03
-2817.49
-2849.01
-2868.88
-2879.84
-2884.7
-2885.22
-2882.27
-2876
-2866.11
-2852.51
-2835.87
-2817.93
-2800.4
-2783.11
-2764.54
-2743.45
-2719.9
-2695.32
-2672.56
-2650.59
-2629.1
-2607.41
-2577.34
-2543.68
-2514.94
-2483.12
-2441.39
-2393.86
-2346.47
-2291.96
-2228.73
-2161.28
-2077.25
-1976.3
-1865.66
-1755.2
-1654.59
-1568.38
-1489.52
-1416.2
-1352.07
-1277.53
-1189.18
-1094.48
-996.289
-896.091
-794.432
-691.723
-584.978
-457.178
-284.933
-109.968
-1114.29
-1108.13
-1104.86
-1102.97
-1101.78
-1101.34
-1097.83
-1098.16
-1102.14
-1106.2
-1107.24
-1104.85
-1099.62
-1092.6
-1086.51
-1083.14
-1082.29
-1083
-1085.22
-1089.26
-1095.19
-1102.75
-1111.79
-1122.35
-1134.69
-1149.38
-1167.03
-1188.28
-1214.5
-1247.51
-1288.23
-1336.35
-1391.12
-1451.96
-1518.67
-1591.48
-1670.98
-1757.96
-1853.14
-1956.78
-2068.22
-2185.61
-2305.72
-2424.02
-2535.07
-2633.27
-2713.9
-2774.4
-2818.58
-2850.02
-2869.76
-2880.62
-2885.46
-2886.04
-2883.22
-2877.12
-2867.41
-2853.88
-2837.16
-2819.05
-2801.48
-2784.29
-2765.8
-2744.65
-2720.76
-2695.65
-2672.74
-2650.54
-2629.75
-2608.71
-2576.97
-2541.78
-2514.97
-2484.42
-2442.92
-2395.7
-2348.14
-2293.02
-2229.56
-2163.68
-2081.06
-1980.61
-1869.11
-1757.57
-1655.98
-1568.8
-1488.68
-1416.36
-1354.08
-1278.17
-1188.47
-1093.44
-995.539
-896.038
-795.449
-694.788
-592.964
-468.43
-296.145
-113.1
-1114.3
-1108.1
-1104.86
-1102.97
-1101.81
-1101.48
-1097.83
-1098.11
-1102.12
-1106.31
-1107.43
-1105.04
-1099.72
-1092.56
-1086.36
-1082.97
-1082.14
-1082.88
-1085.14
-1089.22
-1095.17
-1102.73
-1111.76
-1122.3
-1134.61
-1149.27
-1166.88
-1188.06
-1214.2
-1247.2
-1287.94
-1336.06
-1390.78
-1451.52
-1518.11
-1590.78
-1670.15
-1757.06
-1852.27
-1956.06
-2067.8
-2185.64
-2306.31
-2425.25
-2536.92
-2635.6
-2716.39
-2776.42
-2820.22
-2851.51
-2871.01
-2881.7
-2886.5
-2887.17
-2884.54
-2878.69
-2869.22
-2855.83
-2839.01
-2820.69
-2803.09
-2786.08
-2767.76
-2746.55
-2722.21
-2696.3
-2672.98
-2650.41
-2631.7
-2612.58
-2577.51
-2540.04
-2513.86
-2484.36
-2443.65
-2397.78
-2350.35
-2294.41
-2231.01
-2167.57
-2086.75
-1986.07
-1872.98
-1760.74
-1658.09
-1569.64
-1487.9
-1416.79
-1356.58
-1278.56
-1187.3
-1092.09
-994.702
-896.139
-796.899
-699.047
-604.038
-483.42
-310.43
-116.483
-1114.32
-1108.09
-1104.88
-1102.98
-1101.85
-1101.67
-1097.89
-1098.04
-1102.15
-1106.51
-1107.7
-1105.29
-1099.85
-1092.5
-1086.18
-1082.75
-1081.93
-1082.72
-1085.02
-1089.15
-1095.14
-1102.71
-1111.72
-1122.23
-1134.5
-1149.13
-1166.69
-1187.77
-1213.82
-1246.77
-1287.52
-1335.62
-1390.27
-1450.88
-1517.3
-1589.78
-1669
-1755.83
-1851.08
-1955.07
-2067.2
-2185.62
-2307.04
-2426.82
-2539.32
-2638.63
-2719.66
-2779.14
-2822.49
-2853.57
-2872.75
-2883.21
-2887.95
-2888.69
-2886.28
-2880.74
-2871.59
-2858.37
-2841.41
-2822.82
-2805.23
-2788.49
-2770.44
-2749.24
-2724.38
-2697.52
-2673.55
-2650.34
-2631.24
-2614.43
-2581.33
-2545.32
-2518.54
-2487.34
-2444.33
-2396.73
-2350.61
-2295.35
-2232.86
-2172.13
-2093.64
-1991.9
-1876.2
-1764.22
-1660.61
-1570.72
-1487.43
-1417.52
-1358.94
-1278.25
-1185.68
-1090.59
-993.905
-896.296
-798.314
-703.699
-617.363
-501.42
-325.728
-119.467
-1114.3
-1108.07
-1104.9
-1103.01
-1101.92
-1101.93
-1098.06
-1097.96
-1102.26
-1106.82
-1108.07
-1105.6
-1100.01
-1092.44
-1085.96
-1082.47
-1081.68
-1082.52
-1084.87
-1089.06
-1095.1
-1102.66
-1111.66
-1122.14
-1134.36
-1148.94
-1166.45
-1187.43
-1213.36
-1246.25
-1286.98
-1335.04
-1389.58
-1450.02
-1516.23
-1588.5
-1667.55
-1754.29
-1849.59
-1953.82
-2066.43
-2185.57
-2307.9
-2428.7
-2542.21
-2642.31
-2723.63
-2782.49
-2825.35
-2856.21
-2875
-2885.18
-2889.84
-2890.68
-2888.53
-2883.37
-2874.61
-2861.58
-2844.45
-2825.5
-2807.92
-2791.54
-2773.88
-2752.81
-2727.46
-2699.26
-2674.76
-2652.79
-2633.29
-2615.66
-2584.89
-2550.1
-2521.79
-2490.01
-2447.72
-2398.62
-2350.36
-2295.95
-2236.58
-2178.47
-2101.01
-1996.74
-1877.77
-1767.77
-1663.9
-1572.11
-1488.42
-1419.42
-1360.44
-1277.02
-1183.88
-1089.33
-993.478
-896.721
-799.55
-707.568
-629.189
-519.755
-340.16
-121.504
-1114.24
-1108.06
-1104.93
-1103.04
-1102.01
-1102.28
-1098.3
-1097.93
-1102.5
-1107.25
-1108.52
-1105.97
-1100.2
-1092.37
-1085.7
-1082.15
-1081.38
-1082.29
-1084.7
-1088.95
-1095.02
-1102.58
-1111.56
-1122.01
-1134.17
-1148.72
-1166.17
-1187.04
-1212.84
-1245.64
-1286.31
-1334.3
-1388.7
-1448.93
-1514.89
-1586.93
-1665.79
-1752.44
-1847.82
-1952.35
-2065.51
-2185.48
-2308.86
-2430.85
-2545.52
-2646.53
-2728.2
-2786.39
-2828.72
-2859.31
-2877.64
-2887.53
-2892.12
-2893.1
-2891.29
-2886.63
-2878.38
-2865.63
-2848.24
-2828.8
-2811.2
-2795.27
-2778.13
-2757.39
-2731.94
-2703.26
-2677.73
-2655.7
-2636.22
-2618.12
-2589.98
-2556.16
-2526.83
-2492.32
-2449.82
-2401.28
-2352.85
-2297.83
-2242.92
-2188.49
-2112.42
-2002.09
-1878.03
-1770.97
-1666.82
-1573.39
-1489.48
-1418.19
-1357.57
-1273.99
-1181.98
-1088.55
-993.74
-898.089
-802.005
-714.201
-643.672
-535.393
-350.995
-124.398
-1114.19
-1108.05
-1104.96
-1103.1
-1102.12
-1102.71
-1098.58
-1098.1
-1102.94
-1107.8
-1109.05
-1106.41
-1100.42
-1092.29
-1085.42
-1081.79
-1081.04
-1082.03
-1084.51
-1088.82
-1094.93
-1102.47
-1111.44
-1121.84
-1133.95
-1148.45
-1165.85
-1186.59
-1212.23
-1244.92
-1285.52
-1333.39
-1387.61
-1447.6
-1513.28
-1585.07
-1663.73
-1750.31
-1845.78
-1950.66
-2064.46
-2185.34
-2309.9
-2433.23
-2549.21
-2651.26
-2733.34
-2790.82
-2832.57
-2862.83
-2880.63
-2890.19
-2894.72
-2895.88
-2894.49
-2890.46
-2882.91
-2870.59
-2852.93
-2832.83
-2815.16
-2799.74
-2783.27
-2763.11
-2738
-2709.2
-2683.21
-2659.81
-2639.66
-2621.22
-2594.38
-2561.71
-2532.72
-2497.32
-2453.25
-2403.84
-2354.48
-2299.41
-2244.92
-2184
-2111.91
-2003.77
-1877.12
-1774.85
-1673.87
-1576.76
-1487.01
-1409.15
-1349.33
-1269.76
-1180.31
-1088.12
-994.205
-899.732
-805.705
-725.862
-670.408
-558.272
-358.147
-124.066
-1114.15
-1108.05
-1105.01
-1103.2
-1102.27
-1103.23
-1098.82
-1098.54
-1103.59
-1108.46
-1109.66
-1106.9
-1100.66
-1092.22
-1085.11
-1081.39
-1080.66
-1081.75
-1084.28
-1088.66
-1094.8
-1102.33
-1111.27
-1121.63
-1133.68
-1148.15
-1165.48
-1186.08
-1211.54
-1244.09
-1284.57
-1332.3
-1386.3
-1446
-1511.4
-1582.91
-1661.38
-1747.89
-1843.51
-1948.78
-2063.28
-2185.19
-2311.04
-2435.84
-2553.29
-2656.51
-2739.08
-2795.84
-2836.94
-2866.81
-2883.98
-2893.16
-2897.59
-2898.92
-2898.01
-2894.75
-2888.13
-2876.48
-2858.61
-2837.69
-2819.88
-2805.02
-2789.34
-2769.99
-2745.55
-2716.87
-2690.03
-2664.7
-2642.91
-2625.21
-2599.31
-2567.14
-2538.46
-2503.01
-2458.59
-2408.49
-2357.9
-2302.37
-2246.83
-2180.38
-2103.35
-1999.06
-1873.86
-1770.37
-1673.71
-1581.92
-1492.13
-1412.19
-1348.45
-1268.39
-1179.62
-1088.03
-994.675
-900.811
-808.01
-728.963
-671.84
-566.19
-378.796
-131.62
-1114.12
-1108.05
-1105.07
-1103.34
-1102.48
-1103.84
-1098.88
-1099.1
-1104.39
-1109.22
-1110.36
-1107.45
-1100.94
-1092.15
-1084.77
-1080.95
-1080.23
-1081.43
-1084.03
-1088.47
-1094.64
-1102.16
-1111.06
-1121.38
-1133.38
-1147.8
-1165.06
-1185.48
-1210.75
-1243.14
-1283.48
-1331.01
-1384.75
-1444.16
-1509.23
-1580.47
-1658.75
-1745.23
-1841.01
-1946.73
-2062.01
-2185.02
-2312.29
-2438.72
-2557.79
-2662.31
-2745.46
-2801.54
-2841.96
-2871.34
-2887.77
-2896.48
-2900.75
-2902.21
-2901.76
-2899.34
-2893.86
-2883.19
-2865.26
-2843.43
-2825.4
-2811.13
-2796.34
-2778
-2754.47
-2726.06
-2697.95
-2670.69
-2646.68
-2630.78
-2605.55
-2573.28
-2544.36
-2508.93
-2464.68
-2414.43
-2362.55
-2306.49
-2248.5
-2181.38
-2100.28
-1998.72
-1879.03
-1775.07
-1680.96
-1589.95
-1499.4
-1418.36
-1349.93
-1268.92
-1180.26
-1088.78
-995.551
-901.75
-809.396
-727.972
-654.814
-544.214
-371.905
-132.483
-1114.07
-1108.08
-1105.16
-1103.54
-1102.74
-1104.57
-1098.83
-1099.62
-1105.28
-1110.07
-1111.13
-1108.07
-1101.25
-1092.09
-1084.42
-1080.48
-1079.77
-1081.1
-1083.74
-1088.25
-1094.45
-1101.94
-1110.82
-1121.09
-1133.05
-1147.41
-1164.57
-1184.81
-1209.85
-1242.07
-1282.24
-1329.55
-1382.99
-1442.05
-1506.8
-1577.75
-1655.85
-1742.31
-1838.31
-1944.53
-2060.65
-2184.87
-2313.68
-2441.87
-2562.73
-2668.68
-2752.5
-2807.99
-2847.68
-2876.49
-2892.08
-2900.27
-2904.29
-2905.8
-2905.76
-2904.16
-2899.94
-2890.54
-2872.81
-2850.05
-2831.76
-2818.1
-2804.22
-2787.03
-2764.54
-2736.43
-2707.07
-2678.25
-2652.23
-2636.97
-2612.58
-2580.12
-2550.92
-2515.36
-2471.36
-2421.19
-2368.34
-2311.64
-2250.22
-2181.97
-2099.54
-1998.19
-1882.74
-1781.03
-1689.34
-1599.24
-1507.4
-1425.38
-1352.23
-1270
-1181.06
-1089.39
-996.044
-902.047
-809.587
-725.711
-644.571
-528.431
-360.687
-129.129
-1113.96
-1108.11
-1105.29
-1103.8
-1103.02
-1105.49
-1098.8
-1100.07
-1106.22
-1110.99
-1111.98
-1108.75
-1101.59
-1092.04
-1084.04
-1079.98
-1079.27
-1080.74
-1083.43
-1088
-1094.22
-1101.68
-1110.54
-1120.78
-1132.68
-1146.97
-1164.01
-1184.04
-1208.87
-1240.91
-1280.87
-1327.9
-1381.01
-1439.71
-1504.1
-1574.76
-1652.69
-1739.16
-1835.41
-1942.18
-2059.21
-2184.73
-2315.21
-2445.31
-2568.1
-2675.64
-2760.21
-2815.23
-2854.17
-2882.28
-2896.96
-2904.58
-2908.3
-2909.77
-2910.06
-2909.21
-2906.27
-2898.39
-2881.14
-2857.53
-2838.97
-2825.89
-2812.92
-2796.99
-2775.69
-2747.86
-2717.35
-2687.01
-2658.36
-2642.3
-2620.15
-2587.48
-2558.06
-2522.44
-2478.76
-2428.8
-2375.28
-2317.72
-2252.53
-2181.85
-2099.92
-1998.2
-1886.05
-1788.26
-1698.64
-1609.09
-1516.89
-1433.32
-1355.74
-1271.86
-1182.27
-1090.17
-996.583
-902.33
-809.08
-719.916
-631.14
-514.607
-350.629
-124.816
-1113.86
-1108.16
-1105.45
-1104.11
-1103.31
-1106.62
-1098.91
-1100.59
-1107.23
-1112
-1112.92
-1109.5
-1101.96
-1092.01
-1083.65
-1079.44
-1078.73
-1080.36
-1083.09
-1087.72
-1093.96
-1101.39
-1110.24
-1120.45
-1132.29
-1146.47
-1163.37
-1183.21
-1207.82
-1239.67
-1279.38
-1326.08
-1378.81
-1437.11
-1501.13
-1571.49
-1649.26
-1735.75
-1832.29
-1939.67
-2057.69
-2184.61
-2316.86
-2449.03
-2573.91
-2683.19
-2768.6
-2823.31
-2861.49
-2888.75
-2902.45
-2909.46
-2912.82
-2914.2
-2914.77
-2914.56
-2912.84
-2906.62
-2890.11
-2865.79
-2847.01
-2834.46
-2822.27
-2807.56
-2787.58
-2760.31
-2728.82
-2696.76
-2665.55
-2648.55
-2628.02
-2595.2
-2565.72
-2530.05
-2486.71
-2437.07
-2383.07
-2324.34
-2256.92
-2183.23
-2101.6
-2000.29
-1890.98
-1796.38
-1709.07
-1619.12
-1527.21
-1442.01
-1360.55
-1274.7
-1184.07
-1091.22
-997.075
-902.311
-808.2
-715.057
-619.17
-500.427
-339.933
-120.976
-1113.77
-1108.22
-1105.66
-1104.48
-1103.65
-1107.82
-1099.27
-1101.25
-1108.3
-1113.07
-1113.93
-1110.3
-1102.37
-1092.01
-1083.25
-1078.89
-1078.18
-1079.96
-1082.72
-1087.42
-1093.67
-1101.08
-1109.92
-1120.1
-1131.85
-1145.91
-1162.67
-1182.31
-1206.73
-1238.36
-1277.77
-1324.08
-1376.38
-1434.26
-1497.89
-1567.94
-1645.55
-1732.09
-1828.95
-1936.99
-2056.06
-2184.48
-2318.63
-2453
-2580.16
-2691.35
-2777.7
-2832.26
-2869.69
-2895.93
-2908.57
-2914.95
-2917.9
-2919.15
-2919.96
-2920.31
-2919.7
-2915.19
-2899.62
-2874.77
-2855.84
-2843.75
-2832.18
-2818.73
-2800.15
-2773.61
-2741.49
-2707.65
-2673.98
-2656
-2636.59
-2603.59
-2573.94
-2538.26
-2495.16
-2445.92
-2391.61
-2331.15
-2262.62
-2186.81
-2104.59
-2004
-1897.16
-1804.74
-1719.36
-1629.1
-1537.71
-1451
-1366.31
-1278.41
-1186.51
-1092.69
-997.824
-902.362
-806.868
-710.922
-609.348
-487.214
-329.535
-117.61
-1113.71
-1108.31
-1105.91
-1104.89
-1104.09
-1109.09
-1099.92
-1102.05
-1109.45
-1114.22
-1115.01
-1111.16
-1102.82
-1092.03
-1082.84
-1078.31
-1077.61
-1079.56
-1082.32
-1087.08
-1093.34
-1100.74
-1109.59
-1119.74
-1131.38
-1145.3
-1161.92
-1181.39
-1205.6
-1236.98
-1276.03
-1321.91
-1373.74
-1431.16
-1494.38
-1564.12
-1641.56
-1728.17
-1825.38
-1934.12
-2054.32
-2184.31
-2320.49
-2457.22
-2586.85
-2700.15
-2787.57
-2842.14
-2878.85
-2903.89
-2915.38
-2921.09
-2923.56
-2924.65
-2925.69
-2926.56
-2926.93
-2924.11
-2909.6
-2884.41
-2865.46
-2853.71
-2842.62
-2830.42
-2813.67
-2788.14
-2755.42
-2719.7
-2683.22
-2663.52
-2646.06
-2612.93
-2582.66
-2547.05
-2504.18
-2455.24
-2400.7
-2338.69
-2269.04
-2192.47
-2108.84
-2009.07
-1904.35
-1813.41
-1729.17
-1638.94
-1548.12
-1460.1
-1372.81
-1282.91
-1189.65
-1094.69
-998.93
-902.581
-805.424
-707.035
-601.068
-475.183
-319.83
-114.55
-1113.64
-1108.43
-1106.21
-1105.32
-1104.66
-1110.39
-1100.82
-1102.96
-1110.66
-1115.43
-1116.17
-1112.07
-1103.29
-1092.09
-1082.41
-1077.71
-1077.02
-1079.15
-1081.91
-1086.73
-1093
-1100.39
-1109.24
-1119.34
-1130.86
-1144.65
-1161.13
-1180.43
-1204.45
-1235.54
-1274.18
-1319.57
-1370.89
-1427.82
-1490.6
-1560.01
-1637.29
-1723.97
-1821.56
-1931.06
-2052.43
-2184.1
-2322.43
-2461.7
-2594.01
-2709.64
-2798.27
-2853.01
-2889
-2912.67
-2922.93
-2927.92
-2929.83
-2930.71
-2932.01
-2933.39
-2934.63
-2933.46
-2920.03
-2894.68
-2875.95
-2864.77
-2854.34
-2843.26
-2828.06
-2803.72
-2770.55
-2732.93
-2693.39
-2670.24
-2655.92
-2623.48
-2592.05
-2556.3
-2513.74
-2465.03
-2410.17
-2347.21
-2276.14
-2199.41
-2114.4
-2015.44
-1912.37
-1822.24
-1738.45
-1648.49
-1558.11
-1469.04
-1379.68
-1287.99
-1193.38
-1097.26
-1000.48
-903.084
-804.445
-703.211
-593.084
-464.116
-310.753
-111.792
-1113.52
-1108.57
-1106.54
-1105.76
-1105.35
-1111.61
-1101.97
-1103.99
-1111.94
-1116.7
-1117.38
-1113.03
-1103.8
-1092.19
-1081.98
-1077.11
-1076.44
-1078.75
-1081.47
-1086.36
-1092.64
-1100.03
-1108.87
-1118.89
-1130.31
-1143.98
-1160.32
-1179.45
-1203.26
-1234.04
-1272.23
-1317.08
-1367.85
-1424.25
-1486.58
-1555.64
-1632.76
-1719.52
-1817.5
-1927.77
-2050.39
-2183.83
-2324.43
-2466.42
-2601.63
-2719.84
-2809.86
-2864.93
-2900.19
-2922.29
-2931.28
-2935.5
-2936.74
-2937.37
-2938.95
-2940.86
-2942.91
-2943.31
-2930.91
-2905.65
-2887.76
-2877.6
-2867.94
-2857.81
-2843.63
-2820.32
-2786.89
-2747.48
-2705.29
-2677.1
-2665.25
-2635.25
-2602.38
-2566.17
-2523.78
-2475.31
-2420.06
-2356.4
-2284.44
-2207.13
-2121.21
-2023.01
-1921.18
-1831.1
-1747.28
-1657.71
-1567.56
-1477.66
-1386.7
-1293.43
-1197.53
-1100.22
-1002.24
-903.549
-803.457
-699.147
-584.643
-453.488
-302.244
-109.218
-1113.43
-1108.74
-1106.92
-1106.21
-1106.18
-1112.82
-1103.4
-1105.12
-1113.27
-1118.02
-1118.63
-1114.01
-1104.32
-1092.32
-1081.55
-1076.5
-1075.88
-1078.34
-1081.02
-1085.97
-1092.27
-1099.66
-1108.46
-1118.41
-1129.73
-1143.28
-1159.47
-1178.44
-1202.04
-1232.48
-1270.18
-1314.45
-1364.62
-1420.46
-1482.3
-1551.01
-1627.95
-1714.79
-1813.17
-1924.26
-2048.18
-2183.47
-2326.49
-2471.38
-2609.75
-2730.79
-2822.39
-2877.96
-2912.46
-2932.8
-2940.47
-2943.87
-2944.34
-2944.64
-2946.53
-2949.02
-2951.84
-2953.77
-2942.31
-2917.65
-2901.4
-2892.27
-2882.94
-2873.2
-2859.99
-2838.06
-2804.72
-2763.69
-2719.51
-2686.44
-2674.35
-2647.98
-2613.81
-2576.97
-2534.46
-2486.07
-2430.41
-2366.07
-2293.93
-2215.8
-2129.26
-2031.74
-1930.89
-1840.04
-1755.74
-1666.65
-1576.46
-1485.88
-1393.66
-1299.07
-1201.99
-1103.48
-1004.16
-903.961
-801.828
-694.135
-575.594
-443.001
-294.459
-106.786
-1113.37
-1108.93
-1107.33
-1106.66
-1107.12
-1114.03
-1105.12
-1106.35
-1114.65
-1119.38
-1119.92
-1115
-1104.86
-1092.51
-1081.13
-1075.91
-1075.35
-1077.93
-1080.56
-1085.57
-1091.89
-1099.28
-1108.05
-1117.92
-1129.12
-1142.53
-1158.58
-1177.4
-1200.79
-1230.85
-1268.03
-1311.68
-1361.22
-1416.47
-1477.8
-1546.12
-1622.87
-1709.78
-1808.58
-1920.5
-2045.77
-2183
-2328.58
-2476.57
-2618.36
-2742.54
-2835.87
-2892.12
-2925.83
-2944.17
-2950.54
-2953.09
-2952.64
-2952.55
-2954.78
-2957.92
-2961.52
-2964.92
-2954.48
-2931.12
-2916.85
-2908.49
-2899.16
-2889.33
-2876.89
-2856.63
-2824
-2781.92
-2736.44
-2699.83
-2683.96
-2661.35
-2626.49
-2588.75
-2545.97
-2497.39
-2441.33
-2376.62
-2304.37
-2225.61
-2138.53
-2041.63
-1941.61
-1849.44
-1763.99
-1675.36
-1584.95
-1493.74
-1400.52
-1304.83
-1206.73
-1107.09
-1006.39
-904.493
-799.725
-688.326
-566.479
-433.067
-287.431
-104.556
-1113.33
-1109.16
-1107.77
-1107.1
-1108.14
-1115.11
-1107.1
-1107.69
-1116.06
-1120.78
-1121.23
-1115.99
-1105.41
-1092.73
-1080.73
-1075.35
-1074.88
-1077.52
-1080.1
-1085.17
-1091.53
-1098.92
-1107.66
-1117.44
-1128.51
-1141.76
-1157.65
-1176.32
-1199.5
-1229.18
-1265.79
-1308.79
-1357.66
-1412.28
-1473.06
-1540.98
-1617.52
-1704.5
-1803.71
-1916.49
-2043.15
-2182.4
-2330.68
-2481.98
-2627.44
-2755.06
-2850.26
-2907.36
-2940.22
-2956.37
-2961.5
-2963.18
-2961.67
-2961.12
-2963.74
-2967.58
-2972.01
-2976.95
-2967.69
-2946.17
-2933.87
-2926.29
-2916.99
-2906.99
-2895.05
-2876.24
-2844.81
-2802.55
-2756.41
-2717.21
-2695.14
-2674.64
-2640.27
-2601.68
-2558.57
-2509.56
-2453.25
-2388.41
-2315.9
-2236.62
-2149.07
-2052.69
-1953.37
-1859.79
-1772.43
-1683.85
-1593.24
-1501.35
-1407.29
-1310.69
-1211.73
-1111.07
-1009.04
-905.18
-797.502
-682.683
-558.253
-424.335
-281.063
-102.586
-1113.31
-1109.41
-1108.25
-1107.54
-1109.21
-1116.09
-1109.31
-1109.11
-1117.51
-1122.21
-1122.56
-1116.98
-1105.96
-1093
-1080.37
-1074.81
-1074.47
-1077.12
-1079.65
-1084.79
-1091.17
-1098.54
-1107.26
-1116.97
-1127.92
-1141
-1156.68
-1175.18
-1198.15
-1227.45
-1263.48
-1305.79
-1353.95
-1407.9
-1468.11
-1535.59
-1611.91
-1698.93
-1798.55
-1912.2
-2040.3
-2181.66
-2332.75
-2487.55
-2636.94
-2768.27
-2865.41
-2923.53
-2955.46
-2969.25
-2973.31
-2974.14
-2971.44
-2970.38
-2973.42
-2978.03
-2983.38
-2990.11
-2982.13
-2962.78
-2952.56
-2945.95
-2936.82
-2926.73
-2915.15
-2897.55
-2867.56
-2825.88
-2779.44
-2738.13
-2709.61
-2687.95
-2654.91
-2616.17
-2572.73
-2523.26
-2466.68
-2401.6
-2328.76
-2248.93
-2160.95
-2064.97
-1966.14
-1871.4
-1781.78
-1692.42
-1601.44
-1508.89
-1414.07
-1316.65
-1216.94
-1115.38
-1011.93
-905.894
-795.413
-677.76
-551.337
-417.027
-275.347
-100.9
-1113.25
-1109.69
-1108.76
-1107.97
-1110.3
-1117.05
-1111.7
-1110.6
-1118.98
-1123.66
-1123.88
-1117.95
-1106.51
-1093.32
-1080.06
-1074.3
-1074.11
-1076.72
-1079.23
-1084.4
-1090.78
-1098.12
-1106.81
-1116.49
-1127.34
-1140.26
-1155.72
-1174
-1196.74
-1225.64
-1261.09
-1302.68
-1350.1
-1403.35
-1462.95
-1529.96
-1606.02
-1693.07
-1793.1
-1907.62
-2037.18
-2180.72
-2334.76
-2493.21
-2646.72
-2782.02
-2881.04
-2940.31
-2971.22
-2982.54
-2985.87
-2985.93
-2981.94
-2980.32
-2983.84
-2989.28
-2995.81
-3004.58
-2997.89
-2980.97
-2973.07
-2967.57
-2958.75
-2948.67
-2937.47
-2920.92
-2892.45
-2851.77
-2805.19
-2761.95
-2728.59
-2703.26
-2671.08
-2632.72
-2588.92
-2538.99
-2481.86
-2416.38
-2343.15
-2262.72
-2174.3
-2078.53
-1979.98
-1884.28
-1792.58
-1701.77
-1610.01
-1516.63
-1421
-1322.81
-1222.33
-1119.76
-1014.74
-906.562
-793.599
-673.586
-545.61
-410.942
-270.3
-99.4926
-1113.23
-1109.99
-1109.3
-1108.38
-1111.4
-1117.8
-1114.2
-1112.18
-1120.47
-1125.16
-1125.22
-1118.9
-1107.06
-1093.68
-1079.81
-1073.85
-1073.81
-1076.33
-1078.83
-1084
-1090.36
-1097.69
-1106.34
-1115.95
-1126.74
-1139.54
-1154.79
-1172.82
-1195.27
-1223.75
-1258.61
-1299.49
-1346.13
-1398.63
-1457.58
-1524.09
-1599.87
-1686.93
-1787.33
-1902.73
-2033.79
-2179.56
-2336.61
-2498.82
-2656.59
-2796.04
-2896.77
-2957.28
-2987.02
-2995.86
-2998.97
-2998.44
-2993.14
-2990.94
-2995.03
-3001.37
-3009.56
-3020.33
-3015.04
-3000.92
-2995.48
-2991.1
-2982.67
-2972.81
-2962.05
-2946.39
-2919.36
-2879.84
-2833.34
-2788.51
-2751.62
-2722.42
-2689.99
-2651.66
-2607.38
-2556.81
-2499
-2433
-2359.26
-2278.17
-2189.26
-2093.52
-1995.02
-1898.42
-1804.87
-1712.39
-1619.43
-1525
-1428.38
-1329.32
-1227.88
-1124.06
-1017.44
-907.24
-792.044
-670.006
-540.771
-405.768
-265.907
-98.3364
-1113.24
-1110.32
-1109.85
-1108.79
-1112.52
-1118.14
-1116.67
-1113.8
-1121.99
-1126.69
-1126.56
-1119.85
-1107.62
-1094.09
-1079.65
-1073.49
-1073.55
-1075.96
-1078.46
-1083.6
-1089.94
-1097.23
-1105.82
-1115.38
-1126.08
-1138.79
-1153.87
-1171.66
-1193.78
-1221.79
-1256.03
-1296.19
-1342.04
-1393.76
-1452.02
-1517.99
-1593.44
-1680.48
-1781.25
-1897.52
-2030.07
-2178.09
-2338.2
-2504.2
-2666.29
-2810.06
-2912.24
-2974.01
-3002.34
-3008.75
-3012.33
-3011.48
-3004.94
-3002.23
-3006.97
-3014.39
-3024.81
-3037.39
-3033.73
-3022.74
-3019.73
-3016.42
-3008.5
-2999.12
-2988.93
-2974.05
-2948.27
-2909.97
-2863.9
-2818.06
-2778.53
-2745.99
-2712.27
-2673.32
-2628.37
-2577.01
-2518.37
-2451.69
-2377.29
-2295.44
-2205.96
-2110.06
-2011.38
-1913.86
-1818.63
-1724.37
-1629.89
-1534.18
-1436.43
-1336.27
-1233.64
-1128.41
-1020.09
-907.934
-790.679
-666.856
-536.552
-401.259
-262.146
-97.4015
-1113.27
-1110.67
-1110.43
-1109.17
-1113.57
-1118.28
-1118.96
-1115.43
-1123.53
-1128.28
-1127.92
-1120.79
-1108.2
-1094.55
-1079.62
-1073.28
-1073.38
-1075.68
-1078.13
-1083.18
-1089.51
-1096.76
-1105.28
-1114.76
-1125.37
-1137.98
-1152.92
-1170.52
-1192.31
-1219.79
-1253.36
-1292.77
-1337.84
-1388.75
-1446.27
-1511.66
-1586.75
-1673.72
-1774.83
-1891.95
-2025.99
-2176.25
-2339.37
-2509.14
-2675.6
-2823.87
-2927.19
-2990.19
-3016.82
-3020.8
-3025.61
-3024.81
-3017.21
-3014.14
-3019.68
-3028.55
-3041.57
-3055.78
-3054.16
-3046.45
-3045.78
-3043.49
-3036.26
-3027.68
-3018.22
-3004.05
-2979.37
-2942.37
-2897.13
-2850.9
-2809.45
-2773.91
-2738.26
-2698.15
-2652.21
-2599.84
-2540.2
-2472.65
-2397.4
-2314.68
-2224.53
-2128.27
-2029.19
-1930.66
-1833.81
-1737.76
-1641.53
-1544.27
-1445.14
-1343.67
-1239.64
-1132.83
-1022.75
-908.663
-789.473
-664.041
-532.796
-397.285
-258.995
-96.6621
-1113.33
-1111.04
-1111
-1109.53
-1114.46
-1118.42
-1120.99
-1117.06
-1125.11
-1129.93
-1129.3
-1121.74
-1108.8
-1095.07
-1079.75
-1073.29
-1073.31
-1075.49
-1077.81
-1082.76
-1089.08
-1096.28
-1104.71
-1114.09
-1124.62
-1137.11
-1151.91
-1169.35
-1190.85
-1217.8
-1250.64
-1289.25
-1333.51
-1383.6
-1440.34
-1505.11
-1579.8
-1666.66
-1768.07
-1886
-2021.49
-2173.92
-2339.97
-2513.44
-2684.35
-2837.38
-2941.51
-3005.62
-3030.28
-3031.74
-3038.49
-3038.09
-3029.79
-3026.6
-3033.2
-3044.02
-3059.81
-3075.6
-3076.45
-3072.03
-3073.62
-3072.39
-3066.17
-3058.72
-3050.12
-3036.63
-3013
-2977.43
-2933.37
-2887.23
-2844.35
-2806.09
-2768.12
-2726.39
-2679.12
-2625.47
-2564.61
-2495.99
-2419.71
-2335.99
-2245.04
-2148.25
-2048.55
-1948.88
-1850.37
-1752.49
-1654.43
-1555.38
-1454.6
-1351.56
-1245.93
-1137.4
-1025.49
-909.487
-788.456
-661.553
-529.46
-393.807
-256.411
-96.0945
-1113.37
-1111.44
-1111.58
-1109.87
-1115.19
-1118.39
-1122.67
-1118.66
-1126.71
-1131.65
-1130.71
-1122.7
-1109.44
-1095.65
-1080.05
-1073.51
-1073.34
-1075.37
-1077.49
-1082.33
-1088.64
-1095.78
-1104.12
-1113.4
-1123.81
-1136.18
-1150.83
-1168.12
-1189.38
-1215.83
-1247.91
-1285.66
-1329.05
-1378.32
-1434.25
-1498.34
-1572.58
-1659.29
-1760.95
-1879.64
-2016.5
-2170.99
-2339.81
-2516.92
-2692.45
-2850.61
-2955.2
-3020.11
-3042.64
-3041.48
-3050.71
-3051.01
-3042.47
-3039.51
-3047.65
-3060.87
-3079.43
-3097.04
-3100.66
-3099.51
-3103.36
-3103.32
-3098.53
-3092.52
-3084.88
-3072.09
-3049.52
-3015.48
-2972.81
-2927.06
-2883.05
-2842.3
-2801.83
-2758.11
-2709.18
-2653.99
-2591.7
-2521.78
-2444.3
-2359.43
-2267.53
-2170.02
-2069.51
-1968.57
-1868.32
-1768.53
-1668.51
-1567.53
-1464.89
-1360.05
-1252.62
-1142.23
-1028.41
-910.502
-787.713
-659.444
-526.572
-390.831
-254.332
-95.6763
-1113.44
-1111.86
-1112.14
-1110.19
-1115.8
-1117.98
-1123.91
-1120.25
-1128.35
-1133.45
-1132.14
-1123.67
-1110.11
-1096.29
-1080.53
-1073.86
-1073.48
-1075.33
-1077.18
-1081.9
-1088.21
-1095.28
-1103.51
-1112.67
-1122.97
-1135.19
-1149.67
-1166.8
-1187.82
-1213.84
-1245.22
-1282.05
-1324.49
-1372.89
-1428.01
-1491.37
-1565.09
-1651.6
-1753.45
-1872.83
-2010.95
-2167.34
-2338.76
-2519.49
-2699.91
-2863.56
-2968.18
-3033.32
-3053.72
-3049.99
-3062.08
-3063.26
-3055.04
-3052.88
-3063.13
-3079.02
-3100.42
-3120.22
-3126.8
-3128.94
-3135.14
-3136.56
-3133.65
-3129.31
-3122.69
-3110.67
-3089.19
-3056.71
-3015.5
-2970.26
-2925.31
-2882.27
-2839.22
-2793.25
-2742.37
-2685.4
-2621.46
-2550.06
-2471.18
-2385.01
-2292.01
-2193.59
-2092.07
-1989.73
-1887.67
-1785.85
-1683.75
-1580.69
-1476.01
-1369.18
-1259.77
-1147.41
-1031.62
-911.821
-787.341
-657.789
-524.183
-388.373
-252.7
-95.3881
-1113.54
-1112.3
-1112.69
-1110.51
-1116.35
-1117.18
-1124.7
-1121.8
-1130.03
-1135.32
-1133.59
-1124.63
-1110.84
-1097.01
-1081.15
-1074.28
-1073.72
-1075.36
-1076.89
-1081.47
-1087.78
-1094.77
-1102.88
-1111.91
-1122.08
-1134.14
-1148.45
-1165.39
-1186.16
-1211.76
-1242.51
-1278.46
-1319.88
-1367.31
-1421.59
-1484.19
-1557.34
-1643.58
-1745.56
-1865.52
-2004.76
-2162.85
-2336.72
-2521.11
-2706.69
-2876.03
-2980.06
-3044.82
-3063.13
-3057.25
-3072.42
-3074.56
-3067.27
-3066.72
-3079.61
-3098.42
-3122.94
-3145.16
-3154.88
-3160.46
-3169.15
-3172.37
-3171.74
-3169.19
-3163.68
-3152.48
-3132.12
-3101.14
-3061.33
-3016.62
-2970.83
-2925.69
-2880.08
-2831.68
-2778.64
-2719.67
-2653.89
-2580.8
-2500.36
-2412.73
-2318.46
-2218.91
-2116.19
-2012.31
-1908.35
-1804.41
-1700.09
-1594.81
-1487.95
-1378.97
-1267.46
-1153.03
-1035.24
-913.546
-787.43
-656.652
-522.334
-386.437
-251.466
-95.2136
-1113.68
-1112.75
-1113.21
-1110.81
-1116.86
-1116.32
-1125.17
-1123.3
-1131.74
-1137.27
-1135.07
-1125.59
-1111.62
-1097.79
-1081.92
-1074.79
-1074.07
-1075.43
-1076.64
-1081.05
-1087.35
-1094.25
-1102.23
-1111.13
-1121.16
-1133.05
-1147.17
-1163.9
-1184.4
-1209.56
-1239.71
-1274.86
-1315.26
-1361.63
-1414.99
-1476.82
-1549.33
-1635.23
-1737.25
-1857.69
-1997.87
-2157.48
-2333.67
-2521.71
-2712.67
-2887.53
-2989.71
-3053.9
-3070.34
-3063.19
-3081.55
-3084.72
-3079.14
-3081.12
-3096.94
-3119.04
-3147.02
-3171.86
-3184.97
-3194.22
-3205.57
-3210.94
-3212.86
-3212.17
-3207.82
-3197.53
-3178.26
-3148.68
-3110.13
-3065.89
-3019.35
-2972.28
-2924.17
-2873.27
-2817.89
-2756.75
-2688.95
-2614
-2531.8
-2442.54
-2346.82
-2245.95
-2141.84
-2036.28
-1930.32
-1824.16
-1717.53
-1609.9
-1500.72
-1389.47
-1275.74
-1159.17
-1039.33
-915.762
-788.05
-656.081
-521.049
-385.015
-250.593
-95.1406
-1113.84
-1113.22
-1113.72
-1111.1
-1117.3
-1115.58
-1125.45
-1124.75
-1133.49
-1139.32
-1136.58
-1126.56
-1112.46
-1098.65
-1082.79
-1075.38
-1074.46
-1075.54
-1076.43
-1080.62
-1086.9
-1093.73
-1101.58
-1110.32
-1120.2
-1131.91
-1145.82
-1162.34
-1182.53
-1207.23
-1236.77
-1271.18
-1310.65
-1355.9
-1408.23
-1469.22
-1541.08
-1626.56
-1728.51
-1849.28
-1990.23
-2151.18
-2329.57
-2521.23
-2717.58
-2897.4
-2995.96
-3059.62
-3075.03
-3067.73
-3089.27
-3093.66
-3090.69
-3095.94
-3115.01
-3140.99
-3172.58
-3200.33
-3217.11
-3230.34
-3244.48
-3252.36
-3256.94
-3258.14
-3255.03
-3245.7
-3227.49
-3199.17
-3161.73
-3117.89
-3070.64
-3021.79
-2971.28
-2917.85
-2860.02
-2796.57
-2726.58
-2649.58
-2565.45
-2474.39
-2377.04
-2274.65
-2168.96
-2061.59
-1953.53
-1845.07
-1736.02
-1625.94
-1514.32
-1400.69
-1284.66
-1165.88
-1043.97
-918.532
-789.248
-656.101
-520.332
-384.087
-250.05
-95.1598
-1114
-1113.7
-1114.2
-1111.39
-1117.68
-1114.89
-1125.62
-1126.15
-1135.28
-1141.46
-1138.1
-1127.52
-1113.37
-1099.59
-1083.76
-1076.05
-1074.87
-1075.65
-1076.25
-1080.2
-1086.45
-1093.21
-1100.93
-1109.5
-1119.21
-1130.74
-1144.43
-1160.71
-1180.57
-1204.79
-1233.69
-1267.37
-1305.98
-1350.17
-1401.35
-1461.4
-1532.55
-1617.56
-1719.33
-1840.27
-1981.8
-2143.92
-2324.37
-2519.46
-2720.93
-2905.18
-2999.61
-3059.7
-3076.34
-3070.87
-3095.42
-3101.46
-3101.98
-3110.94
-3133.85
-3164.24
-3199.54
-3230.55
-3251.35
-3268.87
-3285.92
-3296.56
-3303.83
-3306.94
-3305.17
-3296.85
-3279.66
-3252.46
-3215.95
-3172.42
-3124.52
-3074.02
-3021.24
-2965.3
-2904.95
-2839.04
-2766.72
-2687.49
-2601.25
-2508.22
-2409.06
-2304.97
-2197.53
-2088.21
-1977.95
-1867.09
-1755.53
-1642.91
-1528.77
-1412.67
-1294.27
-1173.22
-1049.21
-921.906
-791.058
-656.729
-520.183
-383.632
-249.812
-95.2644
-1114.19
-1114.18
-1114.68
-1111.68
-1118.03
-1114.2
-1125.79
-1127.53
-1137.11
-1143.68
-1139.67
-1128.51
-1114.35
-1100.61
-1084.81
-1076.8
-1075.28
-1075.79
-1076.14
-1079.79
-1085.98
-1092.69
-1100.27
-1108.67
-1118.21
-1129.53
-1142.99
-1159.01
-1178.51
-1202.23
-1230.46
-1263.37
-1301.15
-1344.38
-1394.42
-1453.38
-1523.72
-1608.18
-1709.67
-1830.6
-1972.52
-2135.66
-2317.98
-2516.17
-2722.15
-2910.61
-3001.75
-3057.44
-3074.81
-3072.35
-3099.98
-3108.29
-3112.74
-3126.03
-3153.54
-3188.63
-3227.82
-3262.51
-3287.71
-3309.75
-3329.82
-3343.41
-3353.36
-3358.43
-3358.08
-3350.82
-3334.61
-3308.4
-3272.68
-3229.38
-3180.84
-3128.84
-3073.9
-3015.48
-2952.55
-2884.07
-2809.24
-2727.62
-2639.12
-2543.97