/*--------------------------------*- C++ -*----------------------------------*\
| =========                 |                                                 |
| \\      /  F ield         | OpenFOAM: The Open Source CFD Toolbox           |
|  \\    /   O peration     | Version:  4.1                                   |
|   \\  /    A nd           | Web:      www.OpenFOAM.org                      |
|    \\/     M anipulation  |                                                 |
\*---------------------------------------------------------------------------*/
FoamFile
{
    version     2.0;
    format      ascii;
    class       surfaceScalarField;
    location    "1500";
    object      phi;
}
// * * * * * * * * * * * * * * * * * * * * * * * * * * * * * * * * * * * * * //

dimensions      [0 3 -1 0 0 0 0];

internalField   nonuniform List<scalar> 
52920
(
1919.63
66.5194
1856.65
62.9801
1782.83
73.8399
1706.88
75.9727
1621.99
84.9377
1451.5
170.511
1262.57
188.956
1118.65
143.945
1044.74
73.9611
1006.85
37.9322
979.001
27.9008
933.128
45.9278
857.243
75.9386
793.579
63.7129
784.637
8.99249
836.636
-51.9502
939.52
-102.84
1099.2
-159.634
1309.97
-210.737
1552.65
-242.644
1811.06
-258.372
2077.9
-266.81
2351.47
-273.541
2635.51
-284.009
2938.77
-303.233
3269.21
-330.414
3634.79
-365.561
4051.16
-416.352
4533.52
-482.336
5077.33
-543.79
5657.69
-580.347
6244.98
-587.271
6816.77
-571.783
7361.9
-545.116
7880.18
-518.268
8380.8
-500.607
8879.34
-498.52
9392.91
-513.559
9934.55
-541.636
10508.7
-574.187
11109.2
-600.477
11719.2
-609.96
12313.3
-594.118
12860.9
-547.608
13330.2
-469.27
13692.8
-362.568
13929.3
-236.509
14041.7
-112.39
14015.3
26.4359
13832
183.311
13502.8
329.187
13050.5
452.297
12497.5
552.976
11864.3
633.283
11163.8
700.445
10398.7
765.127
9564
834.687
8660.69
903.314
7715.04
945.648
6779
936.039
5896.92
882.087
5085.99
810.918
4347.98
738.019
3691.37
656.599
3146.74
544.633
2760.26
386.472
2489.11
271.152
2372.17
116.934
2370.86
1.31439
2274.44
96.4101
2311.8
-37.3542
2628.4
-316.602
2898.1
-269.706
2895.88
2.21686
2847.35
48.5359
3117.83
-270.487
3761.51
-643.673
4812.89
-1051.38
6040.34
-1227.45
6845.1
-804.765
6959.76
-114.652
6503.53
456.225
5720.44
783.092
4853.78
866.651
4060.04
793.743
3348.05
711.987
3095.71
252.34
3738.65
-642.938
4806.08
-1067.43
6051.36
-1245.28
7419.1
-1367.73
8842.57
-1423.48
10318.2
-1475.65
11852.2
-1533.96
13414
-1561.87
14865.3
-1451.25
15795.3
-929.999
15933.6
-138.34
15317.2
616.43
1014.97
1922.98
137.422
1855.67
130.3
1777.84
151.69
1700.1
153.743
1606.87
178.211
1416.03
361.37
1205.78
399.238
1055.35
294.402
996.791
132.565
999.45
35.3164
1018.38
9.02402
998.103
66.2591
934.725
139.369
878.707
119.776
876.252
11.4977
938.727
-114.377
1059.27
-223.346
1237.65
-337.976
1462.23
-435.281
1713.18
-493.559
1975.13
-520.292
2241.78
-533.425
2513.08
-544.819
2795.03
-565.924
3098.42
-606.603
3432.21
-664.183
3803.54
-736.863
4225.29
-838.089
4709.21
-966.233
5248.33
-1082.9
5816.67
-1148.68
6384.09
-1154.67
6927.69
-1115.37
7435.69
-1053.1
7907.18
-989.75
8350.85
-944.257
8782.46
-930.122
9220.77
-951.861
9682.24
-1003.09
10176.1
-1068.05
10701.1
-1125.48
11244.5
-1153.33
11783.4
-1133.04
12288.3
-1052.47
12727.2
-908.157
13070.9
-706.229
13298.6
-464.258
13409.7
-223.486
13386
50.1547
13212.4
356.95
12902
639.548
12475.6
878.773
11953.5
1075.01
11354.5
1232.33
10690.1
1364.79
9962.09
1493.18
9165.13
1631.65
8300.28
1768.16
7394.25
1851.69
6498.23
1832.05
5652.85
1727.47
4869.2
1594.57
4141.54
1465.68
3471.24
1326.89
2887.72
1128.16
2451.45
822.733
2146.42
576.186
2064.47
198.876
2096.05
-30.2605
2018.44
174.015
2116.55
-135.47
2456.8
-656.852
2659.51
-472.419
2590.66
71.067
2541.59
97.6093
2726.72
-455.619
3319.67
-1236.63
4520.46
-2252.18
5946.77
-2653.75
6919.54
-1777.54
7136.03
-331.145
6662.65
929.602
5772.7
1673.05
4760.14
1879.21
3858.08
1695.8
3145.7
1424.36
2958.84
439.2
3546.4
-1230.5
4572.24
-2093.27
5883.64
-2556.68
7320.48
-2804.57
8798.35
-2901.34
10307.5
-2984.81
11843.8
-3070.29
13381.4
-3099.46
14807.3
-2877.13
15724.3
-1846.98
15871.1
-285.191
15234.2
1253.33
2024.91
1915.81
215.498
1839.75
206.364
1753.3
238.157
1670.56
236.502
1561.29
287.525
1331.36
591.317
1074.61
656.011
912.372
456.669
908.372
136.612
1000.17
-56.4461
1080.02
-70.7854
1079.6
66.7318
1022.99
196.027
969.983
172.82
969.13
12.3947
1034.38
-179.588
1159.93
-348.865
1341.5
-519.511
1565.19
-658.949
1811.35
-739.688
2065.88
-774.798
2324.07
-791.595
2587.22
-807.945
2861.75
-840.424
3157.4
-902.234
3480.84
-987.606
3836.85
-1092.85
4237.54
-1238.77
4696.81
-1425.48
5211.83
-1597.9
5760.07
-1696.9
6312.93
-1707.51
6847.39
-1649.82
7349.96
-1555.66
7816.43
-1456.21
8251.15
-1378.96
8666.08
-1345.05
9078.3
-1364.06
9505.19
-1429.98
9958.67
-1521.51
10440.3
-1607.16
10939.9
-1652.89
11436.5
-1629.65
11901.9
-1517.85
12304.6
-1310.83
12614.6
-1016.21
12809.7
-659.351
12886.6
-300.383
12823.7
113.057
12611.9
568.715
12271.6
979.882
11825.9
1324.51
11296.5
1604.4
10701.9
1826.96
10052.8
2013.87
9349.58
2196.39
8585.22
2396.02
7758.28
2595.09
6893.81
2716.17
6041.92
2683.94
5238.94
2530.45
4488.36
2345.15
3775.02
2179.02
3089.97
2011.93
2458.36
1759.77
1956.58
1324.51
1628.91
903.862
1639.5
188.278
1761.79
-152.554
1745.24
190.565
1792.09
-182.322
2088.68
-953.443
2328.88
-712.623
2279.39
120.555
2127.37
249.633
2199.35
-527.604
2959.92
-1997.19
4365
-3657.26
5699.97
-3988.72
6428.69
-2506.26
6476.74
-379.197
6008.78
1397.56
5217.35
2464.47
4266.49
2830.07
3401.16
2561.13
2760.56
2064.95
2635.21
564.558
3159.58
-1754.87
4153.95
-3087.64
5456.73
-3859.47
6836.45
-4184.28
8195.17
-4260.07
9523.45
-4313.1
10837.6
-4384.47
12162.5
-4424.38
13448.8
-4163.39
14290.5
-2688.66
14450.5
-445.231
13918.9
1784.91
2925.95
1899.89
301.336
1813.69
292.567
1717.99
333.882
1628.88
325.637
1490.01
426.432
1193.81
887.536
879.157
970.695
747.711
588.144
860.51
23.8566
1042.82
-238.728
1140.2
-168.115
1132.57
74.415
1070.33
258.314
1013.42
229.761
1008.72
17.151
1071.21
-242.04
1195.41
-473.029
1374.18
-698.25
1592
-876.743
1828.74
-976.398
2071.39
-1017.43
2316.52
-1036.7
2565.16
-1056.56
2821.58
-1096.83
3092.85
-1173.47
3384.65
-1279.39
3703.54
-1411.72
4065.99
-1601.2
4491.42
-1850.89
4980.62
-2087.09
5511.57
-2227.84
6055.14
-2251.07
6588.39
-2183.06
7097.94
-2065.19
7578.19
-1936.45
8030.02
-1830.78
8460.76
-1775.78
8883.55
-1786.83
9313.74
-1860.16
9763.31
-1971.07
10235.7
-2079.55
10723.5
-2140.66
11208.4
-2114.6
11663.6
-1973.03
12057.2
-1704.42
12357.6
-1316.55
12539.9
-841.673
12597
-357.455
12501.9
208.162
12248.8
821.751
11862.7
1366
11370.6
1816.64
10798.6
2176.44
10169
2456.55
9495.4
2687.46
8779.13
2912.66
8012.4
3162.76
7192.05
3415.43
6343.38
3564.84
5518.24
3509.08
4748.85
3299.84
4028.6
3065.4
3329.43
2878.19
2626.67
2714.69
1933.31
2453.12
1317.4
1940.41
979.303
1241.96
982.755
184.821
1081.47
-251.263
1087.41
184.617
953.068
-47.9801
825.109
-825.487
973.808
-861.321
1446.36
-351.997
1675.59
20.3972
1891.91
-743.92
2751.44
-2856.72
3989.13
-4894.95
4938.38
-4937.96
5306.4
-2874.28
5117.4
-190.195
4669.7
1845.27
4115.39
3018.78
3398.17
3547.29
2705.5
3253.81
2224.23
2546.22
2185.33
603.46
2662.22
-2231.77
3648.74
-4074.16
4834.9
-5045.64
5950.76
-5300.14
6972.81
-5282.12
7962.07
-5302.36
8977.52
-5399.91
10069.6
-5516.42
11189.1
-5282.94
11860.5
-3360.07
11900.7
-485.365
11453.7
2231.86
3670.68
1875.5
394.32
1779.37
388.697
1676.3
436.977
1577.84
424.115
1385.79
618.511
997.982
1275.36
655.359
1313.34
638.528
605.005
879.347
-216.932
1094.94
-454.299
1177.21
-250.343
1154.97
96.7051
1084.98
328.338
1022.12
292.66
1011.2
28.1132
1068.47
-299.271
1188.93
-593.458
1362.53
-871.826
1571.59
-1085.78
1795.04
-1199.83
2021.11
-1243.47
2247.7
-1263.27
2474.92
-1283.75
2704.21
-1326.09
2941.47
-1410.72
3195.35
-1533.26
3477.17
-1693.53
3807.29
-1931.3
4206.95
-2250.54
4676.14
-2556.26
5190.94
-2742.63
5721.76
-2781.88
6247.18
-2708.47
6756.1
-2574.1
7244.31
-2424.64
7711.81
-2298.26
8162.67
-2226.63
8605.41
-2229.57
9051.52
-2306.26
9511.58
-2431.12
9990.3
-2558.26
10482.4
-2632.71
10970.9
-2603.1
11429
-2431.17
11824.6
-2099.99
12125.4
-1617.32
12305.7
-1022
12356.8
-408.563
12248.1
316.916
11976.9
1092.97
11569
1773.86
11051.3
2334.4
10450.5
2777.24
9791.1
3115.92
9088.99
3389.59
8346.25
3655.4
7554.05
3954.96
6709
4260.49
5842.28
4431.56
5015.45
4335.91
4260.7
4054.59
3560.3
3765.79
2869.83
3568.67
2143.52
3440.99
1360.22
3236.42
617.943
2682.68
-265.796
2125.7
-1784.1
1703.11
-3492.55
1457.19
-3913.93
605.988
-3119.42
-842.485
-2368.91
-1576
-1171.7
-2058.53
479.425
-2003.12
1231.19
-731.37
1525.16
-1037.89
2268.14
-3599.7
3058.23
-5685.04
3601.83
-5481.56
3793.74
-3066.2
3430.95
172.6
2970.7
2305.51
2669.56
3319.92
2254.54
3962.3
1783.36
3724.99
1489.78
2839.8
1654.61
438.626
2195.17
-2772.32
3094.37
-4973.36
3957.72
-5908.98
4656.83
-5999.24
5306.03
-5931.33
6012.56
-6008.89
6812.53
-6199.88
7720.56
-6424.45
8611.53
-6173.92
8939.25
-3687.78
8588.97
-135.093
8095.01
2725.83
4247.64
1830.92
494.527
1726.86
492.767
1621.17
542.687
1507.94
537.364
1236.26
890.224
758.132
1753.51
455.124
1616.39
604.01
456.163
925.044
-537.94
1130.53
-659.76
1193.31
-313.082
1159.48
130.582
1082.94
404.926
1013.28
362.355
994.381
47.0636
1044.23
-349.074
1158.89
-708.092
1325.39
-1038.29
1523.5
-1283.87
1731.26
-1407.56
1939.06
-1451.25
2146.59
-1470.77
2351.69
-1488.82
2552.63
-1527.01
2757.83
-1615.9
2982.68
-1758.08
3240.92
-1951.75
3549.88
-2240.24
3927.55
-2628.19
4373.28
-3001.97
4864.29
-3233.62
5372.95
-3290.53
5880.28
-3215.78
6377.67
-3071.47
6862.79
-2909.75
7336.06
-2771.52
7799.66
-2690.22
8258.46
-2688.35
8720.43
-2768.22
9194.31
-2904.99
9684.15
-3048.09
10184.1
-3132.69
10677.1
-3096.09
11136.7
-2890.74
11531.5
-2494.78
11829.7
-1915.54
12005.4
-1197.69
12049.8
-452.88
11930.3
436.403
11651.1
1372.15
11241
2183.95
10725.8
2849.59
10130
3373.05
9475.75
3770.19
8776.47
4088.87
8030.15
4401.72
7221.23
4763.89
6342.39
5139.32
5434.72
5339.24
4580.24
5190.38
3819.65
4815.19
3126.2
4459.23
2437.79
4257.09
1680.59
4198.19
743.34
4173.67
-640.055
4066.07
-2084.64
3570.28
-2918.03
2536.49
-3392.94
1932.1
-3138.88
351.929
-2652.46
-1328.91
-2852.32
-1376.14
-3187.03
-1723.82
-2749.89
-2440.27
-1069.95
-2411.31
551.24
-2659.09
1296.27
-4344.72
1530.5
-5919.28
1781.69
-5732.75
2122.82
-3407.33
1778.69
516.734
1256.77
2827.42
1143.03
3433.67
1004.18
4101.15
716.646
4012.52
569.531
2986.91
1006.43
1.72144
1667.27
-3433.16
2330.85
-5636.94
2782.58
-6360.71
3119.33
-6335.99
3502.52
-6314.53
3993.51
-6499.87
4583.52
-6789.89
5251.8
-7092.73
5761.19
-6683.31
5632.89
-3559.48
4626.69
871.101
3946.81
3405.71
4615.34
1781.99
603.542
1667.27
607.492
1557.38
652.592
1413.14
681.615
1035.62
1267.77
494.688
2294.45
309.565
1801.54
622.036
143.72
969.661
-885.546
1150.36
-840.436
1198.74
-361.423
1156.4
172.959
1073.81
487.555
996.443
439.753
967.935
75.6139
1008.44
-389.546
1116.01
-815.631
1274.74
-1197
1461.53
-1470.64
1654.32
-1600.33
1846.64
-1643.55
2038.05
-1662.15
2221.71
-1672.47
2396.48
-1701.76
2580.6
-1800
2795.04
-1972.5
3045.01
-2201.7
3335.96
-2531.17
3683.41
-2975.63
4092.35
-3410.9
4546.14
-3687.4
5021.1
-3765.47
5500.71
-3695.38
5978.05
-3548.8
6451.78
-3383.48
6922.35
-3242.08
7390.72
-3158.58
7859.74
-3157.35
8335.27
-3243.75
8823.89
-3393.59
9327.26
-3551.45
9837.97
-3643.39
10338.9
-3597.03
10804.5
-3356.36
11203.7
-2893.95
11503.5
-2215.3
11675.7
-1369.87
11709.8
-486.996
11571.1
575.129
11273.3
1669.94
10852.5
2604.78
10338.8
3363.28
9758.06
3953.8
9130.85
4397.4
8466.38
4753.35
7753.69
5114.4
6961.15
5556.43
6065.88
6034.59
5114.87
6290.26
4219.05
6086.19
3438.33
5595.92
2742.37
5155.18
2053.22
4946.24
1277
4974.4
295.011
5155.66
-949.588
5310.66
-2130.12
4750.82
-2788.44
3194.81
-3063.47
2207.13
-2799.34
87.7899
-2599.99
-1528.25
-2903.2
-1072.94
-3132.75
-1494.27
-3325.57
-2247.45
-2843.79
-2893.09
-1546.33
-3956.55
-632.579
-5258.47
-696.633
-5855.22
-877.174
-5552.21
-113.733
-4170.77
320.299
82.7018
137.782
3009.94
279.529
3291.92
223.749
4156.93
-221.703
4457.97
-159.639
2924.85
461.413
-619.331
863.056
-3834.81
1111.61
-5885.5
1238.62
-6487.73
1360.26
-6457.63
1556.17
-6510.45
1816.86
-6760.56
2142.81
-7115.84
2490.13
-7440.05
2671.93
-6865.1
2482.68
-3370.23
1198.82
2154.95
252.182
4352.35
4910.78
1729.21
720.11
1605.09
731.621
1487.61
770.091
1288.12
881.119
787.705
1768.22
224.778
2857.39
227.214
1799.14
670.045
-299.084
1003.21
-1218.69
1161.36
-998.56
1200.12
-400.148
1150.68
222.45
1061.91
576.369
975.994
525.702
936.619
115.037
966.742
-419.624
1067.27
-916.124
1218.82
-1348.52
1395.34
-1647.13
1575.83
-1780.79
1755.74
-1823.44
1930.96
-1837.35
2092.89
-1834.37
2251.07
-1859.92
2435.43
-1984.33
2658.93
-2195.97
2905.46
-2448.21
3169.02
-2794.72
3470.33
-3276.93
3826.26
-3766.81
4229.2
-4090.33
4660.11
-4196.37
5104.58
-4139.84
5556.43
-4000.64
6014.06
-3841.1
6477.07
-3705.08
6945.67
-3627.17
7422.45
-3634.12
7912.61
-3733.9
8420.38
-3901.34
8944.39
-4075.46
9475.56
-4174.55
9996.44
-4117.91
10480.8
-3840.74
10895.8
-3308.89
11205.6
-2525.11
11378.9
-1543.18
11401.5
-509.549
11234.9
741.708
10902.9
2001.93
10449.1
3058.59
9912.3
3900.08
9326.27
4539.84
8716.61
5007.06
8093.4
5376.57
7439.09
5768.71
6700.42
6295.1
5823.02
6911.99
4846.02
7267.26
3910.71
7021.5
3105.88
6400.75
2405.06
5855.99
1719.76
5631.55
950.612
5743.54
11.4032
6094.87
-1071.71
6393.77
-2090.9
5770.01
-2768.17
3872.07
-3008
2446.96
-2847.73
-72.4845
-2912.28
-1463.7
-3122.74
-862.483
-3259.81
-1357.19
-3391.54
-2115.73
-3426.73
-2857.9
-3470.9
-3912.38
-3727.13
-5002.24
-4315.67
-5266.68
-5224.69
-4643.19
-7109.31
-2286.16
-7820.01
793.403
-7077.55
2267.48
-5883.12
2097.49
-3228.54
1502.34
-1131.92
2361.36
-203.778
1996.7
-429.372
-393.737
-1130
-3134.18
-1411.83
-5603.67
-1443.25
-6456.31
-1383.81
-6517.06
-1302.13
-6592.13
-1283.26
-6779.44
-1349.56
-7049.53
-1540.28
-7249.33
-1662.38
-6743.01
-1310.85
-3721.76
-2369.78
3213.88
-5248.97
7231.53
6865.37
1672.06
843.736
1540.47
863.222
1408.93
901.637
1131.59
1158.47
523.577
2376.25
7.58854
3373.39
197.366
1609.41
712.455
-814.162
1021.95
-1528.17
1167.27
-1143.87
1199.84
-432.686
1144.01
278.325
1048.95
671.465
953.899
620.778
902.849
166.127
922.627
-439.365
1017.18
-1010.65
1162.36
-1493.68
1329.66
-1814.42
1499.41
-1950.52
1665.87
-1989.88
1822.02
-1993.49
1967.67
-1979.99
2128.64
-2020.88
2333.08
-2188.75
2569.86
-2432.73
2803.06
-2681.4
3024.8
-3016.45
3265.63
-3517.74
3556.54
-4057.71
3900.71
-4434.49
4283.47
-4579.11
4690.93
-4547.29
5116.09
-4425.79
5556.16
-4281.16
6010.17
-4159.07
6479.35
-4096.34
6967.89
-4122.66
7480.29
-4246.28
8017.07
-4438.12
8573.02
-4631.4
9136.7
-4738.22
9688.82
-4670.03
10201
-4352.87
10638
-3745.92
10962.3
-2849.4
11140.4
-1721.24
11152.8
-521.968
10957
937.462
10585.2
2373.82
10083.7
3560.01
9498.76
4485.07
8875.08
5163.52
8250.39
5631.75
7645.02
5981.95
7045.64
6368.08
6382.46
6958.29
5557.84
7736.61
4583.05
8242.05
3622.58
7981.97
2799.77
7223.56
2099.34
6556.42
1428.65
6302.23
691.374
6480.82
-163.577
6949.82
-1081.12
7311.3
-1984.94
6673.84
-2782.58
4669.7
-3119.92
2784.29
-3225.5
33.098
-3271.86
-1417.35
-3238.24
-896.105
-3373.23
-1222.2
-3545.91
-1943.06
-3655.58
-2748.23
-3879.97
-3687.99
-4411.83
-4470.38
-5177.99
-4500.53
-6085.17
-3736.02
-7582.43
-788.894
-8453.48
1664.44
-8106.9
1920.9
-8110.82
2101.41
-8459.27
1850.78
-8462
2364.09
-7574.21
1108.91
-6749.92
-1218.02
-6292.19
-3591.91
-6073.56
-5822.3
-6233.27
-6296.6
-6457.21
-6293.13
-6637.43
-6411.91
-6802.95
-6613.92
-7065.15
-6787.33
-7600.21
-6714.27
-8395.05
-5948.18
-9186.72
-2930.09
-8964.81
2991.97
-8470.78
6737.51
7305.89
1612.37
973.196
1474.08
1001.52
1318.2
1057.54
951.34
1525.35
292.137
3035.48
-120.011
3785.56
209.459
1280.01
742.912
-1347.6
1032.25
-1817.49
1170.97
-1282.56
1198.95
-460.629
1137.29
340.033
1035.81
772.987
931.078
725.538
867.904
229.348
878.124
-449.535
967.669
-1100.17
1106.18
-1632.16
1263.77
-1971.98
1420.92
-2107.65
1569.56
-2138.49
1707.23
-2131.13
1851.11
-2123.84
2034.13
-2203.87
2262.78
-2417.38
2500.62
-2670.54
2706.06
-2886.82
2875.28
-3185.65
3048.52
-3690.96
3273.27
-4282.45
3563.46
-4724.66
3904.94
-4920.57
4281.06
-4923.4
4682.88
-4827.6
5107.28
-4705.54
5555.16
-4606.94
6031
-4572.17
6540.04
-4631.68
7083.33
-4789.56
7656.09
-5010.87
8249.16
-5224.46
8848.35
-5337.4
9431.9
-5253.57
9969.66
-4890.62
10426.1
-4202.31
10763.3
-3186.6
10946.9
-1904.81
10951.1
-526.207
10730.2
1158.37
10323.9
2780.08
9776.62
4107.34
9135.3
5126.39
8452.54
5846.29
7779.59
6304.7
7153.78
6607.76
6579.66
6942.2
5987.03
7550.92
5235.51
8488.14
4289.94
9187.62
3324.29
8947.62
2496.34
8051.5
1807
7245.77
1165.27
6943.96
480.566
7165.52
-280.947
7711.33
-1074.79
8105.14
-1897.93
7496.98
-2757.38
5529.15
-3219.26
3246.17
-3435.43
249.273
-3346.72
-1506.06
-3367.1
-875.727
-3609.99
-979.307
-3887.21
-1665.84
-4150.72
-2484.71
-4545.77
-3292.95
-5212.8
-3803.35
-6080.53
-3632.8
-7142.41
-2674.13
-8207.61
276.309
-8715.98
2172.81
-8906.55
2111.47
-8892.74
2087.59
-8912.67
1870.71
-8325.41
1776.83
-7271.41
54.9003
-6559.17
-1930.26
-6195.26
-3955.82
-6278.36
-5739.21
-6516.36
-6058.6
-6811.79
-5997.7
-7148.77
-6074.93
-7546.93
-6215.76
-8098.9
-6235.35
-8957.53
-5855.65
-10239
-4666.73
-11649.6
-1519.46
-11819.5
3161.92
-11490.7
6408.63
7411.93
1538.07
1103.35
1398.8
1140.79
1212.38
1243.97
761.82
1975.92
116.709
3680.6
-152.705
4054.98
272.846
854.546
767.724
-1842.47
1038.58
-2088.33
1173.47
-1417.43
1197.4
-484.523
1130.39
407.078
1022.51
880.893
907.695
840.378
832.266
304.814
833.835
-451.063
918.268
-1184.58
1048.05
-1761.92
1192.98
-2116.89
1332.84
-2247.49
1460.7
-2266.33
1588.57
-2258.98
1749.33
-2284.59
1962.83
-2417.36
2203.44
-2657.98
2422.95
-2890.04
2587.26
-3051.11
2699.23
-3297.61
2812.38
-3804.1
2989.68
-4459.74
3246.11
-4981.09
3561.27
-5235.72
3915.46
-5277.58
4299.97
-5212.1
4714.07
-5119.62
5162.39
-5055.24
5651.5
-5061.28
6184.29
-5164.46
6756.7
-5361.97
7360.02
-5614.19
7982.71
-5847.14
8608.35
-5963.03
9213.64
-5858.85
9768.62
-5445.59
10238.7
-4672.43
10586.1
-3533.93
10775.2
-2093.91
10771.6
-522.596
10528.4
1401.59
10095
3213.43
9511.85
4690.52
8822.45
5815.79
8079.98
6588.78
7343.36
7041.31
6665.66
7285.47
6077.13
7530.73
5527.35
8100.7
4847.66
9167.82
3947.7
10087.6
2995.35
9899.97
2177.31
8869.54
1511.78
7911.3
912.776
7542.96
294.44
7783.85
-371.659
8377.43
-1064.44
8797.91
-1813.83
8246.38
-2643.72
6359.04
-3058.54
3660.99
-3307.9
498.629
-3385.26
-1428.71
-3633.24
-627.746
-3926.4
-686.149
-4315.63
-1276.62
-4754.69
-2045.65
-5319.92
-2727.72
-6092.06
-3031.21
-7018.6
-2706.26
-8117.41
-1575.33
-8950.09
1108.99
-9187.22
2409.94
-9286.79
2211.04
-9172.62
1973.43
-9088.75
1786.85
-8413.38
1101.46
-7617.96
-740.518
-7144.45
-2403.77
-6886.29
-4213.97
-7061.13
-5564.37
-7352.75
-5766.98
-7734
-5616.45
-8220.61
-5588.32
-8844.5
-5591.87
-9679.93
-5399.92
-10774.5
-4761.07
-12132.3
-3308.93
-13377.6
-274.171
-13602.4
3386.68
-13274.8
6081.05
7186.76
1464.72
1244.32
1317.07
1288.45
1093.53
1467.52
581.497
2487.96
-0.813778
4262.93
-126.837
4181.03
351.942
375.857
788.198
-2278.72
1042.76
-2342.88
1174.47
-1549.12
1194.28
-504.295
1122.25
479.154
1008.32
994.86
883.378
965.347
795.724
392.511
789.291
-444.575
867.366
-1262.62
984.488
-1879.02
1111.95
-2244.33
1230.21
-2365.72
1340.68
-2376.78
1475.01
-2393.28
1666.76
-2476.32
1903.08
-2653.65
2130.86
-2885.74
2308.42
-3067.58
2419.9
-3162.57
2484.26
-3361.95
2570.06
-3889.88
2736.46
-4626.12
2982.3
-5226.91
3282.36
-5535.76
3621.28
-5616.49
3994.73
-5585.54
4404.97
-5529.85
4858.09
-5508.35
5359.09
-5562.27
5907.26
-5712.62
6496.17
-5950.87
7116.4
-6234.4
7755.42
-6486.16
8395.56
-6603.16
9013.56
-6476.85
9580.67
-6012.7
10062.9
-5154.62
10420.6
-3891.7
10616.5
-2289.72
10604.5
-510.674
10338.7
1667.46
9879.58
3672.53
9266.11
5304.01
8539.36
6542.54
7749.09
7379.05
6953.23
7837.17
6211.35
8027.36
5576.82
8165.26
5033
8644.53
4405.46
9795.35
3553.25
10939.8
2626.6
10826.6
1832.24
9663.89
1203.38
8540.16
662.236
8084.11
125.822
8320.26
-438.661
8941.92
-1038.91
9398.16
-1723.91
8931.37
-2513.74
7148.86
-2961.89
4109.14
-3357.64
894.377
-3584.16
-1202.19
-3914.74
-297.174
-4271.64
-329.242
-4769.51
-778.748
-5350.86
-1464.3
-6030.96
-2047.62
-6849.88
-2212.29
-7781.89
-1774.25
-8844.78
-512.439
-9432.95
1697.16
-9460.52
2437.5
-9475.99
2226.51
-9413.88
1911.31
-9241.05
1614.02
-8663.76
524.165
-8234.21
-1170.07
-7958.19
-2679.79
-7861.96
-4310.21
-8072.3
-5354.04
-8395.96
-5443.32
-8844.04
-5168.37
-9445.13
-4987.23
-10207.4
-4829.6
-11152.9
-4454.41
-12272.9
-3641.08
-13545.1
-2036.78
-14467.3
648.097
-14572.8
3492.2
-14253
5761.18
6841.23
1393.26
1394.19
1232.36
1449.36
968.539
1731.35
428.208
3028.3
-66.3451
4757.5
-61.4898
4176.18
413.448
-99.0433
804.528
-2669.79
1044.55
-2582.89
1172.92
-1677.47
1188.39
-519.741
1111.7
555.883
992.276
1114.31
857.591
1100.05
757.783
492.352
744.021
-430.768
813.499
-1332.07
912.527
-1978.03
1018.22
-2350
1115.16
-2462.64
1219.96
-2481.57
1377.82
-2551.11
1599.33
-2697.82
1831.11
-2885.41
2010.45
-3065.07
2121.8
-3178.91
2182.76
-3223.51
2237.04
-3416.22
2346.52
-3999.34
2532.98
-4812.56
2776.64
-5470.57
3062.89
-5821.99
3389.12
-5942.7
3755.73
-5952.15
4164.99
-5939.1
4620.85
-5964.2
5125.69
-6067.1
5677.79
-6264.7
6271.55
-6544.62
6898.2
-6861.04
7544.74
-7132.7
8193.27
-7251.69
8821.31
-7104.88
9400.82
-6592.19
9897.02
-5650.82
10267.4
-4262.03
10469.7
-2492.02
10449.8
-490.812
10162.3
1955.03
9674.54
4160.24
9028.85
5949.71
8267.92
7303.48
7440.41
8206.57
6598.72
8678.86
5797.71
8828.37
5102.44
8860.53
4532.45
9214.53
3928.16
10399.6
3113.75
11754.2
2217.77
11722.6
1457.29
10424.4
873.141
9124.3
394.101
8563.15
-65.64
8780
-538.307
9414.59
-1047.7
9907.56
-1666.41
9550.08
-2409.71
7892.16
-2923.11
4622.54
-3522.75
1494.01
-3856.28
-868.661
-4197.64
44.1869
-4639.46
112.574
-5228.99
-189.219
-5902.55
-790.742
-6643.59
-1306.58
-7463.38
-1392.5
-8366.79
-870.837
-9357.24
478.015
-9736.19
2076.1
-9672.11
2373.42
-9696.36
2250.76
-9697.16
1912.12
-9514.01
1430.86
-9118.82
128.981
-8946.13
-1342.76
-8862.45
-2763.47
-8933.65
-4239
-9188.07
-5099.62
-9517.71
-5113.68
-9971.51
-4714.56
-10606.3
-4352.44
-11414.3
-4021.56
-12370.4
-3498.37
-13439.2
-2572.25
-14550.5
-925.526
-15190.9
1288.48
-15210.5
3511.85
-14954.4
5505.12
6518.48
1322.65
1551.62
1146.51
1625.51
845.026
2032.85
308.038
3565.3
-93.2792
5158.83
-11.536
4094.46
449.146
-559.685
813.332
-3033.97
1042.6
-2812.15
1167.49
-1802.33
1178.23
-530.439
1097.24
636.914
973.383
1238.19
830.048
1243.42
718.994
603.444
698.767
-410.477
755.859
-1389.13
831.621
-2053.76
914.907
-2433.26
997.463
-2545.17
1112.25
-2596.33
1298.25
-2737.08
1522.63
-2922.17
1703.64
-3066.4
1798.45
-3159.85
1839.84
-3220.28
1887.5
-3271.15
1989.03
-3517.72
2157.33
-4167.63
2367.21
-5022.42
2603.11
-5706.45
2873.89
-6092.75
3188.76
-6257.56
3549.53
-6312.91
3956.31
-6345.86
4410.6
-6418.48
4913.76
-6570.24
5464.81
-6815.74
6059.34
-7139.14
6688.91
-7490.6
7340.49
-7784.27
7996.63
-7907.82
8635.54
-7743.79
9229.17
-7185.82
9741.36
-6163
10125.9
-4646.54
10334.2
-2700.38
10307.1
-463.684
9999.21
2262.95
9481.07
4678.38
8799.38
6631.41
8000.99
8101.87
7139.04
9068.53
6262.75
9555.15
5415.4
9675.73
4659.8
9616.12
4043.63
9830.71
3433.92
11009.3
2640.41
12547.7
1774.05
12589
1054.08
11144.3
522.776
9655.6
122.71
8963.22
-232.397
9135.1
-620.979
9803.17
-1094.46
10381
-1683.11
10138.7
-2385.47
8594.51
-2982.97
5220.04
-3756.74
2267.77
-4153.52
-471.873
-4496.2
386.866
-5025.61
641.984
-5671.87
457.039
-6380.85
-81.763
-7128.94
-558.493
-7925.77
-595.671
-8812.09
15.4815
-9659.68
1325.61
-9893.32
2309.74
-9887.2
2367.31
-9950.02
2313.58
-9968.27
1930.37
-9817.45
1280.05
-9639.73
-48.7388
-9664.47
-1318.02
-9767.79
-2660.15
-10012.3
-3994.53
-10352.6
-4759.33
-10704.2
-4762.06
-11128.5
-4290.26
-11721.9
-3759.04
-12493.3
-3250.16
-13391.1
-2600.55
-14366
-1597.34
-15246.7
-44.8335
-15701.8
1743.61
-15764.2
3574.2
-15580.6
5321.54
6257.15
1253.56
1715.14
1061.8
1817.28
729.653
2365
219.488
4075.47
-93.3832
5471.71
29.6103
3971.47
473.724
-1003.78
816.432
-3376.67
1036.19
-3031.89
1156.85
-1922.98
1162.47
-536.033
1077.89
721.52
950.971
1365.14
800.543
1393.86
680.955
723.061
654.828
-384.3
694.293
-1428.57
744.719
-2104.16
809.527
-2498.05
888.412
-2624.04
1021.22
-2729.12
1213.32
-2929.16
1387.07
-3095.9
1470.12
-3149.44
1477.69
-3167.4
1496.87
-3239.44
1595.67
-3369.94
1776.64
-3698.66
1994.37
-4385.34
2210.94
-5238.99
2434.9
-5930.4
2692.73
-6350.58
2997.92
-6562.74
3352.06
-6667.03
3754.39
-6748.19
4205.65
-6869.72
4706.84
-7071.43
5257.18
-7366.07
5852.51
-7734.47
6484.68
-8122.76
7141.22
-8440.8
7805.41
-8572
8455.98
-8394.36
9064.73
-7794.56
9593.99
-6692.25
9993.66
-5046.21
10209.2
-2915.93
10174.9
-429.351
9846.07
2591.8
9297.4
5227.04
8577.73
7351.09
7737.57
8942.03
6838.42
9967.69
5932.13
10461.4
5050.32
10557.5
4243.1
10423.3
3573.04
10500.8
2935.27
11647.1
2144.14
13338.9
1302.82
13430.3
626.435
11820.7
150.809
10131.2
-159.894
9273.92
-371.148
9346.35
-631.332
10063.4
-1073.37
10823.1
-1683.9
10749.3
-2394.97
9305.58
-3141.24
5966.3
-3974.39
3100.92
-4430.92
-15.3463
-4818.65
774.59
-5418.12
1241.46
-6078.54
1117.46
-6775.91
615.603
-7506.64
172.239
-8304.15
201.839
-9205.78
917.108
-9851.63
1971.45
-9988.48
2446.58
-10092
2470.79
-10195.3
2416.87
-10226.2
1961.34
-10147.6
1201.42
-10162.2
-34.1132
-10338.3
-1141.97
-10608.5
-2389.95
-11020.3
-3582.73
-11487.9
-4291.69
-11912.9
-4337.06
-12327.5
-3875.69
-12846.4
-3240.2
-13523.2
-2573.32
-14323.4
-1800.36
-15190.9
-729.829
-15862.4
626.677
-16202.1
2083.32
-16327.5
3699.55
-16219.5
5213.58
6065.34
1179.2
1874.65
979.134
2017.35
627.22
2716.92
157.852
4544.84
-76.1435
5705.72
66.2219
3829.13
491.336
-1428.87
814.399
-3699.72
1024.5
-3241.97
1139.91
-2038.37
1140.2
-536.281
1052.99
808.774
924.35
1493.8
768.614
1549.62
642.591
849.12
609.609
-351.246
628.44
-1447.37
656.177
-2131.87
708.307
-2550.16
790.422
-2706.12
927.922
-2866.6
1073.44
-3074.66
1139.97
-3162.41
1124.86
-3134.3
1114.37
-3156.89
1193.36
-3318.4
1372.68
-3549.23
1605.54
-3931.5
1836.85
-4616.64
2048.1
-5450.22
2263.82
-6146.1
2513.6
-6600.34
2810.87
-6860
3158.26
-7014.4
3555.96
-7145.88
4004.61
-7318.36
4504.57
-7571.38
5054.62
-7916.1
5650.69
-8330.54
6285.22
-8757.28
6946.53
-9102.11
7618.77
-9244.22
8281.18
-9056.77
8905.43
-8418.81
9452.41
-7239.22
9867.84
-5461.63
10091.4
-3139.49
10049.6
-387.55
9699.12
2942.3
9120.01
5806.15
8361.76
8109.34
7477.16
9826.63
6536.8
10908
5599.97
11398.3
4690.89
11466.6
3842.58
11271.7
3119.48
11223.9
2438.7
12327.9
1633.55
14144
810.348
14253.5
172.211
12458.9
-260.378
10563.8
-502.496
9516.04
-600.45
9444.3
-696.495
10159.4
-999.763
11126.3
-1588.38
11337.9
-2341.69
10058.9
-3308.65
6933.26
-4100.06
3892.33
-4712.28
596.871
-5153.56
1215.87
-5787.56
1875.46
-6438.75
1768.64
-7102.81
1279.66
-7829.67
899.1
-8672.49
1044.67
-9524.86
1769.47
-9962.71
2409.31
-10093.2
2577.08
-10273.9
2651.5
-10420.1
2563.08
-10499.3
2040.53
-10516.2
1218.35
-10662.2
111.82
-10947.3
-856.853
-11350.8
-1986.4
-11904.6
-3028.92
-12517.4
-3678.89
-13075.6
-3778.88
-13558.2
-3393.12
-14049.8
-2748.56
-14633
-1990.12
-15324.3
-1109.1
-16030.2
-23.8661
-16544.6
1141.04
-16872.9
2411.63
-17061.5
3888.13
-17050.3
5202.38
5957.47
1108.34
2042.23
900.724
2224.96
539.848
3077.8
116.979
4967.71
-50.9884
5873.7
98.0569
3680.09
503.022
-1833.83
807.11
-4003.81
1007.1
-3441.95
1116.32
-2147.58
1110.61
-530.546
1021.26
898.147
892.381
1622.71
733.245
1708.78
600.341
982.049
559.056
-309.899
558.351
-1446.64
568.122
-2141.62
610.641
-2592.66
689.407
-2784.87
789.683
-2966.85
828.941
-3113.9
789.114
-3122.56
765.055
-3110.22
834.946
-3226.76
997.392
-3480.83
1214.74
-3766.57
1450.69
-4167.43
1675.11
-4841.04
1882
-5657.1
2094.29
-6358.39
2338.69
-6844.72
2629.34
-7150.65
2970.71
-7355.77
3364.01
-7539.17
3809.78
-7764.12
4307.92
-8069.5
4856.97
-8465.15
5453.13
-8926.69
6089.44
-9393.58
6755.13
-9767.79
7435.14
-9924.23
8109.25
-9730.86
8748.91
-9058.47
9313.55
-7803.86
9744.44
-5892.51
9976.17
-3371.21
9926.45
-337.82
9553.92
3314.84
8944.8
6415.27
8147.96
8906.19
7217.81
10756.8
6233.41
11892.5
5263.49
12368.2
4329.93
12400.2
3449.38
12152.2
2678.29
11995
1946.11
13060.1
1113.67
14976.5
303.594
15063.5
-295.391
13057.9
-694.161
10962.6
-905.659
9727.54
-952.779
9491.42
-922.076
10128.7
-1021.4
11225.6
-1479.51
11796
-2228.87
10808.2
-3285.61
7989.99
-4071.59
4678.31
-4995.92
1521.21
-5493.14
1713.08
-6132.23
2514.55
-6761.75
2398.16
-7404.85
1922.76
-8164.13
1658.37
-9040.99
1921.53
-9709.72
2438.2
-9986.37
2685.96
-10199.1
2789.82
-10433.7
2886.1
-10627.8
2757.13
-10788.9
2201.64
-10907.7
1337.17
-11134
338.129
-11490.8
-500.042
-11986.7
-1490.5
-12637
-2378.68
-13370.1
-2945.73
-14079.1
-3069.96
-14704.5
-2767.73
-15274.4
-2178.61
-15853.5
-1410.99
-16482.7
-479.982
-17044.6
538.102
-17474.6
1570.98
-17839.7
2776.8
-18081.1
4129.53
-18158.1
5279.37
5924.31
1042.69
2215.61
829.546
2438.11
467.892
3439.47
90.4778
5345.13
-26.2054
5990.4
123.332
3530.58
509.305
-2219.78
794.624
-4289.12
984.253
-3631.57
1086.53
-2249.83
1073.46
-517.424
981.59
990.05
853.789
1750.54
692.901
1869.69
551.469
1123.51
502.423
-260.764
484.497
-1428.67
479.152
-2136.24
507.326
-2620.8
554.441
-2831.96
563.009
-2975.4
494.477
-3045.33
451.128
-3079.18
522.423
-3181.48
676.702
-3381.01
864.015
-3668.11
1072.49
-3975.02
1295.97
-4390.89
1514.84
-5059.89
1720.67
-5862.91
1930.52
-6568.22
2169.64
-7083.83
2454.07
-7435.06
2789.76
-7691.44
3178.32
-7927.72
3620.31
-8206.1
4115.62
-8564.8
4662.84
-9012.36
5258.4
-9522.24
5895.94
-10031.1
6565.55
-10437.4
7252.88
-10611.6
7937.93
-10415.9
8591.79
-9712.33
9172.35
-8384.4
9616.41
-6336.57
9855.16
-3609.95
9796.91
-279.563
9403.24
3708.52
8766.21
7052.3
7931.91
9740.49
6956.3
11732.4
5926.66
12922.1
4921.36
13373.5
3963.58
13358
3057.11
13058.7
2244.23
12807.9
1456.84
13847.4
587.351
15845.9
-209.496
15860.4
-763.709
13612.1
-1127.82
11326.7
-1311
9910.73
-1327.15
9507.57
-1255.2
10056.7
-1227.71
11198.2
-1509.46
12077.8
-2173.83
11472.6
-3200.59
9016.75
-4095.83
5573.54
-5275.87