/*--------------------------------*- C++ -*----------------------------------*\
| =========                 |                                                 |
| \\      /  F ield         | OpenFOAM: The Open Source CFD Toolbox           |
|  \\    /   O peration     | Version:  4.1                                   |
|   \\  /    A nd           | Web:      www.OpenFOAM.org                      |
|    \\/     M anipulation  |                                                 |
\*---------------------------------------------------------------------------*/
FoamFile
{
    version     2.0;
    format      ascii;
    class       volVectorField;
    location    "1500";
    object      U;
}
// * * * * * * * * * * * * * * * * * * * * * * * * * * * * * * * * * * * * * //

dimensions      [0 1 -1 0 0 0 0];

internalField   nonuniform List<vector> 
26785
(
(-2.12976e-15 0.0558739 15.9309)
(-1.31419e-15 0.0507347 14.7569)
(-4.5808e-15 0.0518198 13.6762)
(2.50766e-16 0.0505068 12.6191)
(6.92433e-15 0.0520769 11.6659)
(4.35246e-14 0.0771914 10.4985)
(2.74679e-14 0.0802704 8.85396)
(2.95762e-14 0.0629431 7.33058)
(-2.39881e-14 0.0360037 6.40247)
(4.96714e-14 0.0210634 5.92364)
(8.85096e-15 0.0179983 5.63759)
(1.5675e-14 0.0257978 5.33092)
(1.54071e-14 0.0369974 4.83993)
(1.2012e-14 0.0308357 4.26055)
(1.06749e-14 0.00922388 3.89089)
(1.0272e-14 -0.0119662 3.88043)
(1.17562e-14 -0.0286683 4.16811)
(1.19038e-14 -0.0478999 4.71821)
(1.08467e-14 -0.0653561 5.51154)
(5.4246e-14 -0.0758259 6.46332)
(-2.42981e-14 -0.0798768 7.47788)
(-3.15161e-14 -0.081017 8.49285)
(-6.37419e-15 -0.0813853 9.48347)
(-1.44054e-14 -0.0827412 10.4549)
(7.98007e-15 -0.0866789 11.4369)
(-8.61614e-15 -0.0927585 12.4674)
(-8.65469e-15 -0.101131 13.5727)
(-7.72585e-15 -0.115166 14.7912)
(1.93891e-14 -0.1356 16.1889)
(1.07262e-14 -0.155943 17.7934)
(-1.1569e-15 -0.16875 19.5374)
(-4.33061e-14 -0.171651 21.2996)
(-3.50996e-14 -0.166617 22.9745)
(-5.51527e-14 -0.157325 24.5034)
(-2.47806e-14 -0.147538 25.8729)
(-2.07676e-14 -0.14052 27.1071)
(-7.30888e-15 -0.138522 28.2586)
(-2.34916e-15 -0.142117 29.3924)
(-1.16288e-15 -0.149898 30.5675)
(3.81554e-15 -0.158863 31.8186)
(-1.74691e-14 -0.16526 33.146)
(-5.7548e-15 -0.165457 34.5142)
(-1.09655e-14 -0.156589 35.8572)
(9.09156e-15 -0.136878 37.0886)
(3.23999e-15 -0.105881 38.114)
(2.17326e-14 -0.06449 38.843)
(1.34252e-14 -0.01514 39.2008)
(1.8155e-14 0.0361632 39.152)
(1.74585e-14 0.0914724 38.676)
(2.17501e-14 0.148257 37.7615)
(6.94753e-16 0.197032 36.4451)
(2.34607e-16 0.235303 34.8103)
(-3.93009e-15 0.264135 32.9453)
(-2.14779e-15 0.285388 30.9216)
(-2.49424e-15 0.302427 28.7881)
(-6.76977e-15 0.319117 26.5636)
(2.22106e-14 0.337287 24.2407)
(-7.54393e-15 0.35366 21.812)
(6.34602e-16 0.358707 19.3167)
(4.30802e-14 0.344191 16.8721)
(-1.73631e-14 0.314132 14.6234)
(-2.39036e-14 0.278982 12.6502)
(-2.60026e-14 0.244895 10.9468)
(2.70459e-15 0.210985 9.48156)
(-1.66406e-14 0.17184 8.24963)
(6.71093e-15 0.120595 7.30586)
(2.06223e-15 0.0788167 6.63857)
(-2.58133e-15 0.0267687 6.29149)
(-1.33612e-14 -0.00663347 6.32411)
(1.60588e-14 0.0349407 6.31691)
(-7.99349e-14 -0.0359529 6.34335)
(-1.14872e-13 -0.193763 6.75277)
(-4.50491e-14 -0.144274 7.55494)
(-2.79366e-14 0.0694603 7.89615)
(-4.74842e-14 0.148954 7.68729)
(-5.49337e-14 -0.0489393 7.82734)
(-2.3055e-15 -0.276974 9.00417)
(-5.47258e-15 -0.369025 11.0746)
(-1.82891e-14 -0.322565 13.5677)
(-2.48234e-14 -0.120672 15.4735)
(-1.85005e-14 0.0731644 16.1791)
(-1.91509e-14 0.190081 15.6898)
(-3.69652e-14 0.261673 14.3859)
(-1.97189e-14 0.279954 12.5992)
(-1.91227e-14 0.266169 10.8911)
(-1.93616e-14 0.268421 9.1159)
(-4.22592e-16 0.0959474 7.83393)
(-3.54337e-15 -0.260515 8.31354)
(-3.06906e-14 -0.37062 10.3003)
(-2.10483e-14 -0.381127 12.7019)
(-9.88666e-15 -0.398654 15.0349)
(-1.76678e-14 -0.411861 17.357)
(-2.266e-14 -0.42909 19.7011)
(-2.22233e-14 -0.448352 22.097)
(-2.03342e-14 -0.453607 24.5471)
(-1.40607e-14 -0.405285 26.8786)
(-1.57048e-14 -0.222412 28.7148)
(-1.28761e-14 0.0212603 29.2146)
(-1.1037e-14 0.250038 29.1048)
(-7.35188e-15 0.394139 26.2503)
(-2.49158e-15 0.15368 15.9727)
(9.16157e-15 0.143011 14.7691)
(-6.49238e-16 0.149396 13.6509)
(4.86241e-15 0.146742 12.5736)
(-7.9219e-15 0.155297 11.6192)
(4.72031e-14 0.237048 10.3511)
(-2.41777e-14 0.247589 8.53702)
(-4.12461e-15 0.190659 6.92324)
(2.05348e-14 0.116033 6.00865)
(-3.62536e-14 0.0659754 5.71713)
(-2.14992e-14 0.0450862 5.76926)
(-5.26235e-15 0.0715417 5.66969)
(2.52154e-15 0.10805 5.25703)
(3.45434e-15 0.0914848 4.71934)
(4.99313e-14 0.0283956 4.36793)
(1.98366e-16 -0.0362886 4.38709)
(-2.7331e-14 -0.0895365 4.74913)
(2.23082e-14 -0.14813 5.39337)
(1.18342e-14 -0.198352 6.25569)
(-2.94676e-14 -0.227062 7.24252)
(3.51231e-15 -0.236637 8.26431)
(-4.20476e-14 -0.237453 9.26621)
(-7.11036e-15 -0.236505 10.2323)
(-2.61445e-14 -0.239927 11.1776)
(-2.85951e-14 -0.253203 12.1421)
(-1.1071e-14 -0.27514 13.1706)
(-1.91321e-14 -0.30511 14.2891)
(-1.6058e-14 -0.350856 15.527)
(-4.99832e-15 -0.411898 16.9364)
(1.80958e-14 -0.467514 18.5308)
(-1.29614e-14 -0.496158 20.2347)
(-3.70945e-16 -0.492521 21.9255)
(-3.39564e-15 -0.464313 23.4992)
(-2.72241e-15 -0.424069 24.8976)
(-7.7308e-15 -0.384286 26.1072)
(-1.42304e-14 -0.355604 27.1521)
(-1.37375e-14 -0.345277 28.0856)
(-7.9852e-15 -0.355301 28.9772)
(-8.16169e-16 -0.381623 29.8953)
(2.92124e-15 -0.415253 30.889)
(7.20404e-15 -0.444543 31.9747)
(-1.55736e-14 -0.457634 33.1302)
(-3.84343e-15 -0.444555 34.2981)
(-2.3176e-14 -0.398614 35.3952)
(-1.24187e-14 -0.317496 36.3265)
(-1.83348e-14 -0.203376 36.9987)
(1.0051e-14 -0.0634583 37.3315)
(-1.26374e-14 0.0842359 37.2874)
(2.82762e-14 0.245435 36.8331)
(-1.70914e-14 0.411043 35.9671)
(3.08603e-14 0.553515 34.7274)
(1.98751e-14 0.666818 33.189)
(2.49669e-14 0.753874 31.4354)
(2.98076e-14 0.819636 29.5314)
(3.03769e-15 0.873463 27.5216)
(2.32259e-14 0.926381 25.4219)
(4.63072e-14 0.983622 23.2231)
(7.76874e-15 1.0353 20.915)
(-8.09955e-15 1.05267 18.5331)
(9.86243e-15 1.01122 16.1916)
(6.30427e-15 0.923862 14.0326)
(6.99607e-14 0.822647 12.128)
(7.64344e-15 0.726534 10.4622)
(-3.01255e-14 0.632678 8.99277)
(3.79741e-14 0.522131 7.70938)
(8.5053e-15 0.368772 6.68034)
(6.02375e-15 0.245617 5.9161)
(3.75624e-14 0.0631406 5.55113)
(7.10156e-14 -0.0819764 5.69)
(-3.5637e-14 0.00821325 5.68596)
(1.10605e-14 -0.0905646 5.8431)
(-1.00273e-13 -0.416646 6.22787)
(-1.12404e-13 -0.369355 7.14465)
(-1.05558e-13 -0.0788407 7.28457)
(-1.44298e-14 -0.0559677 7.06167)
(4.15178e-14 -0.368639 7.08345)
(-2.97787e-14 -0.709438 7.96801)
(-6.01809e-14 -1.04451 10.1848)
(-7.66367e-14 -1.13318 13.1409)
(-9.92258e-14 -0.667796 15.374)
(-8.83995e-14 -0.0674593 16.4265)
(-6.93564e-14 0.44849 16.0044)
(-6.87074e-14 0.818908 14.5528)
(-2.64196e-14 0.940415 12.4713)
(-8.53309e-15 0.890482 10.5324)
(-5.06253e-15 0.812818 8.60169)
(-3.88209e-14 0.248928 7.53149)
(-5.08807e-14 -0.761285 7.91203)
(-5.52701e-15 -1.11978 9.77034)
(4.68468e-15 -1.21727 12.2657)
(-2.7989e-15 -1.27487 14.6886)
(-9.73784e-15 -1.31376 17.0929)
(-2.02428e-14 -1.37436 19.5053)
(-2.16538e-14 -1.43954 21.9364)
(-3.98676e-14 -1.45319 24.3791)
(-4.558e-14 -1.29943 26.6933)
(-5.36007e-14 -0.739519 28.5186)
(-5.6371e-14 0.010511 29.051)
(-5.30547e-14 0.756028 28.9634)
(-4.38843e-14 1.20062 26.0375)
(-2.68256e-15 0.262111 15.9433)
(-1.29359e-14 0.245285 14.6857)
(1.57916e-14 0.254274 13.494)
(-1.00926e-14 0.246646 12.3725)
(-3.54478e-14 0.266761 11.4051)
(1.09785e-14 0.414611 9.94871)
(-5.32228e-14 0.437385 7.81475)
(-2.67435e-14 0.320818 5.94882)
(-1.73567e-14 0.175697 5.16147)
(-8.01413e-15 0.0529891 5.48253)
(-4.2775e-15 0.0207741 6.0554)
(-2.2285e-15 0.0944636 6.1252)
(-4.80368e-16 0.170504 5.74928)
(1.69159e-16 0.149623 5.22414)
(6.69153e-16 0.0479172 4.86682)
(3.85084e-14 -0.0623169 4.88833)
(-3.64883e-14 -0.156924 5.26869)
(1.21265e-14 -0.254988 5.92643)
(-3.18228e-14 -0.334062 6.78315)
(1.87687e-14 -0.376841 7.74348)
(2.53125e-15 -0.389141 8.72334)
(-2.63034e-14 -0.388524 9.67678)
(1.26835e-15 -0.386918 10.5965)
(-6.01544e-17 -0.39473 11.5022)
(-2.28347e-14 -0.420365 12.4323)
(-1.28726e-14 -0.460174 13.4236)
(-5.05999e-15 -0.51132 14.4907)
(-1.30597e-15 -0.58561 15.6558)
(9.08543e-15 -0.682692 16.974)
(1.3377e-14 -0.769905 18.4742)
(1.71295e-14 -0.812828 20.0962)
(-5.40398e-15 -0.802794 21.7254)
(-4.1954e-15 -0.751963 23.2595)
(-9.32605e-15 -0.680218 24.6365)
(-9.75472e-15 -0.607583 25.8335)
(-1.02916e-14 -0.551632 26.8607)
(-6.89499e-15 -0.525225 27.7565)
(3.13325e-15 -0.533409 28.5815)
(6.46262e-15 -0.571551 29.4044)
(6.92984e-15 -0.626168 30.2821)
(1.02366e-14 -0.677956 31.2409)
(9.32206e-15 -0.706118 32.2666)
(2.5211e-15 -0.692721 33.308)
(-6.85814e-16 -0.62554 34.2867)
(-9.5115e-17 -0.49992 35.1106)
(6.73119e-16 -0.318788 35.686)
(1.63084e-16 -0.0937444 35.928)
(-2.10609e-15 0.145968 35.7998)
(-3.47652e-15 0.40849 35.2503)
(-4.55194e-15 0.674186 34.2962)
(-3.78005e-15 0.899304 32.9885)
(4.33559e-16 1.07732 31.41)
(3.89623e-15 1.21387 29.6501)
(6.2271e-15 1.31746 27.7732)
(1.06025e-14 1.40336 25.8212)
(2.80133e-14 1.48948 23.806)
(1.37717e-14 1.58436 21.7127)
(-4.14928e-15 1.67158 19.5227)
(1.29093e-14 1.7027 17.262)
(-9.63524e-15 1.63647 15.0392)
(2.05466e-14 1.4963 12.9934)
(2.71248e-14 1.33736 11.1863)
(2.97742e-14 1.19213 9.58615)
(1.99762e-14 1.05522 8.13289)
(4.07676e-14 0.890382 6.80288)
(3.49498e-16 0.640413 5.67873)
(-4.23389e-14 0.403587 4.77513)
(8.22605e-15 0.0665695 4.50256)
(-4.08945e-14 -0.139504 4.77847)
(-3.01071e-14 0.197048 5.05047)
(8.13228e-15 -0.0199228 5.3603)
(1.61084e-14 -0.414614 5.21231)
(-3.14166e-14 -0.325168 6.2993)
(2.13472e-15 0.0526152 6.58199)
(1.03996e-13 -0.060887 6.41068)
(1.91398e-14 -0.584595 5.95566)
(-9.05166e-14 -1.22395 6.86177)
(-1.26342e-13 -1.96026 9.7054)
(-1.11288e-13 -2.08575 12.7967)
(-9.21758e-14 -1.22517 14.5835)
(-8.82816e-14 -0.139064 15.2233)
(-8.51167e-14 0.803193 14.6691)
(-7.16066e-14 1.45773 13.3852)
(-6.51525e-14 1.66292 11.4564)
(-3.31906e-14 1.54135 9.63124)
(-1.62314e-14 1.30608 7.7721)
(-1.3744e-14 0.344627 6.93977)
(-1.58754e-14 -1.19925 7.13994)
(-1.58884e-14 -1.81726 8.98566)
(-2.74217e-14 -2.06436 11.4762)
(-4.93903e-14 -2.18313 13.8152)
(-5.59156e-14 -2.24653 16.069)
(-7.71374e-14 -2.3228 18.2323)
(-8.85689e-14 -2.39208 20.3309)
(-9.21273e-14 -2.39094 22.4147)
(-9.67466e-14 -2.14945 24.4587)
(-1.01554e-13 -1.23456 26.1252)
(-1.01004e-13 -0.0160869 26.6094)
(-9.31071e-14 1.23814 26.696)
(-7.87118e-14 1.97099 24.0673)
(-2.64144e-15 0.376306 15.8474)
(-1.18731e-14 0.355128 14.5293)
(-1.54484e-14 0.364836 13.2528)
(-3.40606e-14 0.348217 12.0951)
(-1.66607e-14 0.388313 11.0926)
(-2.77449e-14 0.621552 9.2843)
(-1.56556e-14 0.661793 6.6425)
(2.1865e-14 0.449277 4.58353)
(-7.51728e-15 0.174392 4.44629)
(-4.81286e-15 -0.0370761 5.65239)
(-4.98712e-15 -0.0284464 6.4365)
(-4.09779e-15 0.119005 6.45948)
(-6.27795e-15 0.237053 6.03015)
(-3.71821e-14 0.210126 5.4798)
(8.45666e-15 0.0680209 5.08942)
(8.36522e-15 -0.0897655 5.09163)
(-1.84585e-15 -0.226298 5.46529)
(-2.82958e-14 -0.361842 6.11171)
(1.63678e-14 -0.466794 6.9453)
(7.81514e-16 -0.521102 7.86555)
(2.39651e-15 -0.535096 8.79181)
(-9.46221e-15 -0.53347 9.68635)
(3.33919e-15 -0.532048 10.5466)
(-5.36327e-15 -0.544154 11.3869)
(-8.99001e-15 -0.579942 12.233)
(-5.25833e-15 -0.633403 13.1127)
(8.35992e-16 -0.701057 14.0447)
(7.46897e-15 -0.801292 15.0647)
(1.07313e-14 -0.936082 16.2504)
(9.61942e-15 -1.06056 17.6506)
(-2.22965e-15 -1.12515 19.2091)
(-7.84248e-15 -1.11607 20.8061)
(-6.27658e-15 -1.04926 22.3366)
(-1.4194e-14 -0.951285 23.7394)
(6.7882e-15 -0.848505 24.9894)
(-1.41597e-14 -0.764393 26.0875)
(3.0246e-15 -0.717559 27.0565)
(4.55433e-15 -0.717601 27.9414)
(-1.11522e-14 -0.761101 28.801)
(-2.16666e-15 -0.831038 29.6895)
(1.6498e-14 -0.900672 30.6368)
(-1.75484e-15 -0.940513 31.6368)
(-2.58588e-15 -0.924963 32.648)
(1.63998e-14 -0.836069 33.5986)
(1.71477e-14 -0.666011 34.3976)
(2.65704e-14 -0.41734 34.9481)
(-1.01129e-15 -0.105189 35.1585)
(-4.45032e-15 0.23099 34.9922)
(-1.6177e-14 0.600843 34.3735)
(9.75175e-15 0.968881 33.3326)
(-1.0803e-14 1.27464 31.9201)
(1.34033e-14 1.51185 30.2303)
(-8.2972e-15 1.68939 28.3658)
(-6.11048e-15 1.82046 26.4026)
(1.53404e-15 1.92743 24.3919)
(-3.21773e-15 2.03633 22.3501)
(3.57466e-14 2.16022 20.2607)
(6.98375e-15 2.27706 18.0981)
(2.22642e-14 2.31771 15.8817)
(9.93697e-15 2.22305 13.7223)
(3.68333e-14 2.02941 11.7609)
(-1.20194e-14 1.81772 10.045)
(3.20246e-14 1.6349 8.51666)
(-1.05281e-15 1.47339 7.08826)
(1.12859e-14 1.27326 5.70717)
(-2.9726e-14 0.945761 4.46351)
(1.32739e-13 0.607017 3.28462)
(-1.53769e-13 0.0396627 3.35187)
(-1.64741e-13 -0.749106 2.81256)
(-1.53174e-13 -0.643037 3.78291)
(-1.29748e-13 -0.147498 3.72987)
(-5.98592e-14 -0.514612 2.95274)
(1.146e-13 -0.294417 2.97472)
(1.23099e-13 0.35025 4.3256)
(-1.55327e-13 0.240221 5.42335)
(-1.89688e-13 -0.580511 5.16053)
(-1.69437e-13 -1.7618 6.40605)
(-1.36853e-13 -2.88508 9.22895)
(-6.97251e-14 -2.87446 11.6432)
(-4.16235e-14 -1.60316 12.6892)
(-3.43949e-14 -0.119553 12.8091)
(-5.39939e-14 1.11128 12.042)
(-6.2719e-14 1.95387 11.0654)
(-6.20918e-14 2.25186 9.63896)
(-6.24279e-14 2.07673 8.2508)
(-3.56497e-14 1.6653 6.63823)
(-5.38704e-14 0.393585 6.13502)
(-3.83629e-14 -1.53138 6.11327)
(-5.08821e-14 -2.45688 8.13521)
(-8.30475e-14 -2.87752 10.5354)
(-8.85388e-14 -3.01411 12.488)
(-1.02003e-13 -3.04135 14.2081)
(-1.05406e-13 -3.08615 15.7948)
(-1.05492e-13 -3.15077 17.3765)
(-1.01634e-13 -3.17943 19.0478)
(-1.11159e-13 -2.94035 20.8253)
(-1.11408e-13 -1.71912 22.2284)
(-1.19216e-13 -0.0837695 22.4456)
(-1.13671e-13 1.5826 22.5675)
(-1.01945e-13 2.58876 20.3914)
(-2.73739e-15 0.483417 15.6827)
(-9.88593e-15 0.461986 14.3068)
(4.90863e-15 0.475501 12.9499)
(-2.8688e-14 0.451837 11.7845)
(-1.61608e-14 0.533348 10.6793)
(1.69487e-14 0.877821 8.26238)
(-4.3396e-14 0.906768 5.04274)
(1.13054e-14 0.537407 3.27985)
(8.49665e-15 0.0493062 4.37443)
(1.65682e-17 -0.172251 6.02637)
(-2.86527e-15 -0.0716999 6.71305)
(-4.53858e-14 0.153356 6.62342)
(-1.09066e-14 0.306848 6.13183)
(-3.96859e-14 0.271331 5.55064)
(-9.94555e-15 0.0884821 5.11874)
(1.64905e-14 -0.117244 5.09192)
(-2.18893e-14 -0.295916 5.45069)
(-1.53253e-14 -0.467977 6.08002)
(-2.64334e-15 -0.596854 6.88371)
(3.67624e-15 -0.660395 7.75304)
(-1.88025e-15 -0.674603 8.61104)
(-2.25986e-14 -0.671219 9.42948)
(-9.3684e-15 -0.668551 10.2096)
(-1.1006e-14 -0.68166 10.9558)
(-8.1015e-15 -0.722977 11.6803)
(-5.37746e-15 -0.786413 12.4169)
(6.72781e-15 -0.869961 13.2066)
(-8.87635e-15 -0.999577 14.1034)
(-2.16936e-15 -1.17867 15.1957)
(-3.21947e-15 -1.34727 16.5321)
(-1.62008e-15 -1.43861 18.0462)
(-3.20897e-15 -1.43441 19.6106)
(-6.24961e-15 -1.35612 21.1223)
(-2.18597e-14 -1.23768 22.5279)
(-8.23034e-15 -1.11081 23.8099)
(-4.00504e-15 -1.00298 24.9698)
(-4.91628e-15 -0.936943 26.0222)
(-8.03017e-15 -0.926435 26.9967)
(-7.35429e-15 -0.970111 27.9357)
(-6.91617e-15 -1.04929 28.8838)
(-3.67822e-15 -1.13197 29.8715)
(3.90636e-15 -1.18118 30.9002)
(3.03188e-14 -1.1632 31.934)
(2.98918e-14 -1.05289 32.9027)
(3.77525e-14 -0.838059 33.7145)
(3.94437e-14 -0.520347 34.2716)
(3.86196e-14 -0.118244 34.4806)
(3.80466e-14 0.318856 34.3121)
(3.09099e-14 0.802514 33.6688)
(4.29075e-14 1.27915 32.6023)
(3.35523e-14 1.67181 31.1523)
(5.8435e-14 1.97348 29.4142)
(4.65541e-14 2.1944 27.4915)
(3.69658e-14 2.35137 25.4639)
(2.59347e-14 2.47429 23.3903)
(-6.6491e-16 2.59901 21.2924)
(1.17096e-14 2.74512 19.1517)
(2.00735e-14 2.88545 16.9369)
(2.20696e-14 2.92756 14.6703)
(1.11145e-14 2.7928 12.4865)
(2.40464e-14 2.53594 10.547)
(-4.62186e-14 2.26937 8.88762)
(1.2463e-14 2.05679 7.41597)
(-4.48338e-16 1.88971 6.00454)
(1.94537e-14 1.68535 4.56106)
(1.17136e-13 1.26719 3.10387)
(-7.90791e-14 0.685745 1.81356)
(-1.12223e-13 0.241029 0.397355)
(3.84753e-14 -0.0514871 -4.62468)
(3.00161e-13 -0.0136371 -6.66034)
(-1.74958e-14 -0.775042 -5.0687)
(-8.63368e-14 -1.51806 -3.86125)
(-1.90639e-13 -1.67698 -2.39149)
(-1.26565e-13 -1.24787 1.06919)
(-3.84266e-13 -0.206701 4.22285)
(-2.38119e-13 -0.354545 4.31435)
(-1.17621e-13 -2.11763 5.75778)
(-8.448e-14 -3.596 7.94531)
(-2.78874e-14 -3.41878 9.21349)
(-1.72024e-14 -1.77248 9.90057)
(2.19287e-14 0.0251277 9.86449)
(-1.08228e-14 1.37422 8.8524)
(-7.26471e-14 2.25347 8.06552)
(-6.84766e-14 2.63847 7.2847)
(-6.77248e-14 2.4855 6.50985)
(-4.96761e-14 1.90152 5.16923)
(-5.33224e-14 0.419535 4.98741)
(-6.39951e-14 -1.80051 5.15198)
(-8.54676e-14 -3.07089 7.43603)
(-9.4357e-14 -3.56056 9.37024)
(-9.78693e-14 -3.61482 10.5968)
(-1.01496e-13 -3.58683 11.624)
(-1.00514e-13 -3.6443 12.6821)
(-1.03486e-13 -3.76461 13.8892)
(-1.0554e-13 -3.87691 15.2853)
(-1.18627e-13 -3.66856 16.8353)
(-1.2984e-13 -2.15404 17.7346)
(-1.32165e-13 -0.15992 17.3513)
(-1.25551e-13 1.79974 17.1155)
(-1.1342e-13 3.04555 15.391)
(-3.02657e-15 0.614579 15.3501)
(-1.08192e-14 0.580882 13.9275)
(4.04644e-15 0.589073 12.5223)
(-9.81884e-15 0.560721 11.3986)
(2.04357e-15 0.718292 10.0709)
(-3.2376e-15 1.19234 6.80686)
(-1.22928e-14 1.11944 3.2816)
(-1.07073e-13 0.553626 2.45452)
(8.04363e-15 -0.148114 4.68703)
(2.84292e-14 -0.302976 6.32762)
(-1.73312e-15 -0.0981704 6.85504)
(-3.88163e-14 0.198004 6.67732)
(-4.93017e-15 0.381514 6.14056)
(-8.99052e-15 0.336608 5.52918)
(-1.51697e-14 0.113153 5.05078)
(-1.9269e-14 -0.141869 4.98431)
(-1.80788e-14 -0.36424 5.31907)
(7.71303e-15 -0.572259 5.9252)
(-7.21144e-15 -0.722501 6.69242)
(-1.21519e-14 -0.792027 7.50211)
(-3.00603e-14 -0.804405 8.28423)
(-6.44032e-15 -0.798531 9.02536)
(-1.8335e-14 -0.793236 9.72789)
(-1.85676e-14 -0.804016 10.3769)
(8.28011e-15 -0.847547 10.9779)
(-3.72939e-15 -0.920815 11.5954)
(-7.9086e-15 -1.02346 12.2975)
(-1.58483e-14 -1.18681 13.1297)
(-2.2047e-14 -1.41379 14.1603)
(-1.59836e-15 -1.62857 15.4304)
(-8.5384e-15 -1.74771 16.8755)
(4.72208e-15 -1.74987 18.3741)
(-1.05351e-14 -1.66317 19.8313)
(-9.07888e-15 -1.52936 21.2029)
(-2.10283e-14 -1.38504 22.4791)
(-1.66389e-14 -1.2602 23.6654)
(-1.64392e-14 -1.17976 24.7733)
(-1.22506e-14 -1.16013 25.8207)
(-8.21253e-15 -1.20223 26.8353)
(-7.59568e-15 -1.28752 27.8522)
(1.83821e-14 -1.38035 28.8987)
(3.60342e-14 -1.43639 29.9741)
(2.83113e-14 -1.4132 31.0405)
(5.59644e-14 -1.27841 32.028)
(4.9797e-14 -1.016 32.8476)
(4.36954e-14 -0.627074 33.4051)
(3.60038e-14 -0.133408 33.6071)
(3.04539e-14 0.405783 33.4334)
(2.60666e-14 1.00391 32.767)
(2.52979e-14 1.58711 31.6946)
(2.99165e-14 2.06496 30.2502)
(3.91997e-14 2.43197 28.5338)
(4.63142e-14 2.69956 26.6431)
(4.90511e-14 2.88655 24.6492)
(5.01548e-14 3.02937 22.6051)
(4.54594e-14 3.17433 20.5254)
(3.58794e-14 3.3487 18.3762)
(2.68622e-14 3.51828 16.1053)
(3.38982e-14 3.56016 13.7374)
(1.19136e-14 3.37177 11.4548)
(-1.78316e-15 3.03501 9.47135)
(-2.60897e-14 2.7042 7.82419)
(2.60344e-15 2.46481 6.38462)
(5.67406e-15 2.31182 4.97762)
(7.49078e-14 2.15688 3.43643)
(2.67618e-14 1.78878 1.58521)
(2.10405e-13 1.36928 -1.65424)
(1.67941e-13 1.04639 -3.87365)
(2.62445e-13 0.265733 -5.61747)
(3.4393e-13 -0.726222 -5.41151)
(-2.02229e-14 -1.52015 -3.49387)
(-9.60359e-14 -1.7785 -4.17341)
(-1.46545e-13 -2.02141 -4.43074)
(-1.34621e-13 -2.16174 -4.82174)
(-1.08203e-13 -1.36911 -1.93917)
(2.1745e-14 -1.18944 2.39507)
(-2.63547e-14 -2.57219 4.36073)
(-2.62374e-14 -3.98926 5.61357)
(-4.66585e-15 -3.92831 5.51873)
(-4.14989e-15 -2.20696 6.42656)
(-4.97472e-15 0.357624 6.9534)
(-9.08948e-15 1.85153 5.74877)
(-3.859e-14 2.4601 4.91353)
(-7.26816e-14 2.78259 4.75221)
(-3.26264e-14 2.60449 4.59755)
(-1.32215e-13 1.89435 3.50061)
(-1.3122e-13 0.0109811 3.44614)
(-7.75187e-14 -2.29546 4.31334)
(-9.00713e-14 -3.61358 6.57828)
(-9.61534e-14 -3.99207 7.72715)
(-9.33922e-14 -3.96189 8.25402)
(-9.44491e-14 -3.95492 8.76788)
(-9.82176e-14 -4.09346 9.47822)
(-1.09585e-13 -4.29176 10.3453)
(-1.28839e-13 -4.4737 11.4404)
(-1.34825e-13 -4.17833 12.6095)
(-1.46288e-13 -2.13418 12.6984)
(-1.53807e-13 0.135207 11.635)
(-1.49154e-13 2.01562 10.5598)
(-1.25617e-13 3.38737 9.29879)
(-2.89158e-15 0.728548 14.9955)
(2.24812e-16 0.694634 13.4985)
(-9.44296e-15 0.697497 12.0356)
(-1.12576e-14 0.678772 10.943)
(4.10229e-15 0.958894 9.17481)
(2.63272e-14 1.54484 4.92896)
(1.19194e-14 1.26044 1.62147)
(1.15397e-14 0.429975 2.26538)
(3.51754e-14 -0.384386 5.08499)
(3.38876e-14 -0.417801 6.51176)
(-2.20845e-14 -0.11289 6.9208)
(-2.13759e-15 0.248442 6.6834)
(-3.80267e-15 0.459102 6.11141)
(-6.97756e-15 0.405519 5.46713)
(-4.94549e-15 0.142158 4.93783)
(2.24788e-14 -0.163058 4.82024)
(-1.31818e-14 -0.430386 5.12254)
(-2.38913e-14 -0.673641 5.7037)
(-8.38395e-16 -0.842632 6.43357)
(-9.82346e-15 -0.91526 7.18383)
(2.06452e-14 -0.92504 7.89977)
(-6.34725e-16 -0.917055 8.58225)
(-2.16221e-14 -0.906946 9.21677)
(-5.94762e-15 -0.91111 9.76622)
(-2.33657e-15 -0.956132 10.2662)
(-4.46411e-15 -1.04393 10.8356)
(1.1259e-14 -1.16968 11.5323)
(3.67087e-15 -1.36547 12.338)
(-3.19451e-14 -1.6363 13.2873)
(-1.13301e-14 -1.8949 14.4394)
(-1.02484e-14 -2.04239 15.7594)
(-1.10271e-14 -2.05366 17.1439)
(-8.60248e-15 -1.96288 18.5085)
(-6.76482e-15 -1.81935 19.815)
(-3.99662e-15 -1.66421 21.0574)
(-9.57083e-15 -1.52923 22.2424)
(-1.01989e-14 -1.44016 23.3783)
(-4.40543e-15 -1.41496 24.4756)
(8.46211e-16 -1.45676 25.554)
(1.14224e-15 -1.54758 26.641)
(2.74756e-14 -1.64823 27.7553)
(1.94207e-14 -1.70733 28.8878)
(4.31499e-14 -1.67487 29.998)
(3.10638e-14 -1.51236 31.0188)
(2.16872e-14 -1.20021 31.8644)
(9.38268e-15 -0.738293 32.4398)
(9.15579e-16 -0.150876 32.6452)
(-1.57769e-14 0.492819 32.4659)
(-2.93422e-14 1.20638 31.7576)
(-8.65033e-14 1.89119 30.6507)
(-1.0057e-13 2.44616 29.1802)
(-1.07961e-13 2.87062 27.4688)
(-4.98328e-14 3.17946 25.6222)
(-1.55197e-14 3.39453 23.7078)
(1.41018e-14 3.5594 21.77)
(3.23554e-14 3.73279 19.8071)
(4.04752e-14 3.95216 17.7514)
(2.25215e-14 4.17308 15.4976)
(3.69004e-14 4.2279 13.045)
(1.3858e-14 3.9786 10.633)
(1.06525e-14 3.54344 8.56155)
(-1.71048e-15 3.134 6.89201)
(-3.15117e-15 2.86581 5.46534)
(-3.06211e-14 2.74404 4.0616)
(4.12518e-14 2.69675 2.46004)
(-8.26547e-14 2.5689 0.402721)
(1.69149e-13 2.08776 -2.66172)
(1.64276e-13 1.43777 -4.61269)
(-8.56546e-14 0.43445 -5.21465)
(-2.77119e-14 -0.747471 -4.76693)
(-1.36137e-13 -1.56219 -3.28173)
(-1.24432e-13 -1.53291 -4.35444)
(-2.03893e-13 -1.93586 -4.60449)
(-1.68617e-13 -2.5334 -4.86991)
(-1.74199e-13 -2.48903 -4.7053)
(-1.23217e-13 -2.46655 -1.72199)
(-3.34797e-14 -3.27805 0.917454)
(-2.40085e-15 -4.21699 1.87751)
(6.28985e-16 -4.44519 0.570058)
(1.34032e-14 -3.47744 0.767518)
(4.17598e-14 -0.855634 3.76071)
(3.5935e-14 1.87073 3.64536)
(-3.57596e-14 2.44589 2.86164)
(1.8013e-14 2.86374 3.39297)
(3.46529e-14 3.02022 3.13262)
(-3.78257e-14 2.09049 1.84331)
(2.13189e-15 -0.296799 2.64609)
(-5.36276e-14 -2.44404 3.44419)
(-1.04468e-13 -3.7328 4.92087)
(-8.0894e-14 -4.118 5.33976)
(-8.19111e-14 -4.13348 5.46371)
(-9.72381e-14 -4.21112 5.69546)
(-1.1035e-13 -4.43746 6.10356)
(-1.19601e-13 -4.72766 6.53711)
(-1.29351e-13 -5.00448 7.22958)
(-1.43601e-13 -4.68315 7.7142)
(-1.57259e-13 -2.3254 7.13619)
(-1.89752e-13 1.23424 6.68949)
(-1.73786e-13 2.49972 4.58354)
(-1.38676e-13 3.27163 3.63903)
(-1.35805e-14 0.850369 14.6069)
(-1.39246e-15 0.815123 13.042)
(-1.58995e-14 0.807007 11.537)
(-1.79514e-14 0.821113 10.4106)
(1.51833e-15 1.27067 7.92176)
(2.03492e-14 1.91811 2.75144)
(1.15766e-14 1.26697 0.169113)
(5.30182e-14 0.0534147 2.67072)
(1.4562e-14 -0.63183 5.41422)
(1.02045e-14 -0.516756 6.61805)
(1.05875e-14 -0.119624 6.95608)
(8.60401e-15 0.304148 6.67347)
(3.77189e-15 0.540671 6.06901)
(1.93563e-16 0.479592 5.38767)
(-2.19626e-16 0.177476 4.80472)
(-3.62023e-14 -0.178982 4.62609)
(-3.43211e-16 -0.493417 4.89299)
(4.31076e-15 -0.77181 5.45431)
(6.96068e-15 -0.957252 6.14995)
(5.65163e-16 -1.03121 6.84855)
(-3.8895e-15 -1.03882 7.51659)
(-8.51592e-15 -1.02775 8.15048)
(-1.91222e-14 -1.00831 8.70603)
(-1.01166e-14 -1.00456 9.16416)
(3.59955e-15 -1.05853 9.63764)
(-7.1774e-18 -1.16898 10.2631)
(5.03037e-15 -1.31461 11.0062)
(-9.55979e-15 -1.53017 11.7635)
(-6.83048e-16 -1.83396 12.5688)
(-6.36331e-15 -2.13325 13.5333)
(-9.52349e-15 -2.31177 14.6685)
(-1.07741e-14 -2.33752 15.894)
(-9.87192e-15 -2.24926 17.1345)
(-8.01051e-15 -2.10314 18.3547)
(-2.38965e-15 -1.9443 19.5478)
(-1.52356e-14 -1.80581 20.7167)
(-1.14052e-15 -1.71384 21.8651)
(5.85761e-15 -1.68774 23.0007)
(1.00962e-14 -1.73258 24.1423)
(7.03946e-15 -1.83022 25.3113)
(2.55041e-14 -1.93761 26.5139)
(3.32059e-14 -1.99731 27.7316)
(3.57515e-14 -1.95317 28.9216)
(9.0117e-15 -1.76089 30.0166)
(-8.91726e-15 -1.39643 30.927)
(-2.14155e-14 -0.85743 31.5511)
(-3.03294e-14 -0.17019 31.779)
(-3.24188e-14 0.585818 31.6004)
(-5.56352e-14 1.42176 30.8342)
(-8.26933e-14 2.20804 29.6582)
(-8.6578e-14 2.83372 28.1027)
(-1.06467e-13 3.3038 26.3235)
(-8.48378e-14 3.63901 24.4517)
(-6.35822e-14 3.86741 22.5711)
(-4.05648e-14 4.04312 20.7332)
(-1.81178e-14 4.24261 18.9307)
(2.26584e-14 4.52155 17.0615)
(1.95953e-14 4.82594 14.9348)
(2.82279e-14 4.92351 12.4713)
(-5.90554e-15 4.61808 9.94929)
(6.66113e-15 4.06966 7.77976)
(1.13687e-15 3.56546 6.07444)
(5.11164e-15 3.26218 4.65651)
(2.31157e-15 3.17941 3.27349)
(1.95398e-14 3.25927 1.68611)
(7.33572e-14 3.3221 -0.305124)
(3.33692e-14 2.93912 -2.94375)
(3.55622e-14 1.83129 -4.49161)
(-1.45636e-13 0.42637 -5.23077)
(-1.19896e-13 -1.03148 -4.62107)
(-8.60457e-14 -1.79055 -4.14942)
(-1.25857e-13 -1.37044 -5.02533)
(-1.34166e-13 -1.74176 -5.02614)
(-1.54995e-13 -2.32795 -5.30016)
(-1.38889e-13 -2.72268 -5.15506)
(-5.03916e-14 -3.09903 -4.31988)
(-4.28431e-14 -3.73365 -3.78098)
(-5.24597e-14 -4.13962 -4.03135)
(3.06848e-15 -4.03847 -6.03812)
(3.99556e-14 -2.5736 -7.56473)
(1.00381e-13 0.316312 -10.9354)
(1.88536e-14 1.94723 -5.98013)
(-8.74034e-14 1.72435 -7.42156)
(-2.05318e-15 1.94482 -3.46744)
(7.89971e-14 2.17047 0.51662)
(1.18108e-13 1.50744 1.80242)
(1.77763e-14 -0.0587597 2.47297)
(-8.28058e-14 -1.57704 0.920638)
(-1.1215e-13 -3.34477 1.04018)
(-1.03233e-13 -4.10261 1.05593)
(-9.61398e-14 -4.24949 1.05607)
(-1.14519e-13 -4.38731 1.17276)
(-1.22711e-13 -4.64252 1.2926)
(-1.29851e-13 -4.99601 1.21648)
(-1.36852e-13 -5.38291 1.15966)
(-1.55415e-13 -5.3894 0.380046)
(-1.7146e-13 -3.98346 -0.725494)
(-1.92142e-13 0.268981 1.85621)
(-1.87455e-13 3.50781 -1.30172)
(-1.4459e-13 3.93942 -5.42311)
(-2.08591e-14 0.976609 14.1792)
(-2.70758e-15 0.939898 12.5553)
(-1.10793e-14 0.920476 11.0315)
(4.64745e-15 1.00372 9.753)
(1.26189e-14 1.65435 6.34202)
(1.442e-14 2.2829 0.681473)
(-3.51069e-14 1.1629 -0.676196)
(4.00419e-15 -0.33764 3.10755)
(9.14426e-15 -0.851813 5.60761)
(-1.43577e-14 -0.603102 6.67516)
(8.3712e-15 -0.121272 6.97851)
(1.46764e-14 0.364265 6.65767)
(9.68449e-15 0.626141 6.02239)
(3.3881e-15 0.559176 5.30061)
(7.5887e-16 0.219748 4.66309)
(-1.82178e-15 -0.189467 4.41637)
(1.68598e-17 -0.55382 4.6522)
(2.4491e-14 -0.86715 5.20092)
(3.59992e-14 -1.06702 5.86419)
(-2.37765e-14 -1.14153 6.5193)
(-1.25877e-14 -1.14654 7.14583)
(-8.03484e-15 -1.1288 7.71489)
(-1.06852e-14 -1.09806 8.18168)
(2.954e-14 -1.09477 8.60722)
(-7.06105e-15 -1.17073 9.16264)
(-3.72183e-15 -1.30447 9.89971)
(-5.29172e-15 -1.45426 10.6606)
(1.09198e-14 -1.67022 11.3087)
(-3.46447e-15 -1.99545 11.9084)
(-1.02648e-14 -2.334 12.6303)
(1.24917e-15 -2.54855 13.542)
(-9.43757e-15 -2.59648 14.5881)
(-7.1775e-15 -2.51923 15.6961)
(7.93465e-15 -2.37882 16.8269)
(9.66506e-15 -2.22377 17.9679)
(1.51743e-15 -2.08821 19.1161)
(1.2919e-14 -1.99933 20.2747)
(1.2736e-14 -1.97848 21.4572)
(1.03621e-14 -2.03196 22.6844)
(1.11872e-15 -2.13972 23.9665)
(4.62413e-19 -2.25436 25.2926)
(-7.34786e-15 -2.31366 26.6334)
(3.32436e-15 -2.2561 27.941)
(-1.602e-14 -2.03114 29.1413)
(-2.33771e-14 -1.60987 30.1382)
(-3.0066e-14 -0.987505 30.8248)
(-3.7624e-14 -0.19235 31.0848)
(-4.45007e-14 0.686813 30.9144)
(-4.90029e-14 1.65646 30.0892)
(-5.71954e-14 2.55048 28.8361)
(-6.65355e-14 3.24841 27.1658)
(-7.24066e-14 3.75811 25.2592)
(-7.38374e-14 4.10501 23.2747)
(-7.24674e-14 4.32498 21.3292)
(-6.88884e-14 4.48634 19.5056)
(-5.89094e-14 4.69052 17.8202)
(-8.95247e-15 5.02694 16.1652)
(5.35636e-15 5.44386 14.2581)
(4.10572e-14 5.6251 11.8808)
(3.10286e-14 5.28144 9.30402)
(2.64023e-14 4.612 7.05755)
(7.0457e-15 3.99808 5.32594)
(8.16492e-15 3.65009 3.92904)
(-5.25069e-15 3.60337 2.59723)
(9.17984e-14 3.79954 1.096)
(3.64271e-14 3.98204 -0.70149)
(1.85515e-14 3.59963 -2.85494)
(-4.99733e-14 2.22145 -4.30047)
(-1.8488e-13 0.506243 -5.53815)
(-1.68441e-13 -1.00226 -5.46473)
(-1.34469e-13 -1.77964 -5.62692)
(-1.17717e-13 -1.4269 -5.52626)
(-9.78203e-14 -1.74017 -5.30445)
(-7.69799e-14 -2.23397 -5.64659)
(-8.3427e-14 -2.683 -5.61653)
(-5.6707e-14 -3.13653 -5.36335)
(-9.93896e-14 -3.63277 -5.54492)
(-3.35165e-14 -3.83992 -6.37355)
(-3.16471e-14 -3.66191 -8.10554)
(-2.22446e-15 -2.43435 -9.11208)
(2.34312e-14 -0.819478 -12.423)
(-1.45971e-14 0.421293 -10.719)
(-1.94443e-14 0.263197 -11.2031)
(-8.59094e-14 0.103806 -11.2179)
(-5.75021e-14 0.535005 -11.7001)
(-1.14026e-13 0.0525365 -11.5529)
(-1.49661e-13 -0.910879 -8.63995)
(-1.17955e-13 -1.86135 -7.00606)
(-1.0787e-13 -3.73365 -5.45647)
(-1.04519e-13 -4.27082 -5.54374)
(-1.06567e-13 -4.36142 -5.92974)
(-9.78507e-14 -4.51143 -6.25715)
(-1.01033e-13 -4.73935 -6.56572)
(-1.23711e-13 -5.04069 -7.01092)
(-1.22209e-13 -5.34103 -7.78887)
(-1.61112e-13 -5.1835 -9.72691)
(-1.6703e-13 -2.72676 -12.2222)
(-1.80067e-13 2.42441 -11.5129)
(-1.72082e-13 4.89053 -9.41185)
(-1.3192e-13 4.7287 -11.4701)
(-1.51078e-15 1.0937 13.7256)
(-2.97506e-15 1.06178 12.0543)
(-1.18662e-15 1.04295 10.5138)
(1.33364e-15 1.23829 8.92845)
(1.53234e-14 2.08076 4.58859)
(5.28214e-15 2.59329 -0.759602)
(2.28841e-14 1.06822 -0.936116)
(-3.26248e-15 -0.69326 3.43847)
(1.30958e-15 -1.04599 5.71764)
(3.21683e-15 -0.680715 6.71104)
(-1.95147e-14 -0.118358 6.99495)
(-1.1496e-14 0.428986 6.64131)
(2.59218e-14 0.715888 5.97642)
(-4.11097e-14 0.644851 5.21058)
(2.46696e-15 0.26971 4.51824)
(-2.0039e-15 -0.194614 4.19965)
(8.43747e-15 -0.612216 4.4125)
(2.84965e-14 -0.959783 4.95065)
(-4.0925e-15 -1.17238 5.5777)
(-1.50601e-14 -1.24654 6.18794)
(-1.2079e-14 -1.24641 6.75718)
(-2.61959e-15 -1.21935 7.2377)
(5.47167e-15 -1.18399 7.64637)