/*--------------------------------*- C++ -*----------------------------------*\
| =========                 |                                                 |
| \\      /  F ield         | OpenFOAM: The Open Source CFD Toolbox           |
|  \\    /   O peration     | Version:  4.1                                   |
|   \\  /    A nd           | Web:      www.OpenFOAM.org                      |
|    \\/     M anipulation  |                                                 |
\*---------------------------------------------------------------------------*/
FoamFile
{
    version     2.0;
    format      ascii;
    class       volScalarField;
    location    "1500";
    object      p;
}
// * * * * * * * * * * * * * * * * * * * * * * * * * * * * * * * * * * * * * //

dimensions      [0 2 -2 0 0 0 0];

internalField   nonuniform List<scalar> 
26785
(
-83.5966
-74.6532
-69.3116
-67.1355
-65.6792
-64.6081
-64.0136
-63.6098
-63.1036
-62.3649
-61.3636
-60.1346
-58.7523
-57.2685
-55.7185
-54.1431
-52.5473
-50.8965
-49.1513
-47.2814
-45.2661
-43.0832
-40.6893
-38.0484
-35.2441
-32.495
-30.025
-27.9513
-26.2931
-25.0311
-24.0484
-23.2454
-22.5691
-22.0645
-21.8955
-21.7805
-21.7486
-22.0758
-22.6778
-23.5923
-24.9734
-27.0924
-30.3184
-35.016
-41.3887
-49.3865
-58.7366
-69.037
-79.8474
-90.7607
-101.457
-111.723
-121.432
-130.479
-138.729
-146.012
-152.166
-157.062
-160.621
-162.808
-163.646
-163.213
-161.651
-159.18
-156.108
-152.82
-149.694
-147.021
-144.758
-142.193
-138.278
-132.2
-123.706
-113.649
-103.426
-94.1402
-86.3433
-80.1211
-75.2278
-71.2037
-67.4777
-63.4844
-58.7828
-53.1707
-46.7523
-39.8696
-32.9201
-26.2293
-20.0446
-14.5461
-9.83316
-5.93091
-2.82404
-0.472246
1.16263
2.15573
2.50295
2.42033
1.56084
0.993348
-83.5791
-74.6348
-69.3012
-67.1289
-65.6746
-64.6065
-64.0152
-63.6142
-63.1101
-62.3727
-61.3718
-60.1424
-58.7597
-57.2754
-55.7246
-54.1488
-52.5531
-50.9024
-49.1574
-47.2879
-45.2735
-43.0926
-40.7008
-38.0603
-35.2537
-32.5012
-30.0289
-27.9543
-26.2962
-25.0364
-24.0541
-23.247
-22.5627
-22.0522
-21.891
-21.7711
-21.7305
-22.0714
-22.6875
-23.6107
-24.9957
-27.1165
-30.3471
-35.0564
-41.4492
-49.4725
-58.8487
-69.1714
-79.9975
-90.9185
-101.614
-111.876
-121.578
-130.62
-138.868
-146.151
-152.302
-157.197
-160.752
-162.935
-163.763
-163.316
-161.732
-159.229
-156.122
-152.806
-149.676
-147.032
-144.838
-142.372
-138.554
-132.566
-124.071
-113.924
-103.587
-94.2089
-86.3577
-80.1215
-75.2495
-71.2725
-67.605
-63.6647
-58.9934
-53.3785
-46.9301
-40.006
-33.0138
-26.2816
-20.0601
-14.5321
-9.79655
-5.8768
-2.75643
-0.394687
1.24715
2.24282
2.58987
2.50076
1.62216
1.03177
-83.5665
-74.6037
-69.2859
-67.1212
-65.6696
-64.6067
-64.0211
-63.6252
-63.1252
-62.3902
-61.3895
-60.1593
-58.7756
-57.2897
-55.7372
-54.1605
-52.5645
-50.9142
-49.1699
-47.3015
-45.2892
-43.1123
-40.7252
-38.0855
-35.2741
-32.5146
-30.0372
-27.9606
-26.3029
-25.0477
-24.0661
-23.2522
-22.5568
-22.0383
-21.8958
-21.7764
-21.7231
-22.0812
-22.711
-23.6465
-25.0429
-27.1765
-30.4261
-35.166
-41.6006
-49.6701
-59.0888
-69.4447
-80.2907
-91.2169
-101.904
-112.149
-121.832
-130.86
-139.099
-146.374
-152.52
-157.409
-160.96
-163.137
-163.959
-163.498
-161.893
-159.357
-156.204
-152.839
-149.667
-146.998
-144.849
-142.562
-138.968
-133.185
-124.722
-114.423
-103.879
-94.3298
-86.3787
-80.1193
-75.2923
-71.4103
-67.8597
-64.0255
-59.4145
-53.7931
-47.2838
-40.2773
-33.2004
-26.3863
-20.0923
-14.5067
-9.72713
-5.7734
-2.62692
-0.245944
1.40933
2.40993
2.75593
2.65295
1.73352
1.10225
-83.5508
-74.5452
-69.2547
-67.1048
-65.6593
-64.6054
-64.0292
-63.6414
-63.1478
-62.4163
-61.416
-60.1845
-58.7992
-57.311
-55.7559
-54.1779
-52.582
-50.9323
-49.1893
-47.3225
-45.3133
-43.1422
-40.7614
-38.1225
-35.3038
-32.5342
-30.05
-27.9709
-26.3139
-25.065
-24.0847
-23.266
-22.5634
-22.0315
-21.9063
-21.7785
-21.698
-22.0898
-22.7487
-23.7072
-25.1241
-27.2817
-30.5673
-35.3614
-41.8649
-50.006
-59.4864
-69.886
-80.7542
-91.6801
-102.348
-112.56
-122.21
-131.212
-139.432
-146.695
-152.83
-157.711
-161.255
-163.427
-164.24
-163.764
-162.133
-159.555
-156.345
-152.915
-149.684
-146.961
-144.8
-142.622
-139.238
-133.727
-125.412
-115.005
-104.236
-94.4762
-86.3967
-80.1102
-75.3519
-71.6113
-68.235
-64.5594
-60.0383
-54.405
-47.8031
-40.6738
-33.4721
-26.5375
-20.1376
-14.4687
-9.62589
-5.62365
-2.44014
-0.0320478
1.64215
2.64927
2.9932
2.86878
1.89127
1.19981
-83.5404
-74.4787
-69.2196
-67.0872
-65.6487
-64.606
-64.042
-63.6647
-63.1792
-62.4521
-61.452
-60.2184
-58.8308
-57.3394
-55.7807
-54.2011
-52.6053
-50.9568
-49.2158
-47.3515
-45.3465
-43.1829
-40.8102
-38.1719
-35.3432
-32.5601
-30.0672
-27.9854
-26.3294
-25.0884
-24.1111
-23.2896
-22.5812
-22.0269
-21.9241
-21.7934
-21.684
-22.1231
-22.8135
-23.7979
-25.242
-27.4345
-30.7714
-35.6387
-42.2311
-50.4602
-60.0121
-70.4583
-81.3455
-92.2628
-102.898
-113.064
-122.667
-131.632
-139.828
-147.072
-153.194
-158.066
-161.606
-163.776
-164.586
-164.101
-162.447
-159.825
-156.549
-153.041
-149.732
-146.934
-144.737
-142.645
-139.451
-134.188
-126.064
-115.58
-104.586
-94.6015
-86.3822
-80.0745
-75.4136
-71.8636
-68.7211
-65.2599
-60.86
-55.2087
-48.4811
-41.19
-33.8246
-26.732
-20.1948
-14.4194
-9.49614
-5.43266
-2.20273
0.239254
1.93718
2.95223
3.29378
3.13996
2.093
1.31123
-83.4864
-74.3959
-69.1773
-67.0658
-65.6365
-64.6079
-64.0589
-63.6945
-63.219
-62.4971
-61.497
-60.2606
-58.8701
-57.3745
-55.8113
-54.2298
-52.6346
-50.9881
-49.25
-47.3891
-45.3893
-43.2347
-40.8715
-38.2334
-35.3918
-32.592
-30.0886
-28.0039
-26.349
-25.1181
-24.1471
-23.3269
-22.6165
-22.035
-21.9595
-21.8251
-21.6961
-22.1879
-22.9121
-23.9319
-25.417
-27.6599
-31.0638
-36.0192
-42.7126
-51.037
-60.6623
-71.1527
-82.053
-92.9527
-103.544
-113.65
-123.193
-132.112
-140.275
-147.496
-153.599
-158.46
-161.997
-164.169
-164.984
-164.497
-162.826
-160.164
-156.819
-153.225
-149.824
-146.931
-144.659
-142.596
-139.56
-134.52
-126.601
-116.067
-104.866
-94.6621
-86.3062
-79.9915
-75.4607
-72.1531
-69.3068
-66.12
-61.8753
-56.1976
-49.3091
-41.8177
-34.2513
-26.9645
-20.2609
-14.3581
-9.33972
-5.2044
-1.92047
0.560847
2.2866
3.31096
3.65101
3.4593
2.3391
1.42084
-83.3827
-74.2944
-69.1255
-67.0381
-65.6204
-64.6091
-64.0782
-63.7295
-63.266
-62.5503
-61.55
-60.3104
-58.9163
-57.4158
-55.8475
-54.2643
-52.6702
-51.0267
-49.2926
-47.436
-45.4424
-43.2983
-40.9458
-38.3073
-35.4498
-32.6298
-30.1142
-28.0264
-26.3726
-25.1542
-24.1947
-23.3806
-22.6703
-22.0617
-22.0093
-21.8751
-21.7493
-22.2849
-23.0457
-24.1109
-25.6505
-27.9591
-31.445
-36.5018
-43.3058
-51.7295
-61.4266
-71.9557
-82.8613
-93.7337
-104.269
-114.302
-123.775
-132.639
-140.763
-147.954
-154.034
-158.881
-162.414
-164.591
-165.416
-164.937
-163.26
-160.565
-157.152
-153.467
-149.967
-146.966
-144.598
-142.522
-139.605
-134.749
-127.009
-116.431
-105.037
-94.6249
-86.1426
-79.8397
-75.4744
-72.4636
-69.9798
-67.134
-63.0823
-57.367
-50.2795
-42.5501
-34.7463
-27.2301
-20.333
-14.2849
-9.15904
-4.94344
-1.59973
0.925157
2.68217
3.71747
4.05919
3.81923
2.63555
1.5056
-83.2749
-74.1886
-69.0735
-67.0109
-65.6049
-64.6124
-64.1017
-63.7706
-63.3205
-62.6117
-61.6111
-60.3675
-58.9694
-57.4633
-55.8894
-54.3046
-52.7125
-51.073
-49.3442
-47.4928
-45.5063
-43.3741
-41.0336
-38.3941
-35.5177
-32.674
-30.1443
-28.0526
-26.4003
-25.1975
-24.2557
-23.4503
-22.7437
-22.1177
-22.0461
-21.9439
-21.8681
-22.4164
-23.2171
-24.3374
-25.9449
-28.3337
-31.915
-37.0827
-44.0015
-52.5225
-62.285
-72.8445
-83.7471
-94.5834
-105.053
-115.003
-124.395
-133.198
-141.281
-148.438
-154.491
-159.321
-162.849
-165.034
-165.875
-165.412
-163.739
-161.02
-157.542
-153.765
-150.159
-147.041
-144.557
-142.431
-139.585
-134.878
-127.276
-116.647
-105.072
-94.4649
-85.8691
-79.5989
-75.4362
-72.7784
-70.728
-68.2985
-64.4821
-58.7133
-51.3844
-43.3805
-35.3036
-27.5231
-20.4081
-14.1996
-8.95647
-4.65443
-1.247
1.32443
3.11541
4.16381
4.51313
4.21183
2.98858
1.51746
-83.1571
-74.0595
-69.0077
-66.9757
-65.5847
-64.6144
-64.1268
-63.8158
-63.3811
-62.6801
-61.679
-60.4312
-59.0288
-57.5166
-55.9368
-54.351
-52.7618
-51.1276
-49.4052
-47.56
-45.5812
-43.462
-41.1349
-38.4942
-35.5961
-32.7253
-30.1793
-28.0829
-26.4326
-25.2487
-24.3307
-23.5383
-22.8407
-22.214
-22.0498
-22.0475
-22.0297
-22.5838
-23.426
-24.6107
-26.2989
-28.7821
-32.4703
-37.7555
-44.7889
-53.4016
-63.2206
-73.8015
-84.6931
-95.4857
-105.881
-115.739
-125.044
-133.782
-141.819
-148.94
-154.962
-159.772
-163.295
-165.488
-166.351
-165.913
-164.254
-161.521
-157.982
-154.113
-150.4
-147.16
-144.551
-142.345
-139.515
-134.926
-127.411
-116.707
-104.956
-94.1656
-85.4686
-79.2516
-75.3281
-73.0811
-71.54
-69.6138
-66.0803
-60.2351
-52.6172
-44.3028
-35.9169
-27.8377
-20.4828
-14.1019
-8.73453
-4.34236
-0.869204
1.75063
3.57744
4.64212
5.0052
4.63519
3.3841
1.39363
-83.0412
-73.9252
-68.9388
-66.9381
-65.563
-64.6166
-64.1544
-63.8656
-63.4479
-62.7555
-61.7538
-60.5014
-59.0945
-57.5756
-55.9898
-54.4036
-52.8184
-51.1909
-49.4761
-47.6378
-45.6673
-43.562
-41.2492
-38.6073
-35.6855
-32.7843
-30.2196
-28.1177
-26.4708
-25.3089
-24.4201
-23.6467
-22.9641
-22.3641
-22.0693
-22.1811
-22.2152
-22.7818
-23.6707
-24.9288
-26.7104
-29.3012
-33.1062
-38.5122
-45.6565
-54.3514
-64.2154
-74.8076
-85.6809
-96.424
-106.738
-116.498
-125.709
-134.38
-142.371
-149.453
-155.441
-160.23
-163.746
-165.95
-166.838
-166.433
-164.799
-162.063
-158.465
-154.505
-150.687
-147.324
-144.581
-142.271
-139.415
-134.909
-127.42
-116.611
-104.684
-93.7183
-84.9293
-78.7832
-75.1343
-73.3558
-72.4056
-71.0847
-67.8882
-61.9335
-53.9724
-45.3126
-36.5807
-28.1684
-20.5546
-13.992
-8.49617
-4.01264
-0.473561
2.19544
4.05841
5.14376
5.52259
5.10385
3.79697
1.14494
-82.8815
-73.7819
-68.8668
-66.8973
-65.5389
-64.6184
-64.1835
-63.9189
-63.52
-62.8369
-61.8347
-60.5775
-59.1659
-57.6403
-56.0485
-54.4627
-52.8828
-51.2632
-49.5574
-47.7267
-45.7646
-43.6733
-41.3756
-38.7325
-35.7857
-32.8516
-30.2662
-28.1583
-26.5165
-25.379
-24.5217
-23.7752
-23.1132
-22.5756
-22.1835
-22.331
-22.419
-23.0074
-23.9493
-25.2892
-27.1756
-29.8859
-33.816
-39.3433
-46.5914
-55.3563
-65.2524
-75.8461
-86.6953
-97.3851
-107.615
-117.27
-126.385
-134.987
-142.933
-149.974
-155.926
-160.69
-164.198
-166.413
-167.331
-166.965
-165.366
-162.638
-158.985
-154.933
-151.016
-147.533
-144.653
-142.221
-139.306
-134.84
-127.313
-116.363
-104.256
-93.1207
-84.2441
-78.183
-74.8412
-73.5876
-73.3164
-72.722
-69.9222
-63.812
-55.4478
-46.4075
-37.2892
-28.5096
-20.6211
-13.8707
-8.24492
-3.67129
-0.0679247
2.64925
4.54854
5.66006
6.05555
5.62602
4.20453
0.84879
-82.6666
-73.6227
-68.787
-66.8499
-65.5102
-64.618
-64.2129
-63.9746
-63.5961
-62.9232
-61.9206
-60.6585
-59.2424
-57.7097
-56.1123
-54.528
-52.9546
-51.3445
-49.649
-47.8265
-45.8725
-43.795
-41.5125
-38.8684
-35.8959
-32.9275
-30.3198
-28.2065
-26.5722
-25.4581
-24.6331
-23.9219
-23.2879
-22.8369
-22.3737
-22.4948
-22.6385
-23.2583
-24.2592
-25.6882
-27.6892
-30.5296
-34.5911
-40.2382
-47.5804
-56.4012
-66.3159
-76.902
-87.7232
-98.3583
-108.501
-118.05
-127.065
-135.6
-143.502
-150.502
-156.414
-161.151
-164.651
-166.877
-167.827
-167.506
-165.951
-163.242
-159.538
-155.391
-151.38
-147.787
-144.767
-142.196
-139.199
-134.727
-127.095
-115.972
-103.682
-92.3772
-83.4113
-77.4442
-74.4386
-73.7627
-74.2662
-74.5442
-72.2037
-65.8721
-57.042
-47.589
-38.0386
-28.8569
-20.6811
-13.7396
-7.98554
-3.32559
0.338862
3.10228
5.03837
6.17528
6.60958
6.1516
4.51569
0.46068
-82.442
-73.4614
-68.7074
-66.8007
-65.4795
-64.6168
-64.243
-64.0328
-63.676
-63.0141
-62.011
-60.7441
-59.3236
-57.7839
-56.181
-54.5993
-53.0338
-51.4347
-49.7505
-47.9368
-45.9907
-43.9262
-41.6581
-39.0128
-36.0149
-33.0119
-30.3821
-28.2643
-26.641
-25.5447
-24.7562
-24.0819
-23.4687
-23.1033
-22.5975
-22.6729
-22.8731
-23.5325
-24.5976
-26.1215
-28.2453
-31.2243
-35.4219
-41.1853
-48.6103
-57.4722
-67.3925
-77.9637
-88.7551
-99.3367
-109.393
-118.834
-127.749
-136.219
-144.078
-151.035
-156.904
-161.614
-165.104
-167.34
-168.325
-168.054
-166.552
-163.869
-160.123
-155.87
-151.774
-148.081
-144.925
-142.202
-139.116
-134.579
-126.774
-115.451
-102.975
-91.4983
-82.4342
-76.5652
-73.9201
-73.8683
-75.2531
-76.5859
-74.7673
-68.1137
-58.7495
-48.8583
-38.8271
-29.2091
-20.7359
-13.6023
-7.72438
-2.98356
0.737478
3.54286
5.51351
6.67464
7.19618
6.63966
4.65853
0.0363922
-82.2052
-73.2829
-68.6185
-66.745
-65.4443
-64.6134
-64.2729
-64.0927
-63.7595
-63.1093
-62.1058
-60.8343
-59.4095
-57.8626
-56.2547
-54.6766
-53.1203
-51.5336
-49.8619
-48.0574
-46.1186
-44.0658
-41.8107
-39.1636
-36.1412
-33.1049
-30.4546
-28.3355
-26.7241
-25.6414
-24.894
-24.2485
-23.6409
-23.344
-22.8313
-22.864
-23.1223
-23.828
-24.9616
-26.5848
-28.8374
-31.9616
-36.2984
-42.1734
-49.6689
-58.5573
-68.4716
-79.0227
-89.7854
-100.316
-110.289
-119.62
-128.435
-136.842
-144.662
-151.574
-157.397
-162.078
-165.557
-167.804
-168.827
-168.611
-167.171
-164.52
-160.741
-156.371
-152.188
-148.41
-145.126
-142.24
-139.076
-134.408
-126.36
-114.817
-102.156
-90.5004
-81.3218
-75.5505
-73.2851
-73.8942
-76.2808
-78.9037
-77.6789
-70.5604
-60.5745
-50.2151
-39.6509
-29.567
-20.7887
-13.4635
-7.46842
-2.65471
1.11543
3.95788
5.96446
7.15082
7.7847
7.22211
4.92137
-0.0106478
-81.9676
-73.0992
-68.5259
-66.6849
-65.4055
-64.6082
-64.303
-64.1548
-63.8466
-63.2087
-62.2048
-60.9287
-59.4998
-57.9458
-56.3334
-54.76
-53.2141
-51.6411
-49.9828
-48.1879
-46.2558
-44.2132
-41.969
-39.3187
-36.2733
-33.2068
-30.5378
-28.4257
-26.8204
-25.7544
-25.0479
-24.4284
-23.8152
-23.5496
-23.0684
-23.0676
-23.3855
-24.1424
-25.348
-27.0738
-29.4593
-32.7329
-37.2104
-43.1914
-50.7454
-59.6468
-69.5456
-80.0739
-90.8107
-101.296
-111.186
-120.409
-129.125
-137.472
-145.253
-152.117
-157.89
-162.539
-166.008
-168.268
-169.334
-169.177
-167.809
-165.196
-161.387
-156.901
-152.618
-148.77
-145.369
-142.302
-139.063
-134.213
-125.859
-114.09
-101.249
-89.4063
-80.0887
-74.4119
-72.5402
-73.831
-77.3569
-81.5544
-80.9978
-73.2514
-62.5535
-51.6768
-40.5106
-29.9341
-20.8446
-13.3298
-7.22793
-2.35088
1.46149
4.33943
6.36705
7.60395
8.34945
7.99636
5.58104
0.368987
-81.6952
-72.9116
-68.4323
-66.6216
-65.3635
-64.601
-64.3327
-64.2183
-63.9366
-63.3117
-62.3075
-61.0271
-59.5946
-58.0334
-56.4172
-54.8495
-53.3153
-51.7572
-50.1133
-48.3281
-46.4023
-44.3681
-42.1318
-39.4764
-36.4098
-33.3178
-30.6359
-28.5328
-26.9356
-25.887
-25.2185
-24.6348
-24.0019
-23.6971
-23.308
-23.2865
-23.6623
-24.4737
-25.754
-27.5844
-30.1048
-33.53
-38.1481
-44.2294
-51.8306
-60.733
-70.6091
-81.1138
-91.8294
-102.275
-112.086
-121.199
-129.815
-138.105
-145.849
-152.661
-158.377
-162.993
-166.453
-168.728
-169.843
-169.752
-168.464
-165.897
-162.06
-157.468
-153.062
-149.155
-145.652
-142.389
-139.052
-133.985
-125.28
-113.295
-100.286
-88.2449
-78.7564
-73.1726
-71.7025
-73.672
-78.5042
-84.5565
-84.6953
-76.1558
-64.7065
-53.2672
-41.4171
-30.3233
-20.9152
-13.2134
-7.01306
-2.07852
1.76934
4.67387
6.70711
8.06886
8.83213
8.54445
6.16219
0.78216
-81.3754
-72.7127
-68.3339
-66.5529
-65.3174
-64.5914
-64.3614
-64.2822
-64.0283
-63.4166
-62.4119
-61.1277
-59.6921
-58.1243
-56.5052
-54.9448
-53.4235
-51.8816
-50.2528
-48.4777
-46.5576
-44.5301
-42.2985
-39.6353
-36.5503
-33.4367
-30.756
-28.6526
-27.0764
-26.038
-25.4016
-24.8622
-24.2018
-23.7814
-23.5486
-23.5254
-23.9523
-24.82
-26.1767
-28.1128
-30.7684
-34.345
-39.1022
-45.2783
-52.9167
-61.8105
-71.6584
-82.14
-92.8392
-103.249
-112.983
-121.987
-130.504
-138.739
-146.445
-153.196
-158.848
-163.431
-166.884
-169.177
-170.35
-170.334
-169.134
-166.62
-162.762
-158.072
-153.518
-149.557
-145.963
-142.51
-139.042
-133.722
-124.64
-112.464
-99.3033
-87.0523
-77.3542
-71.8694
-70.8053
-73.4381
-79.8971
-88.1047
-88.8418
-79.2258
-67.0167
-54.9896
-42.3837
-30.7575
-21.0179
-13.1249
-6.82922
-1.8458
2.03117
4.93597
6.96888
8.34671
9.1329
8.75817
6.49813
1.09099
-81.0497
-72.5129
-68.2352
-66.4813
-65.2682
-64.5797
-64.3891
-64.3464
-64.121
-63.5227
-62.5173
-61.2294
-59.7909
-58.217
-56.5964
-55.045
-53.5382
-52.0138
-50.4011
-48.6364
-46.7216
-44.6993
-42.4683
-39.7946
-36.6943
-33.5662
-30.8915
-28.789
-27.2416
-26.2048
-25.588
-25.0951
-24.4353
-23.8789
-23.7866
-23.7829
-24.2544
-25.1794
-26.6138
-28.6555
-31.445
-35.171
-40.0644
-46.3299
-53.9974
-62.8746
-72.6902
-83.1497
-93.8369
-104.216
-113.874
-122.769
-131.186
-139.368
-147.032
-153.714
-159.293
-163.84
-167.289
-169.605
-170.845
-170.916
-169.812
-167.365
-163.491
-158.705
-153.998
-149.969
-146.286
-142.687
-139.038
-133.419
-123.963
-111.631
-98.3411
-85.8722
-75.9219
-70.5585
-69.8721
-73.2768
-81.9834
-92.7276
-93.8359
-82.6198
-69.5219
-56.811
-43.3957
-31.2473
-21.1643
-13.0781
-6.69501
-1.66644
2.2214
5.11762
7.18372
8.47515
9.03843
8.48431
6.53717
1.28148
-80.7167
-72.302
-68.1312
-66.4048
-65.2152
-64.5657
-64.4158
-64.411
-64.2153
-63.6302
-62.6237
-61.332
-59.8905
-58.3103
-56.6894
-55.149
-53.6583
-52.153
-50.5573
-48.8036
-46.894
-44.8757
-42.6408
-39.9541
-36.8402
-33.7134
-31.0328
-28.9463
-27.4249
-26.3847
-25.7705
-25.3198
-24.7138
-24.0509
-24.0225
-24.0528
-24.5672
-25.5499
-27.0627
-29.2096
-32.1304
-36.0018
-41.0274
-47.3776
-55.0676
-63.9218
-73.7017
-84.1394
-94.8176
-105.169
-114.751
-123.536
-131.857
-139.985
-147.6
-154.199
-159.695
-164.206
-167.655
-169.997
-171.316
-171.491
-170.492
-168.128
-164.242
-159.364
-154.514
-150.395
-146.619
-142.94
-139.043
-133.059
-123.278
-110.833
-97.4453
-84.7566
-74.512
-69.3312
-68.9506
-73.3176
-84.9389
-98.3185
-99.6136
-86.2501
-72.1057
-58.5962
-44.3856
-31.7753
-21.3647
-13.0993
-6.63122
-1.56716
2.32904
5.28072
7.2634
8.35
8.56076
7.95169
6.3959
1.38403
-80.3851
-72.0866
-68.0239
-66.324
-65.1586
-64.5494
-64.4417
-64.4762
-64.3113
-63.7393
-62.7314
-61.4358
-59.9906
-58.4037
-56.7834
-55.2556
-53.7828
-52.2981
-50.7207
-48.9788
-47.0748
-45.0594
-42.8158
-40.1141
-36.9897
-33.8713
-31.1821
-29.1237
-27.6196
-26.5746
-25.948
-25.5248
-25.0088
-24.2739
-24.2616
-24.3319
-24.889
-25.9295
-27.521
-29.7718
-32.8205
-36.8324
-41.9851
-48.4153
-56.1228
-64.949
-74.6898
-85.1048
-95.7749
-106.098
-115.606
-124.282
-132.507
-140.579
-148.135
-154.636
-160.037
-164.512
-167.966
-170.336
-171.747
-172.044
-171.158
-168.902
-165.012
-160.047
-155.07
-150.834
-146.947
-143.22
-139.07
-132.652
-122.612
-110.106
-96.6618
-83.7722
-73.1999
-68.2315
-68.1034
-73.4015
-88.1046
-103.504
-104.625
-89.3108
-74.476
-60.1471
-45.2646
-32.3047
-21.6153
-13.2045
-6.67154
-1.54979
2.46176
5.31778
7.02514
7.88359
7.86593
7.33679
6.11925
1.41499
-80.0334
-71.8719
-67.917
-66.2405
-65.0992
-64.5311
-64.4665
-64.5419
-64.4089
-63.85
-62.8405
-61.5409
-60.0913
-58.497
-56.8779
-55.3641
-53.9107
-52.4483
-50.8904
-49.1612
-47.2637
-45.2503
-42.9933
-40.2737
-37.1496
-34.0281
-31.3448
-29.315
-27.8204
-26.7709
-26.1232
-25.7091
-25.2894
-24.5173
-24.5047
-24.618
-25.218
-26.3162
-27.9862
-30.3393
-33.5121
-37.6588
-42.9327
-49.4383
-57.1591
-65.9529
-75.6509
-86.0408
-96.7011
-106.996
-116.427
-124.999
-133.132
-141.14
-148.621
-155.005
-160.303
-164.741
-168.203
-170.603
-172.115
-172.557
-171.79
-169.672
-165.793
-160.752
-155.664
-151.275
-147.275
-143.461
-139.095
-132.221
-121.997
-109.492
-96.0461
-82.9953
-72.1171
-67.4975
-67.7006
-73.6427
-90.8058
-107.539
-108.542
-91.6307
-76.2693
-61.2346
-45.9283
-32.7618
-21.9012
-13.4095
-6.76351
-1.45765
2.4378
4.9156
6.43244
7.15415
7.07926
6.6775
5.73642
1.38876
-79.6485
-71.6522
-67.8086
-66.1539
-65.037
-64.5107
-64.4899
-64.6069
-64.5065
-63.9607
-62.9499
-61.6469
-60.1925
-58.5899
-56.9723
-55.4737
-54.0411
-52.6024
-51.0655
-49.3502
-47.4606
-45.448
-43.1734
-40.4338
-37.3147
-34.1823
-31.5238
-29.5141
-28.0236
-26.9694
-26.2976
-25.8803
-25.5481
-24.77
-24.7509
-24.909
-25.5524
-26.7079
-28.4559
-30.9094
-34.2022
-38.4775
-43.866
-50.4422
-58.1729
-66.9306
-76.5814
-86.9415
-97.588
-107.85
-117.207
-125.678
-133.721
-141.654
-149.04
-155.293
-160.481
-164.883
-168.355
-170.781
-172.395
-173.006
-172.358
-170.415
-166.573
-161.47
-156.283
-151.721
-147.636
-143.703
-139.078
-131.807
-121.454
-108.997
-95.6201
-82.5088
-71.3783
-67.3301
-67.7625
-74.1196
-92.7114
-110.445
-111.368
-93.4205
-77.4248
-61.7967
-46.3393
-33.1149
-22.181
-13.5576
-6.71595
-1.65833
1.79857
4.13596
5.59805
6.3055
6.25705
5.98619
5.267
1.31628
-79.2642
-71.4344
-67.7007
-66.065
-64.9726
-64.4882
-64.5113
-64.6704
-64.6027
-64.0696
-63.0582
-61.7527
-60.2934
-58.6821
-57.0663
-55.5839
-54.1733
-52.7598
-51.2452
-49.5453
-47.6651
-45.6526
-43.3544
-40.5998
-37.4722
-34.3395
-31.7151
-29.7164
-28.2261
-27.1665
-26.4708
-26.0454
-25.7862
-25.0285
-24.999
-25.203
-25.8901
-27.1026
-28.9278
-31.4795
-34.8878
-39.2854
-44.7815
-51.4232
-59.1612
-67.8795
-77.4776
-87.8011
-98.4268
-108.652
-117.934
-126.313
-134.268
-142.112
-149.382
-155.494
-160.573
-164.94
-168.42
-170.86
-172.568
-173.369
-172.83
-171.095
-167.332
-162.191
-156.924
-152.197
-148.033
-144.008
-139.03
-131.411
-120.975
-108.589
-95.3171
-82.2742
-71.3878
-67.5513
-67.9759
-74.494
-93.3536
-111.953
-112.017
-94.5304
-77.9898
-61.9943
-46.5839
-33.33
-22.2765
-13.6822
-7.26522
-2.56688
0.836832
3.17807
4.66148
5.40658
5.42001
5.26855
4.72097
1.20544
-78.8797
-71.2121
-67.5909
-65.9735
-64.9058
-64.4637
-64.531
-64.7323
-64.6972
-64.1759
-63.1641
-61.8573
-60.3931
-58.773
-57.1597
-55.6943
-54.3068
-52.9197
-51.4288
-49.7458
-47.8772
-45.8633
-43.5365
-40.7665
-37.6182
-34.5059
-31.9133
-29.9184
-28.4258
-27.3593
-26.6424
-26.2085
-26.0017
-25.2916
-25.2481
-25.4985
-26.2293
-27.4986
-29.3999
-32.047
-35.5664
-40.0796
-45.6761
-52.3789
-60.1224
-68.798
-78.3362
-88.6139
-99.2096
-109.392
-118.602
-126.896
-134.764
-142.504
-149.643
-155.614
-160.595
-164.931
-168.404
-170.833
-172.619
-173.622
-173.177
-171.667
-168.048
-162.903
-157.593
-152.745
-148.478
-144.314
-138.929
-130.969
-120.445
-108.175
-95.0932
-82.2443
-71.784
-68.0468
-68.3957
-74.7452
-92.3263
-110.335
-110.034
-94.2911
-77.706
-61.846
-46.6305
-33.4881
-22.7304
-14.5627
-8.36107
-3.6364
-0.197626
2.16547
3.69344
4.48626
4.57974
4.52992
4.10794
1.06314
-78.5006
-70.9881
-67.4792
-65.8788
-64.8366
-64.4373
-64.5491
-64.7932
-64.7903
-64.2794
-63.2672
-61.9597
-60.4908
-58.862
-57.2519
-55.8046
-54.441
-53.0815
-51.6157
-49.9513
-48.0968
-46.0778
-43.723
-40.9212
-37.7576
-34.6808
-32.1141
-30.1179
-28.6204
-27.5457
-26.8126
-26.3728
-26.1896
-25.5602
-25.4979
-25.7939
-26.5681
-27.8938
-29.8691
-32.6089
-36.235
-40.8576
-46.5483
-53.3087
-61.0557
-69.6833
-79.1535
-89.375
-99.9295
-110.062
-119.205
-127.424
-135.205
-142.831
-149.829
-155.67
-160.579
-164.893
-168.339
-170.733
-172.541
-173.717
-173.365
-172.088
-168.696
-163.583
-158.26
-153.332
-148.961
-144.545
-138.686
-130.402
-119.857
-107.768
-94.9497
-82.4224
-72.4764
-68.6944
-68.9736
-74.7908
-90.0349
-105.568
-105.462
-92.1579
-76.4875
-61.2641
-46.5838
-33.9489
-23.6148
-15.5914
-9.3784
-4.66057
-1.22763
1.15755
2.72458
3.56501
3.74788
3.78004
3.44462
0.897268
-78.1149
-70.7692
-67.369
-65.7823
-64.7653
-64.409
-64.5658
-64.8533
-64.8823
-64.3802
-63.3673
-62.0594
-60.5856
-58.9486
-57.3427
-55.9144
-54.5756
-53.245
-51.8054
-50.1615
-48.3236
-46.2955
-43.907
-41.0591
-37.8991
-34.8608
-32.3144
-30.3134
-28.8086
-27.7243
-26.982
-26.5395
-26.3303
-25.838
-25.7493
-26.0877
-26.9045
-28.2858
-30.3329
-33.162
-36.891
-41.6177
-47.3976
-54.2124
-61.9581
-70.5306
-79.9245
-90.0792
-100.58
-110.657
-119.737
-127.89
-135.589
-143.093
-149.948
-155.683
-160.554
-164.859
-168.273
-170.64
-172.431
-173.726
-173.451
-172.329
-169.236
-164.199
-158.892
-153.916
-149.403
-144.614
-138.268
-129.743
-119.251
-107.388
-94.8881
-82.78
-73.3438
-69.451
-69.6443
-74.6902
-87.1471
-99.4789
-99.5204
-88.5116
-74.3143
-60.0627
-46.1972
-34.176
-24.2146
-16.3618
-10.2559
-5.61604
-2.21112
0.182674
1.77618
2.6623
2.93776
3.03392
2.7562
0.717178
-77.7093
-70.5519
-67.2598
-65.6845
-64.6927
-64.3791
-64.581
-64.9124
-64.9733
-64.4784
-63.4645
-62.1561
-60.6772
-59.0323
-57.4317
-56.0234
-54.7104
-53.4098
-51.9974
-50.3768
-48.5552
-46.5187
-44.0746
-41.1862
-38.0449
-35.043
-32.5122
-30.504
-28.9892
-27.8938
-27.1505
-26.711
-26.4164
-26.1162
-26.0061
-26.3787
-27.2365
-28.6721
-30.7888
-33.7039
-37.5318
-42.3584
-48.2236
-55.0877
-62.8247
-71.3396
-80.654
-90.7291
-101.161
-111.173
-120.193
-128.289
-135.914
-143.299
-150.014
-155.664
-160.519
-164.81
-168.182
-170.534
-172.356
-173.803
-173.668
-172.477
-169.669
-164.737
-159.455
-154.442
-149.718
-144.477
-137.716
-129.042
-118.642
-107.033
-94.8911
-83.2459
-74.2596
-70.2615
-70.2889
-74.5185
-84.2892
-93.5494
-93.256
-83.9753
-71.3004
-58.1568
-45.2583
-33.9601
-24.492
-16.9362
-11.0118
-6.48022
-3.12533
-0.739913
0.868172
1.79735
2.1639
2.30968
2.0721
0.532796
-77.3107
-70.34
-67.1522
-65.586
-64.6192
-64.3476
-64.5942
-64.9697
-65.0623
-64.5734
-63.5586
-62.2496
-60.765
-59.1126
-57.5186
-56.1314
-54.8451
-53.5756
-52.1915
-50.5969
-48.7926
-46.7365
-44.2225
-41.3123
-38.1941
-35.2255
-32.7066
-30.6896
-29.1616
-28.0534
-27.3181
-26.8939
-26.493
-26.3767
-26.2678
-26.6655
-27.5621
-29.0501
-31.2348
-34.233
-38.1553
-43.078
-49.0242
-55.9308
-63.6577
-72.1228
-81.356
-91.3335
-101.678
-111.62
-120.587
-128.64
-136.197
-143.455
-150.022
-155.601
-160.45
-164.713
-168.035
-170.369
-172.225
-173.747
-173.736
-172.475
-169.949
-165.12
-159.92
-154.845
-149.822
-144.156
-137.081
-128.318
-118.037
-106.698
-94.9301
-83.7422
-75.1363
-71.0557
-70.8146
-74.2667
-81.734
-88.305
-87.3478
-79.2464
-67.9222
-55.8947
-44.0114
-33.4877
-24.5656
-17.3513
-11.6405
-7.24045
-3.95529
-1.59345
0.0191816
0.98784
1.44019
1.62512
1.41976
0.353182
-76.9189
-70.1299
-67.0453
-65.4866
-64.5448
-64.3145
-64.6051
-65.0247
-65.1485
-64.6646
-63.6495
-62.3397
-60.8487
-59.1891
-57.603
-56.2383
-54.9798
-53.742
-52.3878
-50.8199
-49.0383
-46.9311
-44.3583
-41.4409
-38.3463
-35.4077
-32.8971
-30.87
-29.3258
-28.2026
-27.4839
-27.085
-26.6033
-26.6118
-26.5281
-26.9464
-27.8793
-29.4176
-31.6689
-34.7474
-38.7594
-43.774
-49.7963
-56.741
-64.4641
-72.8881
-82.0356
-91.8991
-102.139
-112.006
-120.93
-128.951
-136.443
-143.561
-149.978
-155.497
-160.34
-164.565
-167.844
-170.193
-172.11
-173.67
-173.751
-172.376
-169.938
-165.319
-160.184
-155.025
-149.716
-143.702
-136.393
-127.582
-117.439
-106.377
-94.9747
-84.2061
-75.9175
-71.7613
-71.1778
-73.8465
-79.3835
-83.7141
-82.0803
-74.7751
-64.5736
-53.5692
-42.6426
-32.8601
-24.4764
-17.6169
-12.1399
-7.88928
-4.68943
-2.36388
-0.75523
0.248003
0.777923
0.99473
0.820036
0.185412
-76.5362
-69.9216
-66.9383
-65.3862
-64.4696
-64.2797
-64.6136
-65.0771
-65.2314
-64.7512
-63.7367
-62.4261
-60.928
-59.2616
-57.6846
-56.3439
-55.1142
-53.9089
-52.5857
-51.0487
-49.2771
-47.1009
-44.4923
-41.5727
-38.5016
-35.5891
-33.0838
-31.0456
-29.482
-28.3416
-27.6448
-27.2762
-26.7478
-26.8272
-26.7823
-27.2195
-28.1862
-29.7726
-32.0888
-35.245
-39.3428
-44.4444
-50.5372
-57.5206
-65.2487
-73.6368
-82.6942
-92.4303
-102.548
-112.332
-121.217
-129.217
-136.648
-143.626
-149.899
-155.363
-160.191
-164.361
-167.584
-169.943
-171.924
-173.53
-173.716
-172.196
-169.754
-165.346
-160.265
-154.994
-149.444
-143.155
-135.667
-126.843
-116.853
-106.063
-94.9947
-84.5952
-76.5761
-72.3399
-71.3619
-73.2129
-77.1095
-79.6504
-77.438
-70.6776
-61.3845
-51.2757
-41.2096
-32.1112
-24.2437
-17.7421
-12.5109
-8.42266
-5.32
-3.04113
-1.44407
-0.412575
0.184643
0.428249
0.285571
0.034194
-76.1571
-69.721
-66.833
-65.2848
-64.3936
-64.2433
-64.6201
-65.127
-65.3107
-64.8329
-63.8202
-62.5087
-61.003
-59.3298
-57.7633
-56.4483
-55.2482
-54.0765
-52.7832
-51.2869
-49.4875
-47.257
-44.6271
-41.7087
-38.6605
-35.7698
-33.2667
-31.2167
-29.6309
-28.4698
-27.7963
-27.473
-26.9178
-27.0292
-27.0275
-27.483
-28.4809
-30.1132
-32.4917
-35.7235
-39.9041
-45.0876
-51.248
-58.2739
-66.0142
-74.3691
-83.334
-92.9325
-102.912
-112.603
-121.449
-129.435
-136.811
-143.654
-149.795
-155.206
-160.006
-164.116
-167.29
-169.651
-171.627
-173.152
-173.335
-171.812
-169.365
-165.14
-160.131
-154.787
-149.045
-142.537
-134.918
-126.113
-116.284
-105.74
-94.9606
-84.8875
-77.1056
-72.7742
-71.3684
-72.4017
-74.8855
-76.0111
-73.3076
-66.9258
-58.3654
-49.0319
-39.7313
-31.2606
-23.884
-17.7371
-12.7579
-8.84038
-5.84352
-3.61976
-2.04133
-0.989061
-0.335897
-0.0693177
-0.178321
-0.0979259
-75.7683
-69.5261
-66.7295
-65.1833
-64.3171
-64.2055
-64.6246
-65.1747
-65.3865
-64.9094
-63.8997
-62.5875
-61.0734
-59.3934
-57.8388
-56.5514
-55.382
-54.243
-52.9863
-51.5171
-49.6699
-47.409
-44.764
-41.8502
-38.8234
-35.9501
-33.4462
-31.3837
-29.773
-28.5873
-27.9339
-27.6765
-27.1015
-27.2212
-27.2613
-27.7349
-28.7612
-30.4371
-32.8748
-36.1799
-40.4411
-45.7036
-51.9311
-59.0035
-66.7604
-75.0841
-83.9565
-93.4108
-103.239
-112.824
-121.63
-129.604
-136.927
-143.647
-149.675
-155.037
-159.802
-163.851
-166.985
-169.365
-171.342
-172.735
-172.803
-171.243
-168.8
-164.748
-159.831
-154.443
-148.548
-141.869
-134.165
-125.403
-115.725
-105.384
-94.8476
-85.0748
-77.5061
-73.0551
-71.2081
-71.4534
-72.7217
-72.7063
-69.5828
-63.4671
-55.5022
-46.8407
-38.2211
-30.3266
-23.4143
-17.6146
-12.8881
-9.14569
-6.26046
-4.09866
-2.5455
-1.48064
-0.783149
-0.496881
-0.57172
-0.210067
-75.3917
-69.3388
-66.6277
-65.0818
-64.2405
-64.1664
-64.6274
-65.2204
-65.4586
-64.9806
-63.9754
-62.6625
-61.1392
-59.4521
-57.9109
-56.6529
-55.5154
-54.4072
-53.1985
-51.7188
-49.8399
-47.5591
-44.9051
-41.9984
-38.9907
-36.1302
-33.6228
-31.547
-29.9091
-28.6958
-28.0547
-27.8703
-27.2875
-27.4042
-27.4819
-27.9731
-29.0254
-30.742
-33.236
-36.6114
-40.9512
-46.2912
-52.5865
-59.7089
-67.4861
-75.7811
-84.5628
-93.8704
-103.536
-113.003
-121.763
-129.724
-136.995
-143.608
-149.543
-154.858
-159.58
-163.571
-166.669
-169.055
-171.012
-172.271
-172.213
-170.599
-168.16
-164.242
-159.41
-153.99
-147.975
-141.174
-133.426
-124.717
-115.155
-104.962
-94.6426
-85.1579
-77.7762
-73.1802
-70.8947
-70.3969
-70.6176
-69.6677
-66.1823
-60.2568
-52.7815
-44.7059
-36.6935
-29.328
-22.8525
-17.3883
-12.9111
-9.34444
-6.57442
-4.48014
-2.95846
-1.88941