/*--------------------------------*- C++ -*----------------------------------*\
| =========                 |                                                 |
| \\      /  F ield         | OpenFOAM: The Open Source CFD Toolbox           |
|  \\    /   O peration     | Version:  4.1                                   |
|   \\  /    A nd           | Web:      www.OpenFOAM.org                      |
|    \\/     M anipulation  |                                                 |
\*---------------------------------------------------------------------------*/
FoamFile
{
    version     2.0;
    format      ascii;
    class       surfaceScalarField;
    location    "1500";
    object      phi;
}
// * * * * * * * * * * * * * * * * * * * * * * * * * * * * * * * * * * * * * //

dimensions      [0 3 -1 0 0 0 0];

internalField   nonuniform List<scalar> 
52920
(
2540.39
7.2942
2538.42
1.96814
2539.49
-1.06487
2540.71
-1.22046
2541.08
-0.366362
2539.15
1.93409
2533.15
6.00243
2521.47
11.6802
2502.94
18.5314
2477.17
25.7695
2444.79
32.3805
2407.25
37.5478
2366.11
41.1385
2323.05
43.0614
2280.26
42.7939
2240.18
40.0814
2204.97
35.2183
2175.99
28.9826
2153.42
22.5668
2136.14
17.2799
2121.2
14.9469
2102.29
18.9168
2070.08
32.2105
2017.45
52.6275
1943.88
73.578
1853.37
90.5079
1750.64
102.738
1640.32
110.325
1526.27
114.053
1407.62
118.651
1287.42
120.209
1185.13
102.293
1136.53
48.607
1165.48
-28.9486
1243.49
-78.0041
1349.76
-106.266
1483.95
-134.185
1643.3
-159.35
1846.47
-203.161
2104.83
-258.357
2421.34
-316.505
2794.55
-373.21
3220.41
-425.86
3691.68
-471.271
4197.92
-506.238
4726.98
-529.057
5266.84
-539.855
5806.89
-540.049
6338.65
-531.758
6855.99
-517.336
7354.84
-498.856
7832.35
-477.511
8285.66
-453.306
8711.02
-425.362
9103.89
-392.869
9459.8
-355.909
9775.36
-315.561
10049
-273.669
10281.7
-232.706
10477.4
-195.701
10643.6
-166.145
10791.6
-147.979
10937.2
-145.677
11101.1
-163.821
11305.7
-204.614
11568.1
-262.466
11886.2
-318.051
12223.7
-337.542
12508.6
-284.89
12656
-147.426
12606.1
49.9154
12351.6
254.497
11944.4
407.265
11459.9
484.432
10961.2
498.772
10487.2
473.981
10057.1
430.116
9676.03
381.046
9340.17
335.852
9039.74
300.43
8761.67
278.076
8491.98
269.689
8218.68
273.303
7934.72
283.955
7639.03
295.687
7334.84
304.197
7027.62
307.218
6724.17
303.445
6431.74
292.429
6156.99
274.749
5905.54
251.453
5681.98
223.558
5490.06
191.92
5332.73
157.335
5212.7
120.033
5131.92
80.7797
5092.37
39.5458
5099.86
-7.48645
5145.16
-45.3066
-111.882
2585.67
16.2536
2582.51
5.13098
2581.74
-0.293107
2580.48
0.03991
2577.98
2.13099
2573.04
6.88418
2564.09
14.9539
2549.75
26.016
2529.08
39.2029
2501.87
52.9847
2468.82
65.4334
2431.32
75.0534
2390.77
81.6922
2348.64
85.1921
2306.94
84.4891
2267.91
79.1182
2233.33
69.8034
2204.08
58.2352
2179.91
46.7367
2159.59
37.6009
2140.48
34.0653
2116.8
42.5996
2079.61
69.3982
2021.8
110.443
1942.52
152.856
1845.61
187.43
1736.24
212.104
1619.74
226.826
1499.29
234.507
1374.54
243.413
1254.29
240.462
1157.78
198.809
1094.69
111.697
1056.23
9.51875
1010.56
-32.3252
976.525
-72.2216
1005.87
-163.52
1106.5
-259.98
1283.19
-379.848
1528.77
-503.935
1840.25
-627.976
2218.76
-751.716
2662.9
-870.003
3164.42
-972.788
3708.89
-1050.71
4279.41
-1099.57
4859.9
-1120.35
5436.98
-1117.13
6000.49
-1095.27
6543.48
-1060.32
7061.59
-1016.97
7552.06
-967.979
8012.4
-913.643
8439.49
-852.457
8829.68
-783.054
9179.56
-705.792
9486.85
-622.843
9750.79
-537.608
9972.49
-454.407
10155.2
-378.374
10304.3
-315.3
10427.8
-271.51
10536.4
-254.237
10644.8
-272.243
10774.1
-333.871
10950.2
-438.578
11194.7
-562.55
11504.4
-647.286
11829.9
-610.357
12075.2
-392.677
12138.3
-13.2348
11973.2
419.604
11621.5
758.984
11167.6
938.356
10685.7
980.637
10222.8
936.862
9802.03
850.901
9430.21
752.86
9103.92
662.144
8813.2
591.145
8544.58
546.703
8283.55
530.716
8017.7
539.156
7739.9
561.75
7449.33
586.262
7149.51
604.019
6846.23
610.497
6546.61
603.064
6258.17
580.864
5987.75
545.175
5740.98
498.225
5522.36
442.174
5335.48
378.804
5183.11
309.697
5067.9
235.249
4991.84
156.835
4957.05
74.3346
4969.15
-19.5787
5017.58
-93.7453
-226.376
2615.6
26.3868
2610.87
9.8609
2607.53
3.05108
2602.84
4.73658
2596.28
8.68514
2586.98
16.1916
2573.73
28.2064
2555.51
44.2373
2531.7
63.0134
2502.33
82.3522
2468.21
99.5579
2430.65
112.618
2390.85
121.494
2350.01
126.029
2309.86
124.648
2272.24
116.741
2238.48
103.56
2208.93
87.7897
2182.83
72.8401
2158.72
61.7157
2134.22
58.5681
2104.31
72.5138
2060.77
112.938
1996.69
174.522
1911.07
238.478
1807.78
290.722
1692.2
327.686
1568.84
350.188
1440.89
362.463
1313.3
371.005
1199.08
354.693
1101.17
296.724
998.353
214.516
882.388
125.491
768.631
81.4393
731.636
-35.2179
808.366
-240.244
944.565
-396.174
1122.05
-557.331
1341.98
-723.864
1617.01
-903.002
1959.77
-1094.47
2374.59
-1284.81
2853.92
-1452.12
3381.06
-1577.85
3936.03
-1654.54
4500.46
-1684.78
5059.86
-1676.52
5604.03
-1639.43
6126.56
-1582.86
6623.89
-1514.3
7093.81
-1437.9
7533.98
-1353.82
7940.91
-1259.38
8310.1
-1152.25
8637.15
-1032.84
8918.74
-904.43
9153.2
-772.07
9340.83
-642.04
9484.12
-521.66
9587.9
-419.079
9659.44
-343.049
9708.61
-303.41
9748.97
-312.607
9799.81
-384.708
9886.82
-525.584
10037.6
-713.315
10269.3
-878.958
10570.6
-911.694
10885.6
-707.662
11107.8
-235.434
11126.8
400.629
10927.8
957.976
10583.5
1282.65
10176.9
1387.21
9766.64
1347.11
9384.63
1232.91
9043.29
1094.21
8742.32
963.114
8473.36
860.105
8223.52
796.539
7978.27
775.968
7724.96
792.463
7456.75
829.959
7173.57
869.448
6879.71
897.876
6581.64
908.567
6287.12
897.578
6004.17
863.818
5739.78
809.561
5499.55
738.462
5287.72
653.999
5107.6
558.923
4961.78
455.521
4852.88
344.147
4783
226.719
4754.83
102.507
4773.56
-38.3141
4829.47
-149.651
-349.121
2628.27
36.964
2622.59
15.5418
2617.31
8.33361
2609.93
12.1251
2600.14
18.4772
2587.34
28.9892
2570.69
44.8577
2549.51
65.4214
2523.48
89.0441
2492.84
113
2458.42
133.981
2421.43
149.609
2382.84
160.08
2343.59
165.285
2305.07
163.172
2268.73
153.08
2235.35
136.94
2204.62
118.532
2175.2
102.256
2145.48
91.4393
2113.47
90.5785
2074.97
111.023
2022.48
165.432
1949.55
247.452
1855.72
332.315
1745.33
401.115
1623.16
449.852
1492.79
480.563
1360.09
495.163
1234.32
496.782
1122.06
466.962
1009.8
408.986
879.724
344.6
755.464
249.759
661.688
175.225
638.209
-11.7301
698.879
-300.907
805.91
-503.2
960.855
-712.272
1169.68
-932.681
1442.34
-1175.67
1787.02
-1439.14
2203.48
-1701.27
2680.11
-1928.75
3197.36
-2095.09
3734.23
-2191.41
4273
-2223.55
4800.96
-2204.48
5310.21
-2148.68
5796.82
-2069.47
6259.58
-1977.05
6698.32
-1876.64
7112.14
-1767.63
7498.12
-1645.37
7851.53
-1505.65
8166.91
-1348.22
8439.3
-1176.82
8664.92
-997.693
8841.71
-818.822
8969.79
-649.748
9052.07
-501.352
9094.58
-385.563
9106.9
-315.728
9102.7
-308.408
9100.67
-382.678
9124.2
-549.109
9198.13
-787.244
9341.93
-1022.76
9560.44
-1130.21
9830.68
-977.901
10082.6
-487.349
10197.5
285.718
10112.7
1042.83
9871.19
1524.12
9547.99
1710.4
9203.46
1691.65
8873.7
1562.67
8575
1392.91
8309.88
1228.23
8071.62
1098.36
7848.04
1020.13
7624.44
999.567
7387.84
1029.06
7131.85
1085.95
6857.59
1143.7
6570.54
1184.93
6278.13
1200.98
5989.07
1186.64
5711.99
1140.9
5454.09
1067.46
5220.81
971.738
5016.13
858.679
4843.08
731.982
4704.1
594.496
4602.07
446.18
4539.17
289.617
4519.22
122.457
4546.42
-65.5121
4614.88
-218.112
-486.085
2621.45
47.2813
2615.51
21.4837
2609.19
14.6556
2600.29
21.0304
2588.66
30.1053
2573.95
43.698
2555.62
63.1907
2533.28
87.7636
2506.84
115.488
2476.61
143.235
2443.35
167.241
2408.08
184.881
2371.47
196.686
2334.11
202.655
2296.97
200.309
2261.04
189.011
2226.58
171.406
2192.81
152.308
2158.17
136.896
2121.13
128.479
2080.26
131.451
2032.09
159.199
1969.57
227.952
1886.61
330.421
1783.49
435.428
1665.03
519.578
1535.34
579.554
1398.76
617.139
1265.1
628.833
1142.2
619.68
1024.58
584.59
892.687
540.88
746.228
491.064
624.685
371.308
517.654
282.265
444.88
61.058
467.461
-323.481
562.752
-598.486
719.807
-869.323
936.783
-1149.65
1220.57
-1459.45
1576.56
-1795.14
2001.05
-2125.76
2479.05
-2406.75
2989
-2605.04
3509.63
-2712.03
4024.24
-2738.16
4521.79
-2702.02
4996.26
-2623.15
5445.72
-2518.93
5871.08
-2402.42
6274.34
-2279.89
6656.55
-2149.84
7016.33
-2005.15
7349.88
-1839.19
7652.14
-1650.49
7917.95
-1442.63
8142.5
-1222.25
8321.86
-998.179
8453.48
-781.369
8537.02
-584.887
8575.19
-423.734
8574.62
-315.158
8546.93
-280.722
8510.01
-345.758
8487.43
-526.53
8504.48
-804.293
8581.42
-1099.69
8728.02
-1276.81
8937.08
-1186.96
9166.52
-716.783
9312.83
139.409
9292.47
1063.18
9124.76
1691.83
8871.87
1963.29
8589.7
1973.83
8313.94
1838.43
8062.06
1644.79
7837.97
1452.31
7635.83
1300.51
7443.66
1212.3
7246.07
1197.15
7029.26
1245.87
6787.35
1327.86
6523.04
1408.01
6243.25
1464.72
5956.61
1487.62
5672.96
1470.29
5401.65
1412.21
5150.02
1319.09
4923.35
1198.4
4725.37
1056.66
4558.94
898.412
4426.56
726.882
4331.55
541.187
4276.17
345.002
4266.06
132.562
4303.33
-102.783
4389.74
-304.525
-642.112
2584.97
58.8823
2578.91
27.552
2572.58
20.9854
2563.84
29.775
2552.57
41.3774
2538.52
57.742
2521.34
80.3734
2500.78
108.328
2476.78
139.49
2449.54
170.482
2419.58
197.205
2387.6
216.857
2353.93
230.363
2318.71
237.878
2282.51
236.509
2245.9
225.618
2208.9
208.416
2170.68
190.523
2129.87
177.716
2085.23
173.12
2035.84
180.845
1978.59
216.449
1906.37
300.18
1813.16
423.632
1700.06
548.526
1572.37
647.271
1434.53
717.398
1293.59
758.083
1161.62
760.808
1039.43
741.871
909.818
714.209
757.806
692.897
602.578
646.299
478.238
495.657
341.725
418.789
250.415
152.404
284.878
-357.935
400.478
-714.079
568.214
-1037.06
791.623
-1373.06
1080.02
-1747.84
1438.54
-2153.65
1861.8
-2549.02
2332.97
-2877.91
2829.35
-3101.43
3329.71
-3212.39
3818.2
-3226.65
4284.92
-3168.74
4725.05
-3063.27
5137.86
-2931.74
5525.62
-2790.18
5891.85
-2646.13
6239.13
-2497.12
6567.28
-2333.31
6873.49
-2145.4
7153.59
-1930.59
7403.17
-1692.2
7617.82
-1436.9
7793.3
-1173.66
7925.82
-913.888
8012.69
-671.754
8053.32
-464.364
8050.46
-312.303
8012.16
-242.42
7954.23
-287.825
7900.22
-472.522
7876.71
-780.783
7905.07
-1128.06
7996.86
-1368.6
8152.01
-1342.11
8345.51
-910.288
8492.72
-7.79527
8504.3
1051.6
8384.92
1811.2
8186.18
2162.04
7957.79
2202.22
7732.64
2063.57
7527.46
1849.97
7346.3
1633.47
7183.32
1463.48
7026.1
1369.52
6857.69
1365.56
6662.77
1440.79
6436
1554.64
6182.04
1661.97
5909.47
1737.29
5628.27
1768.81
5349.58
1748.99
5083.47
1678.32
4837.41
1565.15
4616.55
1419.27
4424.43
1248.78
4263.92
1058.92
4137.78
853.022
4049.93
629.035
4002.56
392.379
4004.25
130.866
4052.39
-150.919
4163.01
-415.143
-821.61
2543.52
72.1803
2536.15
34.9293
2528.86
28.2774
2519.68
38.9574
2508.62
52.4402
2495.52
70.8425
2480.1
95.7931
2462.13
126.305
2441.39
160.225
2417.78
194.095
2391.42
223.563
2362.65
245.629
2331.41
261.604
2297.52
271.776
2261.21
272.815
2222.83
264.005
2182.32
248.93
2139.06
233.78
2091.96
224.817
2040.19
224.901
1983.25
237.778
1918.15
281.553
1837.12
381.215
1733.76
526.991
1609.87
672.424
1471.81
785.334
1326.08
863.124
1183.03
901.139
1053.3
890.543
926.687
868.484
779.039
861.861
610.173
861.767
452.414
804.062
314.852
633.227
174.847
558.804
172.411
154.876
203.198
-388.714
326.044
-836.921
494.024
-1205.03
714.89
-1593.92
998.275
-2031.22
1349.05
-2504.42
1761.21
-2961.18
2217.15
-3333.85
2693.81
-3578.09
3170.23
-3688.81
3631.32
-3687.74
4068.03
-3605.45
4476.25
-3471.5
4855.93
-3311.42
5210.16
-3144.4
5543.5
-2979.46
5859.53
-2813.15
6158.79
-2632.56
6438.84
-2425.45
6695.99
-2187.75
6926.49
-1922.7
7126.63
-1637.03
7292.63
-1339.66
7420.64
-1041.9
7507.03
-758.148
7549.19
-506.521
7546.69
-309.804
7503.85
-199.578
7433.61
-217.582
7358.44
-397.354
7305.6
-727.939
7297.42
-1119.88
7345.91
-1417.09
7453.86
-1450.05
7606.23
-1062.66
7736.34
-137.907
7757.69
1030.26
7667.31
1901.58
7508.7
2320.65
7325.2
2385.72
7145.81
2242.96
6985.51
2010.28
6847.65
1771.33
6725.7
1585.44
6606.14
1489.08
6469.41
1502.28
6297.75
1612.45
6086.45
1765.94
5842.6
1905.82
5576.59
2003.3
5299.93
2045.47
5025.21
2023.71
4763.24
1940.29
4521.63
1806.76
4305.41
1635.48
4118.18
1436.01
3962.92
1214.17
3842.91
973.032
3762.38
709.568
3723.81
430.944
3738.97
115.714
3797.06
-209.016
3941.85
-559.931
-1029.68
2496.91
87.1047
2488.33
43.5161
2480.27
36.3349
2471.03
48.2038
2460.72
62.7507
2449.22
82.3485
2436.22
108.791
2421.37
141.156
2404.19
177.413
2384.13
214.15
2360.93
246.772
2334.57
271.992
2304.73
291.444
2271.01
305.501
2233.49
310.333
2192.41
305.087
2147.77
293.572
2099.14
282.412
2045.69
278.275
1986.96
283.628
1923.12
301.62
1851.41
353.27
1763.05
469.574
1650.4
639.652
1515.52
807.307
1366.83
934.02
1214.53
1015.43
1071.02
1044.66
940.957
1020.61
802.129
1007.32
633.028
1030.97
455.447
1039.35
298.781
960.735
125.398
806.617
7.71627
676.496
85.6456
76.97
168.459
-471.519
285.176
-953.632
446.86
-1366.71
658.837
-1805.89
930.309
-2302.69
1266.36
-2840.47
1661.23
-3356.05
2097.28
-3769.9
2551.4
-4032.2
3002.95
-4140.36
3437.52
-4122.3
3846.6
-4014.54
4226.44
-3851.33
4577.22
-3662.21
4902.58
-3469.76
5207.89
-3284.77
5497.57
-3102.83
5772.56
-2907.55
6030.51
-2683.39
6267.83
-2425.07
6481.15
-2136.02
6667.3
-1823.19
6823.08
-1495.43
6944.95
-1163.77
7029.12
-842.32
7071.99
-549.389
7070.93
-308.749
7026.91
-155.55
6949.55
-140.222
6859.22
-307.03
6783.34
-652.059
6745.75
-1082.29
6759.05
-1430.39
6826.54
-1517.55
6937.62
-1173.74
7039.28
-239.567
7053.98
1015.56
6977.56
1978
6847.67
2450.55
6701.19
2532.19
6562.77
2381.37
6445.1
2127.95
6350.41
1866.01
6270.96
1664.89
6191.61
1568.43
6088.86
1605.04
5941.33
1759.98
5745.22
1962.04
5510.61
2140.43
5249.86
2264.06
4976.2
2319.13
4703.86
2296.05
4444.42
2199.72
4205.7
2045.49
3992.83
1848.35
3809.56
1619.29
3659.13
1364.6
3545.44
1086.73
3472.26
782.746
3444.05
459.151
3472.1
87.6704
3540.49
-277.404
3736.75
-756.192
-1266.9
2445.74
103.785
2435.95
53.2989
2427.28
45.0065
2418.34
57.1471
2409.31
71.7821
2399.99
91.6692
2389.95
118.835
2378.57
152.538
2364.99
190.993
2348.23
230.912
2327.61
267.394
2302.88
296.731
2273.52
320.803
2239.02
340.002
2199.42
349.933
2154.96
349.553
2105.73
342.808
2051.48
336.659
1991.63
338.13
1926.08
349.176
1855.72
371.987
1778.33
430.662
1684.11
563.796
1563.45
760.315
1418.34
952.42
1260.08
1092.28
1103.04
1172.48
958.811
1188.89
822.161
1157.26
663.139
1166.34
476.502
1217.61
303.036
1212.82
138.937
1124.84
-46.2472
991.806
-83.7467
714.002
35.791
-42.5574
137.229
-572.951
253.431
-1069.83
408.02
-1521.3
608.785
-2006.66
865.002
-2558.91
1182.42
-3157.89
1556.19
-3729.82
1969.24
-4182.95
2398.83
-4461.79
2824.9
-4566.43
3233.75
-4531.15
3617.38
-4398.17
3972.05
-4205.99
4297.86
-3988.02
4598.63
-3770.52
4880.34
-3566.49
5148.12
-3370.61
5403.05
-3162.48
5642.5
-2922.84
5862.79
-2645.36
6060.82
-2334.05
6233.99
-1996.36
6379.74
-1641.18
6495.1
-1279.13
6576.49
-923.715
6619.94
-592.834
6621.22
-310.034
6578.17
-112.499
6496.92
-58.9705
6395.03
-205.144
6299.86
-556.883
6237.44
-1019.87
6221.49
-1414.44
6254.46
-1550.52
6326.71
-1245.98
6393.48
-306.338
6390.1
1018.94
6316.53
2051.57
6206.48
2560.59
6090.53
2648.14
5988.84
2483.07
5911.71
2205.08
5860.08
1917.64
5824.74
1700.24
5788.52
1604.65
5722.15
1671.4
5599.26
1882.87
5417.52
2143.79
5190.69
2367.26
4933.21
2521.53
4660.28
2592.07
4388
2568.33
4128.94
2458.78
3891.31
2283.12
3680.53
2059.13
3500.54
1799.28
3354.91
1510.23
3247.81
1193.82
3182.24
848.315
3166.26
475.125
3201.86
52.0792
3291.29
-366.838
3558.24
-1023.14
-1513.88
2391.03
122.221
2380.18
64.1508
2371.13
54.0587
2362.87
65.4154
2355.55
79.1049
2348.8
98.4194
2341.95
125.683
2334.05
160.437
2323.81
201.239
2309.77
244.951
2290.91
286.259
2266.81
320.837
2236.92
350.697
2200.72
376.2
2158.28
392.379
2109.84
397.991
2055.63
397.027
1995.61
396.679
1929.47
404.276
1857.44
421.2
1781.1
448.335
1698.89
512.872
1600.08
662.616
1472.85
887.539
1319.08
1106.2
1153.25
1258.11
992.799
1332.93
844.674
1337.01
692.341
1309.59
510.052
1348.63
318.328
1409.33
152.029
1379.13
-7.39317
1284.27
-140.024
1124.44
-107.805
681.792
5.79364
-156.145
112.086
-679.237
227.303
-1185.04
374.923
-1668.91
563.56
-2195.29
802.397
-2797.74
1098.04
-3453.52
1447.17
-4078.95
1834
-4569.79
2236.71
-4864.49
2636.2
-4965.92
3019.69
-4914.64
3379.61
-4758.09
3712.02
-4538.4
4016.61
-4292.61
4297.08
-4050.99
4559.88
-3829.29
4810.62
-3621.34
5050.16
-3402.02
5275.1
-3147.78
5481.21
-2851.47
5665.5
-2518.33
5825.95
-2156.81
5960.9
-1776.12
6068.29
-1386.52
6145.3
-1000.73
6188.19
-635.716
6191.71
-313.552
6150.72
-71.5095
6067.81
23.9403
5957.19
-94.5295
5845.98
-445.669
5763.02
-936.918
5723.25
-1374.68
5727.12
-1554.38
5763.31
-1282.17
5790.88
-333.913
5761.42
1048.4
5682.83
2130.17
5586.05
2657.37
5495.44
2738.74
5426.92
2551.59
5388.62
2243.38
5380.27
1925.99
5391.13
1689.37
5401.74
1594.04
5374.53
1698.61
5276.47
1980.94
5107.79
2312.47
4886.72
2588.32
4629.72
2778.53
4354.3
2867.5
4078.95
2843.67
3817.59
2720.14
3579.16
2521.56
3369.41
2268.88
3192.42
1976.27
3051.96
1650.68
2951.69
1294.09
2894.97
905.043
2890.86
479.229
2926.68
16.257
3065.37
-505.527
3399.17
-1356.94
-1718.65
2315.3
143.764
2304.3
75.1577
2296.56
61.7932
2291.01
70.9661
2287.46
82.6656
2285.07
100.808
2282.75
128.004
2279.1
164.093
2272.38
207.956
2260.82
256.518
2243.19
303.883
2219.13
344.905
2188.2
381.63
2150.02
414.383
2104.7
437.697
2052.52
450.176
1993.78
455.764
1928.7
461.759
1857.24
475.742
1779.94
498.503
1698.92
529.354
1613.16
598.631
1510.98
764.801
1378.65
1019.87
1218.2
1266.66
1046.92
1429.38
882.896
1496.96
724.579
1495.33
547.632
1486.54
347.906
1548.36
162.085
1595.16
4.96585
1536.25
-124.534
1413.77
-187.618
1187.53
-114.998
609.179
-14.6148
-256.522
92.1791
-786.027
206.403
-1299.26
347.312
-1809.82
523.386
-2371.36
743.324
-3017.68
1014.56
-3724.76
1335.84
-4400.23
1693.45
-4927.39
2067.1
-5238.14
2439.03
-5337.85
2797.56
-5273.17
3135.46
-5095.98
3448.3
-4851.25
3735.06
-4579.37
3999.18
-4315.11
4247.53
-4077.64
4486.16
-3859.96
4715.35
-3631.21
4930.31
-3362.75
5125.73
-3046.89
5298.34
-2690.95
5446.54
-2305.01
5569.57
-1899.14
5666.61
-1483.56
5736.11
-1070.23
5775.45
-675.056
5779.22
-317.322
5739.79
-32.0785
5656.7
107.033
5540.27
21.8987
5416.68
-322.075
5317.67
-837.911
5259.24
-1316.24
5238.63
-1533.78
5240.42
-1283.97
5224.71
-318.198
5163.24
1109.86
5074.28
2219.13
4986.05
2745.6
4916.69
2808.1
4878.4
2589.89
4877.66
2244.12
4913.27
1890.39
4973.2
1629.44
5035.46
1531.79
5050.75
1683.31
4977.56
2054.13
4820.31
2469.72
4602.2
2806.43
4341.51
3039.21
4058.87
3150.14
3776.13
3126.41
3509.29
2986.98
3268.35
2762.49
3059.22
2478.01
2885.68
2149.81
2751.31
1785.05
2658.31
1387.09
2612
951.353
2613.42
477.815
2654.27
-24.5992
2874.33
-725.581
3217.21
-1699.82
-1804.16
2252.86
168.217
2239.08
88.936
2229.56
71.3178
2223.69
76.8432
2221.29
85.0636
2221.17
100.927
2221.69
127.487
2220.86
164.926
2216.44
212.385
2206.26
266.701
2188.91
321.238
2163.92
369.89
2130.93
414.629
2089.71
455.598
2040.67
486.743
1984.29
506.556
1921.13
518.926
1851.63
531.27
1775.91
551.466
1694.72
579.692
1610.53
613.547
1522.4
686.761
1417.63
869.578
1281.23
1156.27
1115.87
1432.03
940.574
1604.68
770.78
1666.76
593.866
1672.25
387.966
1692.45
183.109
1753.22
12.1681
1766.1
-122.298
1670.72
-203.297
1494.77
-216.702
1200.94
-124.845
517.332
-28.8839
-352.474
76.6239
-891.529
189.686
-1412.32
324.236
-1944.37
487.856
-2534.98
688.181
-3218
933.22
-3969.8
1224.14
-4691.15
1550.14
-5253.38
1893.21
-5581.21
2237.36
-5682
2572.02
-5607.82
2890.05
-5414.02
3186.17
-5147.36
3458.22
-4851.42
3709.27
-4566.16
3946.77
-4315.14
4177.32
-4090.52
4400.46
-3854.35
4609.56
-3571.85
4797.82
-3235.15
4961.4
-2854.52
5098.74
-2442.36
5209.69
-2010.09
5294.54
-1568.41
5353.27
-1128.96
5385.16
-706.942
5385.47
-317.631
5345.31
8.07354
5262.3
190.049
5142.59
141.606
5010.05
-189.538
4898.75
-726.607
4826
-1243.49
4785.02
-1492.79
4752.88
-1251.82
4689.3
-254.616
4591.27
1207.89
4488.6
2321.8
4405.62
2828.58
4354.16
2859.56
4343.65
2600.4
4379.67
2208.09
4460.44
1809.63
4573.23
1516.65
4693.59
1411.43
4755.73
1621.17
4707.56
2102.3
4559.31
2617.96
4339.13
3026.61
4067.74
3310.61
3770.93
3446.95
3475.44
3421.9
3200.13
3262.3
2956.02
3006.6
2748.35
2685.68
2579.98
2318.18
2452.99
1912.05
2367.82
1472.26
2331.34
987.828
2328.87
480.284
2403.4
-99.1217
2699.46
-1021.64
2929.66
-1930.03
-1680.98
2191.26
193.396
2176.76
103.437
2166.91
81.1726
2161.39
82.3588
2160.1
86.3569
2161.63
99.4038
2163.99
125.127
2164.78
164.138
2161.37
215.794
2151.37
276.702
2133.24
339.367
2106.43
396.707
2070.41
450.651
2025.06
500.954
1971.13
540.671
1909.66
568.027
1841.71
586.882
1768
604.982
1688.75
630.716
1604.78
663.659
1518.64
699.694
1428.83
776.571
1321.44
976.968
1181.22
1296.49
1011.96
1601.29
832.892
1783.75
653.115
1846.54
449.079
1876.29
217.934
1923.59
24.3006
1946.86
-118.099
1908.5
-217.401
1770.02
-253.917
1531.29
-239.132
1186.16
-136.258
414.467
-40.2739
-448.454
63.7692
-995.569
175.597
-1524.15
304.431
-2073.2
456.229
-2686.78
637.076
-3398.85
855.046
-4187.77
1113.93
-4950.03
1406.7
-5546.15
1718.55
-5893.06
2035.62
-5999.07
2348.41
-5920.61
2649.46
-5715.07
2931.98
-5429.88
3192.24
-5111.68
3432.75
-4806.67
3661.7
-4544.09
3886.57
-4315.39
4106.17
-4073.94
4311.93
-3777.61
4495.54
-3418.76
4652.56
-3011.54
4781.25
-2571.04
4881.52
-2110.36
4954.19
-1641.08
5000.47
-1175.25
5021.78
-728.252
5014.54
-310.382
4970.26
52.3463
4885.83
274.48
4764.68
262.754
4625.17
-50.0222
4502.61
-604.05
4417.66
-1158.54
4359.93
-1435.06
4293.76
-1185.65
4178.33
-139.186
4041.28
1344.94
3923.57
2439.5
3843.63
2908.53
3807.17
2896.01
3822.33
2585.24
3894.78
2135.65
4022.32
1682.08
4192.93
1346.04
4380.82
1223.55
4495.78
1506.21
4471.37
2126.71
4326.21
2763.13
4095.4
3257.42
3804.63
3601.38
3486.59
3764.99
3173.23
3735.26
2886.86
3548.67
2639.63
3253.83
2435.23
2890.08
2274.32
2479.08
2154.88
2031.48
2078.39
1548.75
2048.93
1017.29
2044.57
484.648
2181.89
-236.442
2464.62
-1304.38
2419.06
-1884.46
-1249.03
2128.28
219.13
2113.61
118.113
2104.15
90.6387
2099.69
86.813
2099.96
86.0986
2103.21
96.1515
2107.14
121.202
2108.99
162.295
2105.87
218.914
2095.3
287.271
2075.77
358.906
2046.66
425.82
2007.25
490.055
1957.37
550.843
1898.11
599.927
1831.21
634.93
1758.45
659.651
1680.92
682.509
1598.86
712.782
1513.08
749.443
1425.94
786.837
1334.65
867.861
1223.87
1087.76
1079.2
1441.17
906.087
1774.41
722.367
1967.47
526.354
2042.55
289.266
2113.38
48.68
2164.18
-114.992
2110.54
-220.071
2013.59
-283.557
1833.52
-291.205
1538.94
-258.033
1152.99
-145.152
301.6
-49.5773
-544.022
52.933
-1098.07
163.172
-1634.38
286.826
-2196.85
427.802
-2827.75
590.043
-3561.08
780.994
-4378.72
1007
-5176.04
1265.64
-5804.79
1546.26
-6173.68
1837.6
-6290.41
2131.03
-6214.04
2418.2
-6002.24
2690.15
-5701.83
2941
-5362.53
3172.45
-5038.12
3393.61
-4765.25
3613.27
-4535.05
3829.73
-4290.4
4032.64
-3980.52
4212.53
-3598.64
4364.72
-3163.73
4487.2
-2693.53
4579.52
-2202.68
4642.24
-1703.81
4677.06
-1210.06
4686.97
-738.17
4669.39
-292.799
4617.71
104.027
4530.2
361.988
4408.49
384.47
4261.36
97.1057
4125.38
-468.066
4026.19
-1059.36
3952.34
-1361.21
3851.69
-1085
3683.97
28.5269
3509.18
1519.74
3377.21
2571.46
3298.85
2986.89
3274.61
2920.26
3313.59
2546.26
3422.41
2026.83
3598.51
1505.98
3834.54
1110.01
4103.72
954.361
4275.76
1334.17
4268.45
2134.01
4118.81
2912.77
3872.13
3504.1
3557.68
3915.82
3212.94
4109.73
2875.15
4073.05
2572.89
3850.93
2320.83
3505.89
2120.17
3090.74
1966.83
2632.43
1855.16
2143.15
1793.55
1610.36
1767.21
1043.63
1778.86
472.995
1954.99
-412.573
2028.32
-1377.71
1583
-1439.14
-342.256
2064.6
245.04
2050.13
132.586
2041.32
99.4515
2038.08
90.0482
2039.88
84.3002
2044.66
91.3782
2049.76
116.103
2052.13
159.927
2048.71
222.33
2037.03
298.961
2015.63
380.305
1983.93
457.523
1941
532.986
1886.53
605.315
1821.99
664.468
1749.89
707.033
1672.83
736.704
1592.3
763.049
1508.37
796.714
1421.78
836.032
1334.45
874.169
1241.48
960.832
1125.94
1203.3
975.533
1591.58
797.965
1951.98
607.51
2157.93
386.73
2263.33
120.807
2379.31
-103.048
2388.04
-225.884
2233.37
-296.506
2084.21
-331.077
1868.09
-323.068
1530.94
-272.755
1102.69
-149.222
178.078
-57.5897
-635.65
43.2621
-1198.92
151.573
-1742.69
270.534
-2315.81
401.874
-2959.09
546.965
-3706.17
711.831
-4543.58
904.964
-5369.17
1129.16
-6028.99
1378.89
-6423.41
1645.86
-6557.38
1922.11
-6490.29
2197.84
-6277.97
2461.29
-5965.28
2703.93
-5605.17
2926.41
-5260.6
3138.98
-4977.81
3352.17
-4748.24
3564.16
-4502.4
3763.07
-4179.43
3938.78
-3774.35
4086.97
-3311.91
4205.55
-2812.12
4293.35
-2290.48
4350.1
-1760.56
4376.93
-1236.89
4377.29
-738.533
4348.71
-264.214
4287.91
164.82
4196.37
453.529
4073.58
507.26
3919.11
251.583
3767.81
-316.771
3649.62
-941.164
3554.3
-1265.89
3416.36
-947.056
3199.83
245.049
2992.15
1727.42
2848.15
2715.47
2770.1
3064.93
2754.97
2935.39
2816.14
2485.08
2961.06
1881.91
3188.23
1278.81
3500.83
797.413
3866.48
588.705
4096.36
1104.29
4102.31
2128.07
3950.25
3064.82
3689.34
3765.01
3347.61
4257.55
2967.74
4489.6
2595.13
4445.67
2268.41
4177.64
2006.11
3768.19
1806.45
3290.4
1660.62
2778.26
1566.46
2237.31
1522.93
1653.89
1475.9
1090.66
1533.57
415.322
1617.64
-496.642
1146.75
-906.811
-5.26781
-287.129
857.692
1981.43
271.285
1969.24
144.781
1963.3
105.388
1963.17
90.1823
1967.85
79.6222
1974.93
84.3007
1981.53
109.508
1984.45
157.013
1980.66
226.123
1967.91
311.715
1945.07
403.143
1911.73
490.868
1866.72
578.004
1809.31
662.72
1741.07
732.717
1665.22
782.88
1585.31
816.624
1503.14
845.215
1418.64
881.226
1332.38
922.292
1245.53
961.021
1150.28
1056.09
1028.17
1325.41
870.418
1749.33
687.58
2134.82
486.249
2359.26
232.349
2517.23
-42.7414
2654.4
-224.301
2569.6
-310.645
2319.72
-355.078
2128.65
-368.438
1881.45
-353.655
1516.16
-281.33
1030.37
-149.12
45.8863
-64.947
-719.816
33.9735
-1297.84
140.121
-1848.83
254.814
-2430.5
377.721
-3081.99
507.537
-3835.99
648.087
-4684.13
809.245
-5530.32
999.214
-6218.96
1218.36
-6642.55
1461.78
-6800.8
1721.98
-6750.49
1987.26
-6543.25
2242.67
-6220.68
2476.71
-5839.22
2688.87
-5472.76
2890.74
-5179.68
3095.13
-4952.62
3300.27
-4707.54
3492.89
-4372.05
3662.86
-3944.32
3807.03
-3456.08
3923.6
-2928.68
4010.53
-2377.4
4066.21
-1816.24
4090.16
-1260.84
4084.75
-733.119
4046.8
-226.267
3976.99
234.635
3880.35
550.166
3756.09
631.517
3599.97
407.703
3436.29
-153.082
3296.17
-801.05
3170.12
-1139.83
2987.3
-764.237
2724.61
507.733
2489.31
1962.72
2335.65
2869.13
2256.23
3144.35
2246.43
2945.19
2327.95
2403.57
2508.78
1701.08
2790.64
996.951
3193.76
394.29
3672.15
110.317
3970.05
806.394
3997.12
2100.99
3841.93
3220.02
3556.03
4050.91
3174.94
4638.64
2751.38
4913.16
2337.4
4859.65
1980.7
4534.34
1704.41
4044.48
1506.28
3488.53
1375.54
2909
1300.11
2312.74
1223.1
1730.9
1157.42
1156.35
1253.54
319.197
955.454
-198.555
-210.294
258.937
-1455.6
958.172
1559.53
1912.86
300.677
1897.88
159.769
1890.28
112.985
1889.56
90.9092
1894.32
74.8635
1901.63
76.9907
1908.2
102.941
1910.51
154.697
1905.37
231.271
1890.55
326.534
1865.31
428.389
1829.78
526.393
1783.03
624.755
1724.03
721.725
1654.05
802.701
1576.66
860.276
1496.01
897.267
1414.13
927.097
1330.62
964.745
1245.91
1007.01
1160
1046.93
1061.41
1154.68
930.647
1456.17
764.101
1915.88
575.013
2323.91
354.848
2579.43
70.9664
2801.12
-184.753
2910.12
-315.354
2700.2
-376.236
2380.6
-401.592
2154
-399.709
1879.57
-377.843
1494.3
-282.58
935.106
-156.929
-79.7555
-72.3232
-804.419
24.643
-1394.8
128.439
-1952.63
239.112
-2541.17
354.665
-3197.55
471.284
-3952.61
589.985
-4802.83
720.95
-5661.29
877.406
-6375.41
1066.11
-6831.25
1285.97
-7020.65
1529.89
-6994.41
1784.09
-6797.45
2030.24
-6466.83
2253.85
-6062.82
2453.27
-5672.18
2641.71
-5368.12
2834.45
-5145.36
3029.63
-4902.73
3212.57
-4554.98
3373.99
-4105.74
3513.11
-3595.21
3629.02
-3044.58
3718.69
-2467.07
3778.64
-1876.2
3805.53
-1287.73
3799.33
-726.916
3755.59
-182.528
3678.05
312.178
3576.35
651.87
3453.13
754.732
3303.95
556.883
3135.5
15.3719
2976.25
-641.796
2807.27
-970.855
2565.95
-522.912
2259.16
814.517
2000.88
2221.01
1839.47
3030.53
1756.05
3227.78
1746.66
2954.58
1846.13
2304.1
2064.12
1483.1
2406.76
654.316
2933.86
-132.814
3557.02
-512.839
3914.83
448.586
3931.03
2084.79
3734.14
3416.92
3399.9
4385.15
2976.74
5061.81
2520.44
5369.45
2079.8
5300.29
1706.47
4907.66
1427.08
4323.88
1237.2
3678.4
1109.62
3036.58
993.664
2428.7
900.145
1824.41
1052.05
1004.44
906.596
464.654
-251.923
959.963
-1577.48
1584.49
-2381.83
1762.52
2015.84
1847.93
329.787
1832.31
175.397
1823.74
121.551
1822.07
92.5888
1825.99
70.9485
1832.43
70.5449
1837.92
97.4578
1838.66
153.958
1831.13
238.808
1812.92
344.747
1783.51
457.804
1743.84
566.058
1693.83
674.772
1632.79
782.772
1561.92
873.573
1484.77
937.43
1405.56
976.479
1325.97
1006.69
1245.07
1045.65
1163.05
1089.02
1078.23
1131.76
974.754
1258.16
833.197
1597.73
657.058
2092.02
459.451
2521.52
210.235
2828.65
-86.5976
3097.95
-296.695
3120.22
-383.854
2787.36
-427.299
2424.05
-437.354
2164.06
-422.631
1864.85
-387.245
1458.91
-279.46
827.329
-169.026
-190.178
-79.8117
-893.628
15.1811
-1489.79
116.392
-2053.83
223.098
-2647.87
332.136
-3306.58
437.599
-4058.07
537.382
-4902.61
640.747
-5764.65
764.941
-6499.61
923.177
-6989.49
1118.62
-7216.1
1344.83
-7220.62
1585.99
-7038.61
1820.49
-6701.32
2030.93
-6273.27
2214.77
-5856.01
2386.93
-5540.28
2564.84
-5323.27
2745.93
-5083.82
2914.11
-4723.16
3062.36
-4254
3194.12
-3726.97
3310.12
-3160.59
3406.11
-2563.05
3475.94
-1946.04
3512.06
-1323.85
3510.97
-725.824
3466.3
-137.866
3383.53
394.955
3278.1
757.299
3159.69
873.143
3023.17
693.404
2860.55
177.991
2694.47
-475.723
2476.35
-752.736
2158.14
-204.703
1803.44
1169.22
1527.31
2497.14
1359.5
3198.34
1268.28
3319.01
1252.6
2970.25
1367.59
2189.11
1616.87
1233.82
2069.76
201.429
2756.76
-819.816
3490
-1246.08
3812.92
125.66
3729.59
2168.12
3460.63
3685.88
3087.68
4758.09
2655.05
5494.44
2208.3
5816.2
1784.82
5723.78
1431.5
5260.99
1165.52
4589.85
965.088
3878.84
790.893
3210.78
684.382
2535.21
829.09
1679.71
725.791
1107.74
-403.227
1593.67
-1762.63
2319.37
-2552.4
2374.25
-3046.69
2256.81
2352.03
1782.71
358.32
1767.29
190.818
1758.65
130.197
1756.7
94.5411
1760.12
67.5254
1765.79
64.8746
1770.13