/*--------------------------------*- C++ -*----------------------------------*\
| =========                 |                                                 |
| \\      /  F ield         | OpenFOAM: The Open Source CFD Toolbox           |
|  \\    /   O peration     | Version:  4.1                                   |
|   \\  /    A nd           | Web:      www.OpenFOAM.org                      |
|    \\/     M anipulation  |                                                 |
\*---------------------------------------------------------------------------*/
FoamFile
{
    version     2.0;
    format      ascii;
    class       volVectorField;
    location    "1500";
    object      U;
}
// * * * * * * * * * * * * * * * * * * * * * * * * * * * * * * * * * * * * * //

dimensions      [0 1 -1 0 0 0 0];

internalField   nonuniform List<vector> 
26785
(
(-8.15079e-16 0.0407455 20.8186)
(-7.4233e-16 0.0363155 19.9548)
(-7.97818e-16 0.0334238 19.1994)
(5.70204e-17 0.0318084 18.547)
(-1.61456e-16 0.0307604 17.9318)
(1.02863e-15 0.030418 17.3366)
(-1.2578e-16 0.030845 16.7587)
(-5.23025e-16 0.0319212 16.1863)
(-2.10692e-15 0.0334331 15.6074)
(-1.00521e-17 0.0350592 15.0177)
(-9.92468e-16 0.0364128 14.4194)
(-1.0078e-15 0.0372059 13.8203)
(-1.35231e-15 0.0374105 13.2299)
(-1.7503e-15 0.0370075 12.6565)
(-2.07999e-15 0.0358405 12.1082)
(-2.27468e-15 0.0338568 11.5955)
(-2.32257e-15 0.031169 11.1281)
(-2.35733e-15 0.0280524 10.7114)
(-2.22347e-15 0.0249606 10.3457)
(-2.45562e-15 0.0224184 10.0246)
(-2.81002e-15 0.0211252 9.73672)
(-2.75925e-15 0.0222367 9.46049)
(-4.03226e-15 0.0266409 9.15864)
(-5.62957e-15 0.0333596 8.79126)
(-6.47094e-15 0.0400478 8.34372)
(-9.09022e-15 0.0451546 7.83132)
(-1.01911e-14 0.0485563 7.27799)
(-1.07469e-14 0.0504822 6.70519)
(-1.05253e-14 0.0511478 6.13366)
(-1.37826e-14 0.0518214 5.56818)
(-2.16277e-14 0.051427 5.00078)
(-2.44628e-14 0.0447696 4.46397)
(-2.31316e-14 0.0244752 4.07899)
(-1.61691e-14 -0.00833669 3.98602)
(-9.88914e-15 -0.0352395 4.13681)
(-1.45826e-14 -0.0545498 4.38158)
(-1.28168e-14 -0.0654125 4.67777)
(-1.14455e-14 -0.0671342 5.04595)
(-9.92623e-15 -0.0704144 5.53074)
(-9.38665e-15 -0.078961 6.17627)
(-4.71306e-15 -0.0913888 6.99256)
(-4.6965e-16 -0.105482 7.96959)
(-3.58798e-16 -0.119834 9.09062)
(-1.72752e-15 -0.133214 10.333)
(-3.02249e-15 -0.144266 11.6651)
(-2.66827e-15 -0.151932 13.0483)
(-2.8549e-15 -0.155775 14.4431)
(-9.71577e-16 -0.155965 15.815)
(-2.43987e-16 -0.153087 17.137)
(3.53315e-16 -0.147923 18.39)
(2.9077e-16 -0.141201 19.5626)
(1.01357e-15 -0.133341 20.649)
(6.01167e-16 -0.124327 21.6454)
(5.20488e-16 -0.113811 22.5468)
(5.96138e-16 -0.101467 23.3459)
(2.0335e-16 -0.0873107 24.0343)
(1.56457e-15 -0.0717719 24.6056)
(1.64355e-15 -0.0556288 25.0573)
(1.9591e-15 -0.0399477 25.393)
(3.67637e-15 -0.0260292 25.6225)
(3.1691e-15 -0.015369 25.7635)
(2.72528e-15 -0.00967134 25.8417)
(1.95686e-15 -0.0108128 25.8917)
(3.20595e-15 -0.0203508 25.9576)
(3.54929e-15 -0.038038 26.0911)
(4.58744e-15 -0.0596815 26.3414)
(4.8989e-15 -0.0761439 26.7301)
(4.88897e-15 -0.0753798 27.2135)
(5.01009e-15 -0.0483699 27.6606)
(5.05022e-15 0.00382324 27.8855)
(6.59164e-15 0.0704387 27.7206)
(6.75655e-15 0.136191 27.0969)
(7.37027e-15 0.184659 26.0859)
(7.58921e-15 0.209011 24.8501)
(7.91948e-15 0.212971 23.5504)
(6.5082e-15 0.20376 22.2957)
(6.65781e-15 0.187777 21.1427)
(6.10741e-15 0.169672 20.1118)
(5.92795e-15 0.152659 19.2002)
(5.90855e-15 0.138929 18.3906)
(5.87903e-15 0.129774 17.6566)
(6.85574e-15 0.125605 16.968)
(6.65084e-15 0.125767 16.2962)
(6.65961e-15 0.128492 15.6196)
(7.56793e-15 0.131636 14.9296)
(7.51581e-15 0.133662 14.2292)
(8.02992e-15 0.133772 13.5283)
(8.1826e-15 0.131504 12.8389)
(8.25953e-15 0.126695 12.1738)
(7.61352e-15 0.119552 11.5456)
(7.4721e-15 0.110444 10.9649)
(7.05869e-15 0.0997252 10.4401)
(6.55995e-15 0.0876835 9.97679)
(5.95362e-15 0.0745943 9.58056)
(5.38701e-15 0.060522 9.25253)
(4.18356e-15 0.04576 9.00189)
(2.88598e-15 0.0302149 8.81494)
(1.45734e-15 0.0128348 8.73396)
(1.68679e-17 -0.00108487 8.67137)
(-3.37442e-15 -0.0244114 8.81023)
(-1.17892e-15 0.116197 21.1921)
(3.02995e-16 0.105406 20.3067)
(-4.85048e-16 0.0987471 19.5276)
(-5.81629e-16 0.0955114 18.8474)
(-1.17328e-15 0.0933942 18.2027)
(6.71389e-16 0.0928525 17.5782)
(-1.68947e-15 0.0942325 16.9726)
(-8.3551e-16 0.0973106 16.3753)
(2.36727e-16 0.101545 15.7756)
(-1.06301e-15 0.106055 15.1701)
(-1.50807e-15 0.109763 14.5614)
(-1.79957e-15 0.111887 13.9569)
(-1.85854e-15 0.112396 13.365)
(-1.62629e-15 0.111224 12.7925)
(-3.22259e-16 0.107876 12.2464)
(-1.72952e-15 0.102203 11.736)
(-1.50295e-15 0.0946136 11.2699)
(-1.18927e-15 0.0859716 10.8514)
(-1.35573e-15 0.0775115 10.4781)
(-6.49096e-17 0.0705428 10.1431)
(7.5153e-16 0.0669178 9.83544)
(-1.96821e-15 0.0700571 9.53643)
(-1.3476e-16 0.082926 9.21146)
(-1.51442e-15 0.102979 8.82147)
(-1.23804e-15 0.123312 8.35094)
(-3.02369e-15 0.139202 7.81356)
(-6.24411e-15 0.149827 7.23345)
(-7.64489e-15 0.155114 6.63615)
(-7.4871e-15 0.156334 6.04349)
(-1.15534e-14 0.158825 5.45357)
(-1.8302e-14 0.156903 4.86893)
(-1.6138e-14 0.13184 4.35304)
(-1.26306e-14 0.070387 3.98942)
(-7.55969e-15 -0.00784156 3.76926)
(-3.44483e-15 -0.0432128 3.56485)
(-6.55507e-15 -0.0535049 3.30492)
(-9.1127e-15 -0.0744428 3.15073)
(-1.02678e-14 -0.113663 3.27012)
(-9.63066e-15 -0.177609 3.66976)
(-8.12841e-15 -0.248243 4.29996)
(-7.725e-15 -0.315765 5.12428)
(-4.36901e-15 -0.377684 6.13379)
(-1.95396e-15 -0.432437 7.32377)
(-2.11026e-15 -0.476974 8.67286)
(-2.30614e-16 -0.508187 10.1385)
(3.98746e-16 -0.524803 11.6664)
(5.67606e-16 -0.527601 13.2035)
(-2.15926e-16 -0.518662 14.7057)
(1.70974e-15 -0.500654 16.1407)
(1.99027e-15 -0.476363 17.4872)
(3.99184e-15 -0.448179 18.7333)
(3.59802e-15 -0.417521 19.8737)
(4.57615e-15 -0.384529 20.9061)
(6.85212e-15 -0.348402 21.8276)
(4.88791e-15 -0.308392 22.6336)
(5.69616e-15 -0.264647 23.3187)
(7.65332e-15 -0.218304 23.8797)
(8.48006e-15 -0.171223 24.3171)
(6.89457e-15 -0.125852 24.6359)
(8.61793e-15 -0.0851577 24.8456)
(7.96997e-15 -0.0525193 24.9608)
(9.08608e-15 -0.0316607 25.0012)
(8.24409e-15 -0.0267923 24.9912)
(6.3815e-15 -0.0425397 24.9616)
(6.40785e-15 -0.0819455 24.9532)
(6.12823e-15 -0.141087 25.0209)
(6.10148e-15 -0.201773 25.2244)
(5.19122e-15 -0.227878 25.5912)
(6.78612e-15 -0.176855 26.0642)
(5.28304e-15 -0.0307485 26.477)
(4.88194e-15 0.183756 26.5847)
(6.10205e-15 0.404508 26.2035)
(6.24753e-15 0.566263 25.3534)
(7.1836e-15 0.644712 24.2086)
(6.23157e-15 0.65455 22.9594)
(8.21771e-15 0.62181 21.7366)
(7.4913e-15 0.568448 20.6088)
(7.28341e-15 0.509629 19.6017)
(7.50929e-15 0.455315 18.7142)
(7.02019e-15 0.412011 17.9288)
(7.07954e-15 0.383385 17.2184)
(7.95557e-15 0.370466 16.552)
(7.76423e-15 0.371049 15.8998)
(6.56409e-15 0.37956 15.2398)
(6.44023e-15 0.389363 14.5635)
(6.99441e-15 0.395767 13.8748)
(6.85144e-15 0.396348 13.1844)
(6.70727e-15 0.389678 12.5051)
(6.3272e-15 0.375253 11.85)
(6.50791e-15 0.353721 11.2322)
(6.23653e-15 0.326252 10.6626)
(5.874e-15 0.293977 10.1494)
(5.5821e-15 0.257826 9.69788)
(4.39168e-15 0.218641 9.31324)
(2.92092e-15 0.176605 8.99646)
(1.6979e-15 0.132484 8.75644)
(-1.2611e-16 0.0860504 8.58013)
(-1.85578e-15 0.0342246 8.50973)
(-3.75112e-15 -0.0065043 8.45484)
(-7.5566e-15 -0.0757628 8.60135)
(-1.21208e-15 0.198746 21.4411)
(-2.52363e-15 0.181029 20.5373)
(-8.45672e-16 0.169455 19.7345)
(-1.49659e-15 0.163938 19.0246)
(-1.14932e-15 0.160376 18.3468)
(8.80891e-16 0.159322 17.6883)
(-1.4758e-15 0.161289 17.05)
(-7.83855e-16 0.165879 16.4236)
(-6.73531e-16 0.17219 15.8003)
(-2.64729e-16 0.178806 15.1779)
(1.41967e-17 0.184046 14.5596)
(1.05345e-16 0.186749 13.9522)
(9.13854e-17 0.186969 13.3629)
(-1.94482e-17 0.184626 12.7964)
(3.04637e-16 0.17887 12.258)
(7.58727e-16 0.169485 11.7554)
(-1.38161e-15 0.157246 11.295)
(1.02411e-15 0.143696 10.8778)
(-1.45926e-15 0.130835 10.499)
(1.87387e-15 0.120555 10.15)
(3.78905e-16 0.115545 9.82053)
(1.28779e-16 0.121244 9.49476)
(3.68007e-15 0.142709 9.14251)
(4.01787e-15 0.176107 8.7271)
(2.80952e-15 0.210262 8.23234)
(1.76476e-15 0.237125 7.67086)
(-2.56498e-15 0.254646 7.06829)
(-6.64438e-15 0.262982 6.4501)
(-8.03853e-15 0.265526 5.83172)
(-1.01151e-14 0.268465 5.21754)
(-1.30464e-14 0.257513 4.64445)
(-1.21063e-14 0.21314 4.1696)
(-8.35878e-15 0.139969 3.75825)
(-7.2262e-15 0.0678327 3.30066)
(-9.28514e-15 0.052065 2.77572)
(-6.61115e-15 0.0187107 2.36913)
(-6.72547e-15 -0.0839045 2.36354)
(-7.92112e-15 -0.192946 2.69392)
(-5.18828e-15 -0.302475 3.17105)
(-6.16075e-15 -0.406663 3.75702)
(-7.27082e-15 -0.51119 4.47962)
(-6.28504e-15 -0.618084 5.3793)
(-5.78405e-15 -0.721199 6.47824)
(-7.23501e-15 -0.809194 7.76263)
(-8.12722e-15 -0.87225 9.18433)
(-8.24794e-15 -0.906451 10.6787)
(-7.09228e-15 -0.913364 12.1839)
(-5.29031e-15 -0.897579 13.6512)
(-4.12934e-15 -0.864723 15.0469)
(-3.53096e-15 -0.82034 16.3512)
(-2.72048e-15 -0.768987 17.5544)
(-1.72819e-15 -0.713332 18.6533)
(-2.5004e-16 -0.653768 19.6466)
(1.49063e-15 -0.589072 20.5309)
(3.03546e-15 -0.518168 21.2999)
(5.58079e-15 -0.441519 21.9455)
(6.62659e-15 -0.361164 22.462)
(7.17992e-15 -0.280147 22.8476)
(9.52113e-15 -0.2022 23.1054)
(8.67995e-15 -0.131651 23.2433)
(9.22965e-15 -0.0732658 23.2747)
(9.12866e-15 -0.0320949 23.2181)
(9.76387e-15 -0.0138365 23.0971)
(1.00419e-14 -0.0257912 22.9406)
(1.20495e-14 -0.0759348 22.7861)
(1.29366e-14 -0.16628 22.6849)
(1.28039e-14 -0.279932 22.7001)
(1.33747e-14 -0.36812 22.8851)
(1.21617e-14 -0.356186 23.2474)
(1.00483e-14 -0.185557 23.7206)
(7.30259e-15 0.139693 24.1314)
(5.37402e-15 0.528249 24.1899)
(4.41196e-15 0.839549 23.7356)
(2.45178e-15 1.00595 22.8815)
(3.0052e-15 1.04523 21.8316)
(3.59408e-15 1.00346 20.7464)
(4.30861e-15 0.921273 19.7183)
(4.70014e-15 0.826823 18.7879)
(4.99017e-15 0.738416 17.9632)
(5.35575e-15 0.667856 17.2314)
(5.83372e-15 0.62176 16.5678)
(6.21009e-15 0.602113 15.9416)
(7.63391e-15 0.605217 15.3227)
(7.66825e-15 0.621399 14.6891)
(7.65342e-15 0.639245 14.0332)
(7.31305e-15 0.650917 13.3612)
(7.03075e-15 0.652441 12.6854)
(6.7296e-15 0.641443 12.0197)
(6.40377e-15 0.617188 11.3783)
(5.90601e-15 0.580941 10.7752)
(5.19688e-15 0.534819 10.2212)
(4.91578e-15 0.480841 9.72405)
(4.25536e-15 0.420621 9.28861)
(3.09607e-15 0.355523 8.91949)
(1.7524e-15 0.285763 8.61753)
(1.5968e-16 0.212469 8.39162)
(-2.38025e-15 0.135156 8.22929)
(-4.85156e-15 0.0492356 8.17469)
(-7.57856e-15 -0.0173588 8.13021)
(-1.0365e-14 -0.131909 8.30068)
(-1.28579e-15 0.282402 21.5478)
(-1.38891e-15 0.259428 20.6345)
(-2.33642e-15 0.243935 19.8174)
(-2.28316e-15 0.236427 19.0875)
(-1.16827e-15 0.231352 18.386)
(-1.96452e-15 0.229473 17.7026)
(-7.57757e-16 0.231507 17.0406)
(6.13311e-16 0.23691 16.3936)
(-3.82452e-16 0.244466 15.7547)
(-4.0002e-16 0.252303 15.123)
(-2.45635e-16 0.25823 14.5018)
(1.14613e-16 0.260799 13.8971)
(3.27171e-16 0.26022 13.3146)
(-1.81853e-16 0.256421 12.7574)
(1.4918e-15 0.248215 12.2289)
(1.71476e-15 0.235356 11.7351)
(1.65213e-15 0.219046 11.2801)
(1.29384e-15 0.201534 10.862)
(2.90603e-15 0.185521 10.4732)
(2.84499e-15 0.173253 10.1037)
(2.85674e-15 0.167868 9.74438)
(3.32572e-15 0.176467 9.38309)
(4.93571e-15 0.206249 8.9941)
(6.29808e-15 0.252499 8.54325)
(6.8068e-15 0.29997 8.01576)
(6.20431e-15 0.337168 7.42685)
(4.33718e-15 0.361239 6.80298)
(1.06761e-15 0.373359 6.16347)
(-2.8365e-15 0.376886 5.52226)
(-6.79046e-15 0.375232 4.90559)
(-1.00306e-14 0.351498 4.36027)
(-3.50535e-15 0.300103 3.88218)
(6.77468e-15 0.236963 3.37715)
(1.13337e-14 0.167974 2.8298)
(5.13664e-15 0.13361 2.34327)
(4.25283e-15 0.0362224 2.0534)
(5.79735e-15 -0.138934 2.04116)
(-4.84365e-15 -0.279083 2.28436)
(-2.66782e-15 -0.410746 2.67498)
(-4.13453e-15 -0.544255 3.21651)
(-8.51531e-15 -0.688901 3.93137)
(-8.13377e-15 -0.843949 4.84379)
(-8.68297e-15 -0.996502 5.96029)
(-1.13079e-14 -1.12668 7.25309)
(-1.2228e-14 -1.21847 8.66358)
(-1.06881e-14 -1.26633 10.1224)
(-9.15752e-15 -1.27376 11.5689)
(-5.99636e-15 -1.24877 12.9594)
(-4.19275e-15 -1.20042 14.2674)
(-4.61163e-15 -1.13709 15.4803)
(-4.91542e-15 -1.06526 16.5956)
(-2.44623e-15 -0.988335 17.6158)
(-3.24825e-15 -0.906293 18.5442)
(-1.35333e-15 -0.816736 19.3796)
(1.3704e-15 -0.717601 20.1153)
(2.33768e-15 -0.609228 20.7411)
(5.23193e-15 -0.494385 21.247)
(3.62991e-15 -0.377362 21.6262)
(7.72774e-15 -0.263456 21.8757)
(7.52742e-15 -0.158795 21.9976)
(1.00179e-14 -0.0701224 22.0001)
(9.8567e-15 -0.00454688 21.8982)
(1.15826e-14 0.0301607 21.7142)
(1.26537e-14 0.0243219 21.4781)
(1.4031e-14 -0.0330599 21.2281)
(1.2341e-14 -0.147064 21.0127)
(1.47334e-14 -0.302126 20.888)
(1.43622e-14 -0.446312 20.904)
(1.40844e-14 -0.493043 21.084)
(1.38851e-14 -0.357084 21.4156)
(1.04709e-14 -0.000738224 21.8179)
(7.96095e-15 0.516236 22.0616)
(3.31077e-15 0.98642 21.8783)
(3.48144e-15 1.26763 21.2808)
(3.98893e-15 1.36166 20.4414)
(1.61524e-15 1.32945 19.5216)
(2.01555e-15 1.2309 18.6236)
(1.2217e-15 1.10896 17.7982)
(3.20419e-15 0.991889 17.0606)
(4.11078e-15 0.898017 16.4032)
(4.92876e-15 0.83773 15.8036)
(5.49938e-15 0.814581 15.232)
(5.9513e-15 0.823528 14.6573)
(7.22043e-15 0.850331 14.0573)
(7.28248e-15 0.878374 13.4264)
(8.06621e-15 0.896716 12.7737)
(7.80764e-15 0.899963 12.1142)
(7.80035e-15 0.884827 11.4633)
(7.37279e-15 0.850521 10.837)
(6.52201e-15 0.799213 10.2499)
(6.01626e-15 0.734183 9.71288)
(5.49604e-15 0.658464 9.23309)
(3.70624e-15 0.57436 8.81478)
(2.45561e-15 0.483678 8.46214)
(7.11784e-16 0.386453 8.17614)
(-1.07696e-15 0.284172 7.96599)
(-3.62092e-15 0.175568 7.8198)
(-5.56896e-15 0.0557333 7.78545)
(-8.3001e-15 -0.0381334 7.75343)
(-9.33767e-15 -0.198971 7.96536)
(-1.29607e-15 0.356266 21.4939)
(-1.27008e-15 0.328335 20.581)
(-1.14967e-15 0.311553 19.7606)
(-1.9051e-15 0.304294 19.0234)
(-1.50258e-15 0.299408 18.3117)
(-1.59218e-16 0.29789 17.6175)
(-2.24724e-15 0.300686 16.9458)
(-1.09535e-15 0.307178 16.2922)
(-6.26554e-16 0.315917 15.6513)
(9.45535e-18 0.324703 15.0227)
(3.21383e-16 0.330981 14.4092)
(-5.96702e-16 0.333133 13.8157)
(4.66025e-16 0.331611 13.2461)
(-2.23147e-16 0.326374 12.7016)
(1.75319e-15 0.315917 12.1837)
(3.07729e-15 0.300032 11.6963)
(1.92519e-15 0.280446 11.2411)
(2.21062e-15 0.260164 10.8141)
(2.49155e-15 0.242473 10.4067)
(3.02478e-15 0.229668 10.009)
(3.08324e-15 0.224952 9.61377)
(3.41859e-15 0.236906 9.21294)
(6.2608e-15 0.275027 8.78411)
(7.02466e-15 0.333801 8.2941)
(7.71259e-15 0.393677 7.73014)
(8.72975e-15 0.439948 7.11138)
(6.52944e-15 0.46998 6.46336)
(3.36667e-15 0.485536 5.80041)
(2.47116e-15 0.487074 5.14766)
(-3.82799e-16 0.477026 4.54873)
(-1.70972e-15 0.444371 4.02071)
(4.48107e-15 0.396616 3.49723)
(1.05332e-14 0.342141 2.90454)
(1.20308e-14 0.255295 2.34546)
(2.68173e-15 0.199278 1.89656)
(-1.92915e-15 0.082082 1.46995)
(-6.28014e-16 -0.152345 1.25068)
(-4.57773e-15 -0.344647 1.45576)
(-7.70913e-15 -0.52188 1.86292)
(-5.97334e-15 -0.69903 2.44419)
(-1.05415e-14 -0.890108 3.20888)
(-1.39574e-14 -1.09398 4.17332)
(-1.5235e-14 -1.29221 5.33416)
(-1.55237e-14 -1.45756 6.65283)
(-1.25685e-14 -1.56957 8.06325)
(-9.81894e-15 -1.62287 9.49432)
(-7.88951e-15 -1.62411 10.8883)
(-6.41554e-15 -1.58521 12.2072)
(-4.80879e-15 -1.51875 13.4305)
(-3.64497e-15 -1.43587 14.5519)
(-4.17281e-15 -1.34485 15.5745)
(-2.851e-15 -1.2497 16.5071)
(-4.08944e-15 -1.14962 17.3582)
(-3.80725e-15 -1.0405 18.1312)
(-3.41111e-15 -0.918658 18.8218)
(-4.39389e-15 -0.783678 19.4211)
(-2.87935e-15 -0.638411 19.9186)
(-1.83993e-15 -0.487759 20.3053)
(3.04657e-15 -0.338074 20.5741)
(2.69695e-15 -0.197015 20.7211)
(6.95633e-15 -0.0733808 20.7467)
(7.37968e-15 0.0232213 20.6578)
(9.86684e-15 0.0822128 20.4695)
(1.04313e-14 0.0906681 20.2062)
(9.22153e-15 0.0337885 19.9033)
(1.01447e-14 -0.0967653 19.6095)
(6.31368e-15 -0.285787 19.383)
(6.99751e-15 -0.476964 19.2761)
(7.05226e-15 -0.575082 19.3149)
(1.23932e-14 -0.480341 19.5042)
(1.23853e-14 -0.127871 19.817)
(1.1811e-14 0.464741 20.0944)
(6.89471e-15 1.0658 20.0521)
(5.74027e-15 1.45731 19.6294)
(5.31024e-15 1.61244 18.9605)
(4.8784e-15 1.59891 18.1929)
(4.90249e-15 1.49248 17.4262)
(4.39433e-15 1.34994 16.7134)
(4.49251e-15 1.20962 16.0737)
(3.75683e-15 1.09688 15.5021)
(4.02794e-15 1.02646 14.978)
(6.24428e-15 1.00409 14.4711)
(6.30688e-15 1.02345 13.9487)
(6.72687e-15 1.06496 13.3874)
(7.89146e-15 1.10614 12.7842)
(7.89229e-15 1.13306 12.1523)
(8.43932e-15 1.1391 11.5098)
(8.80586e-15 1.1201 10.8742)
(8.80467e-15 1.07552 10.263)
(8.44483e-15 1.0088 9.69189)
(8.10208e-15 0.924647 9.17161)
(7.02117e-15 0.827185 8.70871)
(5.1531e-15 0.719366 8.30696)
(3.27955e-15 0.603318 7.9704)
(1.08949e-15 0.478597 7.70045)
(-1.05542e-15 0.34721 7.50698)
(-3.52424e-15 0.206207 7.37858)
(-5.52738e-15 0.0525327 7.36872)
(-8.74819e-15 -0.0725522 7.35091)
(-7.34872e-15 -0.280225 7.62052)
(-1.0711e-15 0.443237 21.1999)
(-2.43578e-15 0.404375 20.2931)
(-1.50965e-15 0.383375 19.4827)
(-1.8332e-15 0.374398 18.7563)
(-1.19697e-15 0.368335 18.0552)
(-1.24023e-15 0.366199 17.3726)
(-2.47434e-15 0.368988 16.7145)
(-2.2495e-15 0.375908 16.0773)
(-5.17647e-16 0.385263 15.456)
(1.2145e-15 0.394565 14.8498)
(4.11816e-16 0.400931 14.2601)
(-6.02334e-16 0.402602 13.6899)
(7.47059e-16 0.400297 13.1415)
(1.2208e-15 0.394034 12.614)
(1.66558e-15 0.382004 12.107)
(1.88428e-15 0.364045 11.6225)
(2.1469e-15 0.342347 11.1611)
(1.53164e-15 0.32055 10.7187)
(1.35969e-15 0.302395 10.2877)
(2.05353e-15 0.290072 9.86)
(4.03378e-15 0.286639 9.43049)
(5.19236e-15 0.302129 8.99396)
(5.92689e-15 0.348599 8.52882)
(9.2189e-15 0.41973 8.00085)
(1.03124e-14 0.491302 7.39938)
(9.65655e-15 0.545707 6.74771)
(8.16994e-15 0.581067 6.07089)
(7.03679e-15 0.598154 5.38615)
(6.4532e-15 0.593477 4.73659)
(4.81773e-15 0.574226 4.16276)
(4.5107e-15 0.540527 3.62938)
(2.66807e-15 0.503972 3.03549)
(1.03513e-15 0.453023 2.37823)
(1.03793e-15 0.342451 1.84159)
(1.67149e-15 0.276529 1.35315)
(1.05434e-14 0.200015 0.701698)
(-2.17744e-15 -0.166309 0.519395)
(-1.12936e-14 -0.427045 0.873693)
(-1.08772e-14 -0.64396 1.34882)
(-7.49654e-15 -0.860172 1.96951)
(-1.48254e-14 -1.09573 2.76217)
(-1.68082e-14 -1.3472 3.74709)
(-1.76621e-14 -1.58906 4.9181)
(-1.54276e-14 -1.78618 6.23128)
(-1.29951e-14 -1.91407 7.61655)
(-9.87239e-15 -1.96829 9.00232)
(-7.79351e-15 -1.95925 10.3335)
(-5.73777e-15 -1.90309 11.5761)
(-3.3902e-15 -1.81603 12.7139)
(-2.58171e-15 -1.7121 13.7439)
(-3.05633e-15 -1.60161 14.6733)
(-4.12003e-15 -1.48931 15.5146)
(-5.3413e-15 -1.37364 16.2806)
(-6.59338e-15 -1.24859 16.9781)
(-7.72019e-15 -1.1086 17.6055)
(-8.43343e-15 -0.952281 18.1554)
(-8.47637e-15 -0.782237 18.6191)
(-8.45994e-15 -0.60344 18.9887)
(-6.10132e-15 -0.422552 19.2568)
(-5.62009e-15 -0.247945 19.4171)
(-3.95372e-15 -0.0897472 19.4651)
(-5.70294e-15 0.0403513 19.4007)
(-2.47793e-15 0.128945 19.2299)
(-2.72974e-15 0.1593 18.968)
(-5.79742e-16 0.11166 18.6437)
(-9.57583e-16 -0.0269743 18.3034)
(-2.65228e-15 -0.242933 18.0087)
(-9.03939e-16 -0.47639 17.8166)
(1.56195e-16 -0.6252 17.7551)
(5.1277e-15 -0.578466 17.8335)
(6.606e-15 -0.24915 18.0519)
(9.75343e-15 0.388597 18.3042)
(9.05837e-15 1.09961 18.3272)
(7.32197e-15 1.59299 18.0145)
(4.29047e-15 1.80871 17.4728)
(3.96609e-15 1.81722 16.8331)
(3.95325e-15 1.70757 16.1867)
(2.98507e-15 1.54905 15.584)
(4.16013e-15 1.38954 15.0446)
(4.3041e-15 1.26171 14.5646)
(4.63298e-15 1.18501 14.1231)
(4.12869e-15 1.16804 13.6883)
(4.01151e-15 1.20321 13.2239)
(2.93633e-15 1.26426 12.7045)
(5.72952e-15 1.32199 12.1301)
(7.13455e-15 1.35972 11.5193)
(7.81528e-15 1.36981 10.8935)
(8.70042e-15 1.34732 10.2724)
(9.00666e-15 1.2923 9.67546)
(8.88519e-15 1.20994 9.11933)
(8.46068e-15 1.10653 8.61456)
(7.92947e-15 0.987359 8.16713)
(6.05924e-15 0.855935 7.78068)
(3.38432e-15 0.714549 7.45929)
(1.42205e-15 0.561963 7.20549)
(-1.50415e-16 0.401108 7.02929)
(-1.81223e-15 0.225692 6.92055)
(-3.68778e-15 0.0386081 6.93965)
(-5.92814e-15 -0.124864 6.93544)
(-2.66963e-15 -0.378475 7.28112)
(-1.02316e-15 0.511814 20.869)
(-1.07156e-15 0.466466 19.9612)
(-1.61286e-15 0.444167 19.1539)
(-1.62201e-15 0.435441 18.4341)
(-1.15527e-15 0.429528 17.743)
(1.56347e-16 0.427639 17.0743)
(-6.72344e-16 0.430956 16.4346)
(-6.44171e-16 0.438632 15.8201)
(6.46807e-16 0.448851 15.2251)
(6.06054e-16 0.458952 14.647)
(-9.63815e-16 0.465803 14.0848)
(-1.25813e-15 0.467533 13.5393)
(-9.67171e-16 0.465166 13.0111)
(-5.51824e-16 0.458781 12.4976)
(-2.32328e-17 0.446267 11.9971)
(-3.38411e-16 0.427461 11.5106)
(-1.2088e-15 0.404878 11.0385)
(-8.08658e-16 0.382634 10.5776)
(-4.75034e-16 0.36486 10.1224)
(-4.36744e-16 0.353608 9.66648)
(2.93541e-15 0.351779 9.20712)
(8.99423e-16 0.371086 8.74121)
(1.52336e-15 0.426449 8.24583)
(6.00644e-15 0.510414 7.68293)
(8.24759e-15 0.593493 7.04282)
(1.06047e-14 0.65533 6.35359)
(9.93529e-15 0.694587 5.64436)
(4.6064e-15 0.709633 4.9447)
(7.16773e-15 0.694906 4.31037)
(7.43427e-15 0.66921 3.75459)
(5.62093e-15 0.643775 3.18473)
(-1.18951e-15 0.620076 2.50789)
(-5.90267e-15 0.56538 1.82466)
(-7.19112e-15 0.432657 1.31781)
(-5.64086e-15 0.358139 0.70883)
(-2.41235e-15 0.439984 -0.118752)
(-1.6153e-14 -0.218304 0.181933)
(-1.4965e-14 -0.524758 0.624709)
(-1.12913e-14 -0.770353 1.11577)
(-9.16323e-15 -1.02226 1.73784)
(-1.39462e-14 -1.30046 2.52237)
(-1.63653e-14 -1.59768 3.49075)
(-1.81161e-14 -1.88066 4.63609)
(-1.60558e-14 -2.10628 5.91272)
(-1.28059e-14 -2.24636 7.24903)
(-1.03927e-14 -2.29803 8.57381)
(-8.46349e-15 -2.27589 9.83436)
(-7.049e-15 -2.20046 10.9997)
(-4.55317e-15 -2.0915 12.0562)
(-4.05965e-15 -1.9659 13.0029)
(-3.5495e-15 -1.83602 13.849)
(-5.86161e-15 -1.70748 14.6096)
(-4.22455e-15 -1.57791 15.3003)
(-4.77231e-15 -1.43919 15.9301)
(-5.15543e-15 -1.28379 16.4982)
(-6.01576e-15 -1.10938 16.9981)
(-6.11511e-15 -0.918431 17.422)
(-8.18214e-15 -0.715894 17.7635)
(-6.16977e-15 -0.508417 18.0164)
(-7.27104e-15 -0.304471 18.1746)
(-7.2513e-15 -0.114679 18.2323)
(-7.47885e-15 0.0480834 18.1854)
(-7.11165e-15 0.168284 18.0336)
(-1.04272e-14 0.225384 17.7834)
(-8.10086e-15 0.193553 17.455)
(-9.22544e-15 0.0535642 17.0899)
(-3.42921e-15 -0.183182 16.7505)
(3.56911e-15 -0.452592 16.4983)
(5.58333e-15 -0.645562 16.3626)
(7.43515e-15 -0.644299 16.3521)
(1.9878e-15 -0.346605 16.4796)
(3.23712e-15 0.312704 16.6764)
(3.10385e-15 1.1113 16.7151)
(3.03772e-15 1.69287 16.4651)
(2.4686e-15 1.96275 16.0148)
(1.81444e-15 1.99171 15.4795)
(1.55963e-15 1.87992 14.9396)
(2.69943e-15 1.70751 14.4407)
(2.54358e-15 1.53123 14.0006)
(3.00524e-15 1.39105 13.6148)
(2.57073e-15 1.31143 13.2609)
(3.33704e-15 1.30475 12.9041)
(3.38993e-15 1.36191 12.5019)
(2.79771e-15 1.44808 12.0258)
(2.95999e-15 1.52617 11.4798)
(3.99332e-15 1.57718 10.8889)
(5.47762e-15 1.59274 10.2784)
(6.68513e-15 1.56714 9.66996)
(7.21854e-15 1.50156 9.08533)
(7.77482e-15 1.40335 8.54222)
(7.73321e-15 1.2806 8.05092)
(7.42919e-15 1.13971 7.61705)
(5.73921e-15 0.984631 7.24449)
(3.13629e-15 0.817612 6.93751)
(1.06532e-16 0.63648 6.70051)
(-1.53834e-15 0.445509 6.54157)
(-2.75981e-15 0.232721 6.45635)
(-3.25614e-15 0.0140355 6.50478)
(-3.69401e-15 -0.199064 6.51358)
(5.46202e-16 -0.495355 6.96141)
(-2.1638e-15 0.584609 20.4961)
(-1.54491e-15 0.532817 19.5889)
(-1.97936e-15 0.507332 18.7872)
(-2.01715e-15 0.497285 18.0775)
(-1.63319e-15 0.490356 17.4007)
(-1.51701e-15 0.487764 16.7512)
(-1.32732e-15 0.490767 16.1352)
(5.25713e-18 0.498486 15.548)
(-8.12868e-16 0.509075 14.9824)
(-7.07486e-16 0.519791 14.4335)
(-7.28745e-16 0.527256 13.8976)
(-6.49438e-16 0.529421 13.3734)
(-4.94978e-16 0.52756 12.8605)
(-2.90575e-16 0.521785 12.3554)
(-2.74893e-16 0.509658 11.8559)
(-1.06237e-15 0.490979 11.3628)
(3.9935e-16 0.468459 10.877)
(7.42792e-16 0.446561 10.3963)
(1.21092e-15 0.429741 9.91681)
(1.69132e-15 0.419851 9.43389)
(2.04881e-15 0.419568 8.94715)
(1.55954e-15 0.442637 8.45677)
(1.44252e-15 0.507546 7.9387)
(4.57403e-15 0.605517 7.3474)
(8.1808e-15 0.700741 6.67025)
(1.09946e-14 0.769468 5.94103)
(8.85263e-15 0.810049 5.20043)
(4.81041e-15 0.818603 4.49593)
(1.00562e-14 0.792074 3.8802)
(8.58644e-15 0.766296 3.31958)
(7.19771e-15 0.756886 2.67751)
(-1.41919e-15 0.743107 1.92982)
(-6.50911e-15 0.67549 1.27057)
(-8.99564e-15 0.532743 0.766918)
(-1.67146e-14 0.469526 -0.0605552)
(-1.86165e-14 0.196906 -0.246039)
(-2.40921e-14 -0.298478 0.109491)
(-1.3946e-14 -0.618702 0.510962)
(-1.07497e-14 -0.891598 0.985715)
(-1.05786e-14 -1.17804 1.58476)
(-1.49104e-14 -1.49769 2.3372)
(-1.55188e-14 -1.83956 3.2651)
(-1.68858e-14 -2.16251 4.36314)
(-1.6057e-14 -2.41519 5.58623)
(-1.39625e-14 -2.56584 6.86251)
(-1.14776e-14 -2.61349 8.12131)
(-9.17815e-15 -2.57718 9.31186)
(-7.47379e-15 -2.48176 10.4054)
(-6.31175e-15 -2.35044 11.3896)
(-4.73805e-15 -2.20294 12.2644)
(-3.41127e-15 -2.05387 13.0398)
(-4.15022e-15 -1.90985 13.7326)
(-2.20669e-15 -1.76775 14.3609)
(-1.66984e-15 -1.61705 14.9352)
(-1.14081e-15 -1.44802 15.4552)
(-1.78855e-15 -1.25747 15.9137)
(1.36591e-16 -1.04789 16.3035)
(-2.14484e-15 -0.824346 16.619)
(-1.68865e-15 -0.593425 16.8553)
(-4.57822e-15 -0.363463 17.0072)
(-4.43079e-15 -0.145096 17.069)
(-5.32682e-15 0.0483407 17.035)
(-6.20733e-15 0.200126 16.9013)
(-6.90956e-15 0.286648 16.6675)
(-5.70756e-15 0.275724 16.345)
(-1.28059e-15 0.140583 15.9678)
(8.91668e-15 -0.111425 15.5966)
(1.97153e-14 -0.412555 15.2977)
(2.53836e-14 -0.646019 15.1038)
(2.66952e-14 -0.687721 15.022)
(2.02023e-14 -0.423121 15.0682)
(1.3373e-14 0.244685 15.1947)
(7.62561e-15 1.11372 15.2135)
(4.79961e-15 1.76937 14.9895)
(1.95187e-15 2.08414 14.6019)
(2.61389e-15 2.12896 14.1508)
(2.74162e-15 2.01353 13.7045)
(4.23816e-16 1.82727 13.302)
(1.17384e-15 1.635 12.959)
(1.50449e-15 1.48409 12.6688)
(2.94064e-15 1.40424 12.4069)
(5.39326e-15 1.41297 12.1334)
(4.08883e-15 1.49925 11.7971)
(4.79459e-15 1.61685 11.3646)
(3.70916e-15 1.71945 10.8449)
(4.51622e-15 1.78646 10.2716)
(5.19487e-15 1.80902 9.67357)
(6.02029e-15 1.78071 9.07472)
(6.72701e-15 1.70442 8.49931)
(6.696e-15 1.59014 7.96629)
(6.92948e-15 1.44786 7.48582)
(6.2121e-15 1.28499 7.0635)
(3.73089e-15 1.10591 6.7037)
(1.12638e-15 0.912474 6.41098)
(-3.00403e-16 0.702058 6.19183)
(-1.61105e-15 0.479601 6.04926)
(-2.13323e-15 0.226971 5.99557)
(-3.35003e-15 -0.0203436 6.06035)
(-1.39761e-15 -0.302672 6.10224)
(1.86421e-15 -0.636468 6.67378)
(-2.33697e-15 0.65565 20.0867)
(-2.03332e-15 0.597304 19.1805)
(-2.42329e-15 0.567668 18.3861)
(-2.36694e-15 0.555222 17.6897)
(-1.22578e-15 0.546467 17.0316)
(-1.43569e-15 0.542682 16.4062)
(-2.47078e-15 0.545145 15.8185)
(-1.22267e-15 0.552915 15.2621)
(-6.55227e-16 0.564119 14.7278)
(-1.25942e-15 0.575927 14.2077)
(1.70846e-16 0.584654 13.6958)
(6.13653e-16 0.587998 13.1894)
(9.57018e-16 0.587456 12.6874)
(1.04562e-15 0.583139 12.1861)
(1.02452e-15 0.572258 11.6832)
(1.11246e-15 0.554554 11.1803)
(1.64247e-15 0.53288 10.6787)
(3.08595e-15 0.511977 10.1773)
(2.08175e-15 0.496597 9.67384)
(4.22848e-16 0.488287 9.165)
(9.37709e-16 0.489267 8.65261)
(9.88041e-16 0.515583 8.14103)
(7.28813e-16 0.590416 7.60669)
(2.5663e-15 0.703996 6.99447)
(4.01965e-15 0.812776 6.28474)
(1.16817e-14 0.887883 5.51798)
(1.35043e-14 0.926388 4.7526)
(9.11581e-15 0.924642 4.05168)
(8.64619e-15 0.888007 3.44409)
(9.59059e-15 0.871027 2.84095)
(1.63862e-15 0.88102 2.10486)
(-4.96974e-15 0.86384 1.33943)
(-1.32966e-14 0.779745 0.746802)
(-2.61717e-14 0.660846 0.144769)
(-2.4313e-14 0.556825 -0.587746)
(-2.82238e-14 0.00408933 -0.220639)
(-2.65877e-14 -0.37288 0.0475812)
(-1.11059e-14 -0.70705 0.429181)
(-1.01187e-14 -1.00703 0.884942)
(-1.10183e-14 -1.32633 1.45415)
(-1.7048e-14 -1.68558 2.1647)
(-1.21323e-14 -2.07065 3.04012)
(-1.56743e-14 -2.43258 4.07852)
(-1.63317e-14 -2.71149 5.23756)
(-1.47046e-14 -2.87188 6.44651)
(-1.18222e-14 -2.91487 7.63597)
(-9.61714e-15 -2.86412 8.75743)
(-8.11218e-15 -2.74868 9.78417)
(-7.20402e-15 -2.59503 10.7046)
(-6.13877e-15 -2.42568 11.5181)
(-5.09869e-15 -2.25769 12.2343)
(-3.67926e-15 -2.09901 12.8714)
(-2.03342e-15 -1.94569 13.4492)
(-1.07589e-15 -1.78454 13.9794)
(-2.63412e-18 -1.60335 14.4612)
(6.82329e-16 -1.39815 14.8862)
(5.62605e-15 -1.17169 15.2471)
(5.70099e-15 -0.929243 15.5395)
(8.83994e-15 -0.677366 15.7599)
(9.80729e-15 -0.42414 15.9043)
(1.1317e-14 -0.179941 15.9678)
(1.05079e-14 0.0419377 15.9449)
(9.23239e-15 0.224461 15.8292)
(7.44065e-15 0.341932 15.6149)
(1.07373e-14 0.355945 15.3044)
(1.48092e-14 0.231409 14.9226)
(2.58592e-14 -0.030171 14.527)
(3.291e-14 -0.358517 14.1893)
(3.66327e-14 -0.628464 13.948)
(3.74892e-14 -0.709221 13.8083)
(3.06524e-14 -0.476581 13.7843)
(2.19386e-14 0.193036 13.8361)
(1.22789e-14 1.11828 13.8112)
(7.86934e-15 1.83272 13.5863)
(5.64591e-15 2.18079 13.2395)
(3.95618e-15 2.23467 12.8561)
(-4.15838e-17 2.11214 12.4919)
(1.36103e-15 1.91033 12.1791)
(4.55374e-16 1.70135 11.9308)
(1.49286e-15 1.54011 11.7378)
(3.44815e-15 1.46196 11.5725)
(5.6252e-15 1.49157 11.3886)
(6.37149e-15 1.61535 11.1216)
(5.77753e-15 1.77158 10.7313)
(7.37878e-15 1.90318 10.2347)
(8.29052e-15 1.98915 9.67527)
(8.06751e-15 2.02032 9.08565)
(8.03434e-15 1.98964 8.49176)
(7.92187e-15 1.90239 7.92123)
(7.59029e-15 1.77164 7.39461)
(6.94315e-15 1.6093 6.92215)
(5.78839e-15 1.42384 6.50971)
(2.34665e-15 1.21994 6.16205)
(-5.76763e-16 0.998964 5.88425)
(-2.7952e-15 0.758858 5.68345)
(-4.02343e-15 0.502045 5.55776)
(-4.7733e-15 0.210376 5.54302)
(-4.65012e-15 -0.0668598 5.59492)
(6.74674e-16 -0.452081 5.74272)
(7.88084e-16 -0.802824 6.40652)
(-8.2536e-16 0.715495 19.6488)
(-9.83199e-16 0.651406 18.7446)
(-1.07427e-15 0.620548 17.9599)
(-1.22595e-15 0.607524 17.28)
(-4.74256e-16 0.597774 16.6444)
(-7.83042e-16 0.593062 16.0465)
(4.2913e-16 0.594988 15.4898)
(-6.28977e-16 0.602787 14.9656)
(-5.95118e-16 0.614733 14.4619)
(-6.43033e-16 0.628002 13.9685)
(-1.7742e-15 0.638567 13.4768)
(-1.49632e-15 0.643787 12.9832)
(2.47937e-17 0.645324 12.4869)
(-2.2645e-16 0.643253 11.9848)
(1.55156e-15 0.634396 11.475)
(1.71531e-15 0.618406 10.9596)
(2.29634e-15 0.598211 10.4406)
(3.19287e-15 0.578786 9.9182)
(1.21377e-15 0.565163 9.39147)
(8.27867e-16 0.558531 8.85877)
(9.55842e-16 0.560376 8.3236)
(1.14939e-15 0.589118 7.79446)
(1.55935e-15 0.67386 7.24922)
(2.31248e-16 0.804644 6.6229)
(2.43462e-15 0.92863 5.88701)
(9.85615e-15 1.00945 5.08997)