/*--------------------------------*- C++ -*----------------------------------*\
| =========                 |                                                 |
| \\      /  F ield         | OpenFOAM: The Open Source CFD Toolbox           |
|  \\    /   O peration     | Version:  4.1                                   |
|   \\  /    A nd           | Web:      www.OpenFOAM.org                      |
|    \\/     M anipulation  |                                                 |
\*---------------------------------------------------------------------------*/
FoamFile
{
    version     2.0;
    format      ascii;
    class       volScalarField;
    location    "2000";
    object      p;
}
// * * * * * * * * * * * * * * * * * * * * * * * * * * * * * * * * * * * * * //

dimensions      [0 2 -2 0 0 0 0];

internalField   nonuniform List<scalar> 
26785
(
-96.3299
-80.4136
-65.2717
-52.2752
-38.8428
-25.3599
-12.9339
-2.1192
6.73308
13.6395
18.9843
23.2837
26.9573
30.1914
33.0218
35.4682
37.5923
39.4907
41.2402
42.8516
44.2998
45.5759
46.6847
47.6152
48.3579
48.9162
49.3919
49.7953
50.3843
50.4495
49.0071
46.9626
45.337
44.0976
43.3496
43.0614
43.23
43.8149
44.5899
45.3143
45.8995
46.3035
46.434
46.3048
45.8811
45.0839
43.8277
42.0403
39.6753
36.7171
33.1756
29.0695
24.4032
19.1478
13.2357
6.56456
-0.986073
-9.52456
-19.1129
-29.725
-41.2076
-53.3055
-65.6778
-77.8477
-89.3185
-99.3731
-106.51
-109.228
-106.609
-98.5853
-86.791
-73.5113
-60.4622
-48.5554
-38.1277
-29.199
-21.6459
-15.2968
-9.97696
-5.52742
-1.8108
1.28839
3.86564
5.99897
7.75137
9.17296
10.3028
11.1704
11.7968
12.195
12.371
12.3236
12.0428
11.5149
10.6768
9.53179
7.95114
6.21033
3.5904
2.0082
-96.3645
-80.4208
-65.2862
-52.2945
-38.8616
-25.3779
-12.9484
-2.12885
6.72518
13.6299
18.9707
23.2664
26.9384
30.1728
33.0044
35.4519
37.5768
39.4764
41.2282
42.8425
44.2934
45.572
46.683
47.6146
48.3567
48.9113
49.3792
49.7669
50.3374
50.3948
48.9439
46.9177
45.3076
44.0748
43.3385
43.0597
43.2241
43.7925
44.5532
45.2697
45.8423
46.2233
46.3407
46.2022
45.7682
44.9609
43.6956
41.9005
39.5298
36.5683
33.0258
28.9214
24.259
19.009
13.1029
6.43719
-1.11003
-9.64802
-19.2395
-29.8589
-41.3512
-53.46
-65.8487
-78.043
-89.5566
-99.7071
-106.974
-109.811
-107.294
-99.2534
-87.3412
-73.9241
-60.7628
-48.7765
-38.2953
-29.3306
-21.7524
-15.3847
-10.0502
-5.58835
-1.86074
1.24862
3.83547
5.97792
7.73896
9.16866
10.3061
11.1806
11.8132
12.2172
12.3987
12.3565
12.0819
11.5615
10.7288
9.58627
8.0039
6.26268
3.626
2.04861
-96.4548
-80.4414
-65.3231
-52.3402
-38.9039
-25.4167
-12.9792
-2.14955
6.70823
13.6098
18.9428
23.2311
26.9003
30.1354
32.9694
35.4194
37.5459
39.448
41.2044
42.8246
44.2809
45.5643
46.6791
47.6127
48.3529
48.8995
49.3506
49.706
50.243
50.2748
48.8219
46.8381
45.2531
44.0313
43.3145
43.051
43.2093
43.7512
44.4862
45.1823
45.7254
46.0684
46.1629
46.0053
45.5522
44.7269
43.4461
41.639
39.2603
36.2949
32.7528
28.6525
23.9974
18.7565
12.8603
6.20381
-1.33611
-9.86943
-19.4598
-30.083
-41.5816
-53.6978
-66.1025
-78.3184
-89.8693
-100.158
-107.694
-110.797
-108.525
-100.491
-88.3798
-74.7159
-61.3493
-49.2158
-38.6341
-29.6005
-21.9731
-15.5684
-10.2041
-5.71693
-1.9667
1.16354
3.77004
5.93111
7.70976
9.15602
10.3088
11.1974
11.843
12.2588
12.4513
12.4196
12.1567
11.6497
10.827
9.68914
8.10302
6.36109
3.68564
2.1328
-96.5941
-80.4533
-65.3626
-52.3975
-38.9593
-25.4691
-13.0211
-2.1775
6.68522
13.5818
18.9031
23.1806
26.8456
30.082
32.9199
35.3735
37.5025
39.4082
41.1714
42.7999
44.264
45.5537
46.6732
47.6086
48.3447
48.8783
49.3031
49.6136
50.1012
50.1042
48.6502
46.7293
45.1739
43.9674
43.2749
43.028
43.177
43.6839
44.3803
45.0464
45.5546
45.8552
45.9172
45.7308
45.2501
44.3995
43.0973
41.2742
38.8851
35.9151
32.3736
28.2787
23.6326
18.4028
12.5186
5.8741
-1.6548
-10.1782
-19.761
-30.3809
-41.8788
-53.9952
-66.4142
-78.6522
-90.2362
-100.661
-108.486
-111.89
-109.973
-102.042
-89.7442
-75.7972
-62.1763
-49.8502
-39.1307
-29.9983
-22.2981
-15.8373
-10.4276
-5.90171
-2.11725
1.04418
3.67961
5.86774
7.67167
9.1414
10.3158
11.2242
11.8876
12.3197
12.5275
12.5106
12.2634
11.7747
10.9661
9.83503
8.24379
6.501
3.76534
2.26393
-96.7938
-80.4885
-65.4262
-52.4776
-39.0337
-25.5382
-13.076
-2.21411
6.65511
13.5454
18.8518
23.1156
26.7758
30.0146
32.8582
35.3171
37.4496
39.3599
41.1317
42.7708
44.2441
45.5405
46.6645
47.6005
48.3298
48.8454
49.2352
49.4924
49.9089
49.889
48.432
46.5943
45.0708
43.8844
43.2196
42.9891
43.1256
43.591
44.236
44.8604
45.3324
45.5911
45.6122
45.3884
44.8726
43.9908
42.663
40.8211
38.4206
35.4458
31.9057
27.8175
23.1815
17.9637
12.0925
5.46176
-2.0529
-10.5608
-20.1277
-30.7348
-42.2208
-54.3249
-66.7503
-79.0014
-90.6056
-101.161
-109.302
-113.045
-111.536
-103.765
-91.3022
-77.0658
-63.1733
-50.6338
-39.7554
-30.5048
-22.7143
-16.182
-10.7133
-6.13691
-2.30774
0.894206
3.56691
5.78953
7.62542
9.12461
10.326
11.2588
11.9445
12.3969
12.6237
12.6253
12.3974
11.9307
11.1399
10.0173
8.42045
6.67612
3.8635
2.43114
-96.9756
-80.5328
-65.5088
-52.5781
-39.127
-25.6244
-13.1441
-2.25923
6.61848
13.5016
18.7903
23.038
26.6932
29.9356
32.787
35.2529
37.3896
39.3053
41.0871
42.7384
44.2215
45.5242
46.6514
47.5861
48.3059
48.7988
49.149
49.3379
49.6851
49.6182
48.1748
46.4323
44.9426
43.7811
43.1458
42.9301
43.051
43.4707
44.0547
44.6262
45.0598
45.2792
45.2552
44.9862
44.4284
43.5098
42.1525
40.2896
37.8767
34.8973
31.3594
27.2786
22.6535
17.4481
11.5906
4.97539
-2.52133
-11.007
-20.5483
-31.1314
-42.5927
-54.6699
-67.0945
-79.3523
-90.9678
-101.64
-110.084
-114.186
-113.088
-105.52
-92.9243
-78.4204
-64.2675
-51.516
-40.4729
-31.0942
-23.2021
-16.5868
-11.0484
-6.41157
-2.52887
0.721402
3.43823
5.70137
7.57449
9.10776
10.3401
11.3011
12.0122
12.4879
12.7368
12.7596
12.5538
12.1122
11.3416
10.2289
8.62742
6.88053
3.98343
2.61324
-97.1246
-80.5831
-65.6046
-52.6904
-39.2311
-25.7218
-13.2215
-2.31067
6.57667
13.4517
18.7201
22.9497
26.5999
29.8477
32.7093
35.1838
37.325
39.2463
41.039
42.7033
44.1957
45.5029
46.6312
47.5626
48.2706
48.7386
49.0452
49.1512
49.4451
49.2901
47.8906
46.2415
44.788
43.656
43.0512
42.848
42.9497
43.3208
43.8385
44.3472
44.7344
44.918
44.8514
44.531
43.9247
42.9641
41.5738
39.6879
37.2619
34.2785
30.7439
26.6719
22.0585
16.8661
11.0234
4.42586
-3.04835
-11.5038
-21.0083
-31.5542
-42.976
-55.009
-67.4241
-79.6797
-91.2984
-102.084
-110.813
-115.277
-114.575
-107.222
-94.5194
-79.7799
-65.3942
-52.4474
-41.246
-31.7384
-23.7399
-17.0349
-11.4194
-6.71522
-2.77254
0.53176
3.29771
5.60572
7.51983
9.09048
10.3568
11.3485
12.0876
12.589
12.8624
12.9089
12.7276
12.3134
11.5645
10.4629
8.85916
7.10803
4.128
2.78146
-97.2979
-80.6649
-65.7339
-52.83
-39.3556
-25.8342
-13.3086
-2.36728
6.53135
13.3976
18.6431
22.8527
26.4982
29.7533
32.6275
35.112
37.2577
39.1839
40.9878
42.665
44.1651
45.4742
46.6011
47.5278
48.2218
48.6677
48.9136
48.958
49.1707
48.9248
47.586
46.0212
44.606
43.5078
42.9338
42.7403
42.8192
43.139
43.5877
44.0273
44.3585
44.504
44.3998
44.0283
43.3682
42.3608
40.934
39.0232
36.5838
33.5971
30.0673
26.0053
21.4048
16.2262
10.3994
3.82226
-3.62442
-12.0412
-21.497
-31.9919
-43.3585
-55.3276
-67.7249
-79.9689
-91.5829
-102.484
-111.474
-116.273
-115.949
-108.804
-96.0134
-81.0768
-66.4972
-53.383
-42.0392
-32.4098
-24.3061
-17.5096
-11.8137
-7.03824
-3.03178
0.330064
3.14825
5.50387
7.46141
9.07164
10.3739
11.3983
12.1672
12.6963
12.9961
13.0682
12.9135
12.5286
11.8021
10.7125
9.10981
7.35142
4.29361
2.91295
-97.4909
-80.7498
-65.8762
-52.9873
-39.4981
-25.9621
-13.4053
-2.42799
6.48444
13.3417
18.5618
22.7495
26.3905
29.6548
32.544
35.0394
37.1885
39.1185
40.9329
42.6219
44.1272
45.435
46.5585
47.479
48.1609
48.5801
48.7568
48.7565
48.8562
48.5409
47.2631
45.7717
44.3965
43.3353
42.7922
42.6057
42.6584
42.9241
43.3021
43.6693
43.9362
44.0333
43.8946
43.4799
42.765
41.7068
40.2403
38.3028
35.8497
32.8605
29.3369
25.2867
20.7001
15.5366
9.72795
3.17449
-4.23933
-12.6092
-22.0045
-32.4341
-43.7291
-55.6119
-67.9823
-80.203
-91.8042
-102.832
-112.07
-117.169
-117.195
-110.225
-97.3522
-82.2583
-67.5302
-54.2841
-42.8211
-33.0832
-24.881
-17.9957
-12.2199
-7.37242
-3.30099
0.119724
2.99148
5.396
7.39824
9.04929
10.3888
11.4472
12.2475
12.8058
13.1337
13.2328
13.1063
12.752
12.0477
10.9716
9.37321
7.60053
4.46736
3.00017
-97.7213
-80.8638
-66.0441
-53.1661
-39.6597
-26.1057
-13.5117
-2.49183
6.43789
13.2864
18.4788
22.6423
26.2789
29.5541
32.4601
34.9668
37.1177
39.0496
40.8731
42.5719
44.0792
45.3828
46.5011
47.4153
48.0886
48.4579
48.5895
48.5209
48.518
48.1458
46.9217
45.4947
44.1607
43.1392
42.6264
42.4444
42.4679
42.6768
42.9819
43.2747
43.4726
43.512
43.333
42.8828
42.1197
41.0088
39.4999
37.534
35.0666
32.0756
28.5597
24.5228
19.9521
14.8059
9.01827
2.49238
-4.88336
-13.1984
-22.5222
-32.8725
-44.08
-55.8522
-68.186
-80.3693
-91.9456
-103.116
-112.598
-117.966
-118.312
-111.461
-98.4966
-83.2844
-68.4567
-55.1188
-43.5649
-33.7369
-25.4477
-18.4803
-12.6285
-7.7113
-3.57611
-0.0971148
2.82801
5.28152
7.32877
9.02121
10.3988
11.4922
12.325
12.9136
13.2709
13.3983
13.3011
12.9781
12.2953
11.2346
9.64132
7.84034
4.63193
3.05108
-97.9215
-80.9995
-66.2398
-53.3694
-39.8429
-26.2666
-13.6279
-2.55775
6.39371
13.2343
18.3964
22.5332
26.165
29.4523
32.3769
34.8947
37.045
38.9759
40.8065
42.5127
44.0187
45.3157
46.4275
47.3396
47.9908
48.3106
48.3967
48.2503
48.167
47.7413
46.5624
45.1935
43.9018
42.922
42.4383
42.2583
42.2502
42.3998
42.63
42.8455
42.9709
42.9462
42.717
42.231
41.431
40.2728
38.7195
36.7236
34.2414
31.2492
27.7424
23.7208
19.1681
14.0425
8.27959
1.78524
-5.54735
-13.8002
-23.0423
-33.3008
-44.4061
-56.0413
-68.3269
-80.4566
-91.9915
-103.324
-113.052
-118.667
-119.299
-112.493
-99.4185
-84.1256
-69.2486
-55.8618
-44.2488
-34.353
-25.9921
-18.953
-13.0321
-8.04988
-3.85416
-0.319093
2.65794
5.15956
7.25143
8.98529
10.4013
11.5305
12.3965
13.0165
13.4042
13.5606
13.4937
13.2016
12.5392
11.4963
9.9015
8.05347
4.77385
3.08005
-98.0731
-81.1381
-66.446
-53.5844
-40.0405
-26.4412
-13.752
-2.62406
6.35399
13.1877
18.3164
22.4234
26.0499
29.3501
32.2943
34.8225
36.9695
38.8963
40.7313
42.442
43.9441
45.2327
46.3389
47.2488
47.8576
48.1461
48.1631
47.9587
47.8064
47.3283
46.1879
44.873
43.6251
42.6881
42.2315
42.0509
42.009
42.0975
42.2508
42.3861
42.4351
42.3414
42.0536
41.5226
40.6905
39.4984
37.9056
35.8785
33.381
30.3879
26.8915
22.8871
18.3556
13.2544
7.52011
1.06136
-6.22268
-14.4063
-23.5582
-33.7138
-44.7026
-56.1729
-68.3971
-80.4582
-91.9327
-103.443
-113.424
-119.268
-120.156
-113.307
-100.097
-84.761
-69.8855
-56.4939
-44.8558
-34.9175
-26.503
-19.4053
-13.4247
-8.38417
-4.1328
-0.54517
2.4813
5.02937
7.16489
8.93981
10.3944
11.5597
12.4596
13.1115
13.53
13.7161
13.6813
13.4177
12.7757
11.7498
10.1355
8.22649
4.8877
3.0981
-98.245
-81.3058
-66.6775
-53.8166
-40.252
-26.6266
-13.8811
-2.68832
6.3209
13.1483
18.2401
22.3139
25.9337
29.2473
32.212
34.7498
36.89
38.8091
40.6457
42.3585
43.855
45.1344
46.2387
47.124
47.7026
47.9476
47.8976
47.6534
47.4374
46.9091
45.8026
44.5393
43.3371
42.4432
42.0106
41.8263
41.7486
41.7748
41.8498
41.9022
41.8708
41.7034
41.351
40.7659
39.8951
38.6775
37.0588
35.005
32.4917
29.4982
26.0133
22.0284
17.5214
12.4486
6.74698
0.328377
-6.90107
-15.0091
-24.0645
-34.1058
-44.963
-56.2413
-68.3915
-80.3727
-91.7639
-103.454
-113.704
-119.759
-120.872
-113.885
-100.516
-85.1768
-70.3533
-57.0011
-45.3733
-35.4194
-26.9716
-19.8303
-13.8013
-8.71079
-4.40992
-0.774268
2.29835
4.8906
7.06835
8.88359
10.3765
11.5781
12.5121
13.1962
13.6453
13.8614
13.8618
13.623
13.0028
11.9822
10.3249
8.35404
4.97492
3.10874
-98.4292
-81.4755
-66.9221
-54.0638
-40.4772
-26.8216
-14.0129
-2.7481
6.29645
13.1178
18.1684
22.2048
25.8164
29.1435
32.1295
34.6756
36.8055
38.713
40.5485
42.262
43.7517
45.0247
46.1195
46.9705
47.5253
47.7099
47.6137
47.3375
47.0613
46.4874
45.4123
44.1992
43.0439
42.1925
41.7798
41.5886
41.473
41.436
41.4321
41.3999
41.2846
41.0386
40.6162
39.9708
39.0521
37.8046
36.1707
34.104
31.58
28.5863
25.114
21.1511
16.6717
11.6312
5.96671
-0.406275
-7.57506
-15.6026
-24.5548
-34.4681
-45.1798
-56.2477
-68.3075
-80.1872
-91.4436
-103.306
-113.859
-120.119
-121.429
-114.209
-100.664
-85.3651
-70.6435
-57.3741
-45.7919
-35.8503
-27.3908
-20.2225
-14.1575
-9.02655
-4.68336
-1.00504
2.10979
4.74341
6.96152
8.81602
10.3469
11.5846
12.5525
13.2686
13.7473
13.9936
14.032
13.8161
13.2168
12.174
10.4589
8.43764
5.04005
3.1097
-98.6399
-81.661
-67.1818
-54.3242
-40.7146
-27.0245
-14.1453
-2.80134
6.28221
13.0969
18.1013
22.0957
25.6973
29.038
32.0461
34.599
36.7145
38.6066
40.4394
42.1529
43.6368
44.9043
45.9708
46.8041
47.3135
47.4463
47.318
47.0127
46.6808
46.068
45.0232
43.8583
42.7504
41.9397
41.5419
41.3403
41.1852
41.0844
41.0015
40.8838
40.6826
40.3544
39.8565
39.1453
38.1725
36.8864
35.2342
33.1661
30.6459
27.6582
24.2
20.2609
15.8122
10.8078
5.18573
-1.13566
-8.23877
-16.1809
-25.0203
-34.7917
-45.352
-56.1991
-68.1334
-79.8583
-90.8874
-102.902
-113.831
-120.31
-121.798
-114.254
-100.534
-85.3228
-70.7519
-57.6072
-46.1053
-36.204
-27.755
-20.5769
-14.4895
-9.32836
-4.95073
-1.23576
1.91675
4.58848
6.84468
8.73698
10.3049
11.5782
12.5797
13.327
13.8335
14.1097
14.1856
13.9977
13.4044
12.3072
10.5373
8.48163
5.08753
3.09672
-98.8269
-81.8638
-67.462
-54.6002
-40.965
-27.2352
-14.2771
-2.84663
6.27919
13.086
18.0385
21.9863
25.576
28.9303
31.9611
34.5188
36.6156
38.4894
40.3191
42.033
43.5146
44.761
45.8064
46.6165
47.0704
47.168
47.0138
46.6809
46.2994
45.6559
44.6406
43.5206
42.4589
41.6864
41.2981
41.0827
40.8865
40.7219
40.5603
40.3571
40.0691
39.6565
39.0797
38.2974
37.2651
35.9344
34.2559
32.1835
29.6778
26.7122
23.2766
19.3637
14.9479
9.98386
4.41028
-1.85419
-8.8875
-16.7365
-25.4508
-35.074
-45.4848
-56.0948
-67.8429
-79.3702
-90.1375
-102.209
-113.558
-120.28
-121.938
-113.993
-100.12
-85.0508
-70.6777
-57.6977
-46.3095
-36.476
-28.0597
-20.8895
-14.7934
-9.61306
-5.20945
-1.46436
1.72085
4.42695
6.71853
8.64675
10.2505
11.5586
12.5928
13.37
13.9023
14.2075
14.3173
14.1645
13.5417
12.3743
10.5663
8.49024
5.12009
3.06632
-98.9639
-82.0602
-67.746
-54.883
-41.2249
-27.4524
-14.4077
-2.88325
6.28778
13.0849
17.9795
21.8759
25.4518
28.8198
31.8737
34.4339
36.5078
38.3619
40.1889
41.9067
43.3808
44.5994
45.634
46.4001
46.8095
46.8811
46.7036
46.3453
45.9215
45.2556
44.268
43.1879
42.1693
41.4321
41.0484
40.8161
40.5773
40.3489
40.1092
39.821
39.4463
38.9487
38.2912
37.4348
36.3385
34.958
33.2475
31.1634
28.6683
25.7336
22.337
18.4619
14.0842
9.16517
3.64573
-2.55793
-9.51604
-17.2599
-25.8398
-35.3199
-45.577
-55.9122
-67.4263
-78.8266
-89.4044
-101.257
-112.964
-119.969
-121.792
-113.395
-99.4219
-84.5535
-70.4232
-57.6452
-46.4023
-36.6631
-28.3012
-21.1565
-15.0659
-9.87746
-5.45671
-1.68845
1.52401
4.26029
6.58407
8.54587
10.1839
11.5253
12.5912
13.3963
13.953
14.2841
14.4301
14.2987
13.6072
12.3794
10.553
8.46646
5.13857
3.01676
-99.113
-82.2696
-68.0392
-55.1704
-41.4905
-27.6734
-14.536
-2.91085
6.3079
13.0932
17.9235
21.7638
25.3244
28.706
31.7831
34.3428
36.3913
38.2255
40.052
41.7748
43.2282
44.4353
45.444
46.1639
46.5394
46.589
46.3902
46.0094
45.5509
44.8698
43.9071
42.8602
41.8794
41.1752
40.792
40.5401
40.2575
39.9652
39.6482
39.2757
38.8148
38.2326
37.4941
36.5626
35.3998
33.9655
32.2184
30.1176
27.6268
24.7178
21.3658
17.5437
13.22
8.35657
2.89624
-3.24366
-10.1176
-17.7426
-26.1875
-35.5342
-45.6095
-55.6202
-66.9325
-78.3492
-88.6675
-99.9641
-112.008
-119.371
-121.307
-112.432
-98.444
-83.838
-69.9928
-57.4513
-46.3831
-36.7632
-28.4766
-21.3748
-15.3037
-10.1184
-5.68962
-1.90549
1.32837
4.09015
6.4424
8.43489
10.1051
11.4783
12.5741
13.4051
13.9859
14.3363
14.5296
14.3705
13.5956
12.3311
10.5023
8.41203
5.14256
2.94772
-99.2683
-82.4759
-68.338
-55.4624
-41.7603
-27.896
-14.6603
-2.9291
6.33916
13.1101
17.8694
21.6496
25.1933
28.5885
31.6883
34.2453
36.2671
38.0828
39.912
41.6275
43.0675
44.2648
45.2361
45.9179
46.2646
46.2944
46.0769
45.6771
45.1909
44.4996
43.5577
42.5363
41.5871
40.9142
40.5288
40.2548
39.9272
39.5711
39.1771
38.7209
38.1747
37.5086
36.6898
35.6835
34.4538
32.9639
31.1766
29.0547
26.5643
23.6767
20.3646
16.5973
12.3407
7.5507
2.16149
-3.90724
-10.6845
-18.1816
-26.5002
-35.7151
-45.5552
-55.2251
-66.4595
-77.8994
-87.6765
-98.3715
-110.977
-118.934
-120.507
-111.093
-97.1972
-82.9144
-69.3932
-57.1194
-46.2527
-36.7753
-28.584
-21.5415
-15.5036
-10.3328
-5.90521
-2.11282
1.13614
3.91826
6.29472
8.31443
10.0142
11.4172
12.541
13.396
13.9993
14.3693
14.6056
14.3586
13.5169
12.2366
10.4168
8.32797
5.13103
2.85987
-99.4384
-82.6837
-68.6411
-55.7577
-42.0332
-28.1186
-14.7795
-2.93772
6.38105
13.1345
17.8164
21.5325
25.0583
28.4666
31.5884
34.1415
36.1368
37.9378
39.7653
41.4699
42.9053
44.0809
45.0188
45.6678
45.9883
46.0004
45.7671
45.3517
44.8431
44.1444
43.2185
42.2151
41.291
40.6494
40.2587
39.9608
39.5872
39.1669
38.6964
38.157
37.5259
36.7766
35.8786
34.7986
33.5029
31.9575
30.1286
27.9828
25.4891
22.6196
19.3444
15.63
11.4421
6.73347
1.4282
-4.55059
-11.2118
-18.5775
-26.7805
-35.8488
-45.3983
-54.787
-66.0644
-77.3352
-86.461
-96.8692
-110.281
-119.18
-119.346
-109.35
-95.6967
-81.7955
-68.6328
-56.6542
-46.013
-36.6995
-28.6218
-21.6546
-15.6632
-10.518
-6.10091
-2.30814
0.949231
3.74598
6.14182
8.1847
9.9113
11.3418
12.491
13.3689
13.9863
14.4021
14.622
14.262
13.3836
12.1004
10.2979
8.21502
5.10275
2.75457
-99.5892
-82.8989
-68.9535
-56.0581
-42.31
-28.3408
-14.8926
-2.93648
6.43296
13.1655
17.7635
21.4121
24.9185
28.3394
31.4835
34.0322
36.0044
37.791
39.6113
41.3139
42.7362
43.8885
44.7979
45.4165
45.713
45.7098
45.4636
45.0352
44.5079
43.803
42.8881
41.8957
40.9906
40.3807
39.9831
39.6593
39.2387
38.7543
38.2073
37.585
36.8694
36.0374
35.0609
33.9084
32.548
30.9484
29.0783
26.9078
24.4088
21.5541
18.313
14.6513
10.5343
5.90863
0.691923
-5.17982
-11.7042
-18.9333
-27.0182
-35.905
-45.1293
-54.3481
-65.674
-76.5194
-85.1549
-95.5778
-109.613
-118.865
-117.427
-107.21
-93.9717
-80.4951
-67.7206
-56.0612
-45.6667
-36.5363
-28.5893
-21.7119
-15.7797
-10.671
-6.27385
-2.48881
0.769885
3.57507
5.98488
8.04624
9.79634
11.2512
12.424
13.3254
13.9386
14.4347
14.5481
14.0978
13.2055
11.9251
10.1462
8.07404
5.05645
2.63395
-99.691
-83.1009
-69.2644
-56.3601
-42.5906
-28.563
-14.9997
-2.92548
6.49429
13.2022
17.7098
21.2877
24.7734
28.2069
31.3737
33.9203
35.8728
37.6404
39.4612
41.1567
42.5604
43.6931
44.5764
45.1665
45.4411
45.4251
45.1687
44.7288
44.1847
43.4738
42.5655
41.5779
40.6857
40.1074
39.7037
39.352
38.8839
38.3353
37.7121
37.0071
36.2069
35.2924
34.2378
33.0136
31.59
29.9375
28.0276
25.8331
23.3285
20.4872
17.2783
13.6689
9.62384
5.08272
-0.0388287
-5.78786
-12.162
-19.2519
-27.1995
-35.8546
-44.7448
-53.8893
-65.1421
-75.3814
-83.7119
-94.1916
-108.128
-116.892
-114.579
-104.679
-92.0071
-79.0258
-66.6701
-55.3479
-45.2173
-36.2872
-28.4865
-21.7129
-15.8521
-10.7906
-6.42285
-2.65393
0.598648
3.40565
5.82354
7.89826
9.6682
11.144
12.3421
13.2669
13.8621
14.4071
14.3859
13.8837
12.9871
11.7124
9.9623
7.90605
4.99093
2.5008
-99.7956
-83.3019
-69.5733
-56.6601
-42.8731
-28.7854
-15.1015
-2.90525
6.56435
13.2436
17.6545
21.1586
24.6224
28.0692
31.2603
33.8087
35.7365
37.4949
39.3179
40.9968
42.3829
43.4977
44.356
44.9196
45.1748
45.1484
44.8834
44.4327
43.8726
43.1554
42.25
41.2619
40.3776
39.831
39.4229
39.0416
38.5253
37.9127
37.2138
36.4262
35.5415
34.5442
33.4116
32.1161
30.6298
28.9257
26.9774
24.7603
22.251
19.4232
16.2463
12.6898
8.71694
4.26116
-0.757503
-6.36967
-12.5861
-19.5317
-27.3113
-35.6889
-44.2662
-53.3828
-64.3831
-73.9561
-82.094
-92.5752
-105.845
-113.477
-110.923
-101.678
-89.7501
-77.3625
-65.4713
-54.5154
-44.6699
-35.9554
-28.3141
-21.6566
-15.8787
-10.8748
-6.54571
-2.80129
0.437566
3.23937
5.65891
7.74135
9.52641
11.0182
12.2406
13.189
13.8123
14.2601
14.1418
13.6237
12.729
11.4634
9.74711
7.71231
4.90529
2.3584
-99.8998
-83.494
-69.8796
-56.9574
-43.156
-29.0074
-15.1984
-2.87667
6.64231
13.2889
17.597
21.0243
24.466
27.9275
31.1466
33.6914
35.5961
37.361
39.1777
40.8372
42.2065
43.3038
44.1383
44.6776
44.9159
44.8809
44.6083
44.1463
43.5704
42.8466
41.9419
40.949
40.0688
39.5547
39.1435
38.7307
38.166
37.4897
36.7155
35.8458
34.8767
33.7965
32.5854
31.2184
29.6697
27.9144
25.9288
23.6907
21.1779
18.3644
15.2209
11.7188
7.81859
3.44988
-1.45754
-6.92226
-12.9775
-19.7687
-27.3444
-35.4165
-43.7188
-52.7968
-63.4
-72.3289
-80.2988
-90.7346
-103.086
-109.52
-106.815
-98.3083
-87.193
-75.4739
-64.1099
-53.5622
-44.0263
-35.544
-28.0772
-21.549
-15.8653
-10.9292
-6.6482
-2.93682
0.280611
3.07031
5.48546
7.57058
9.3664
10.8732
12.1241
13.0822
13.7711
14.0325
13.8505
13.3216
12.4317
11.1794
9.50166
7.49425
4.799
2.21028
-100.008
-83.6777
-70.182
-57.251
-43.4382
-29.228
-15.2909
-2.84079
6.72718
13.3372
17.5363
20.8849
24.3051
27.7846
31.0307
33.5613
35.4608
37.2341
39.0402
40.6798
42.0324
43.1123
43.9245
44.442
44.6657
44.6232
44.3432
43.8691
43.277
42.5466
41.6418
40.6416
39.763
39.2818
38.8687
38.4223
37.809
37.0696
36.2209
35.2695
34.2162
33.0531
31.7631
30.324
28.7125
26.906
24.8835
22.6252
20.1101
17.3123
14.2044
10.7586
6.93193
2.6535
-2.1343
-7.44488
-13.3371
-19.9584
-27.2952
-35.0504
-43.1114
-52.0919
-62.1897
-70.5871
-78.4547
-88.6113
-99.8322
-105.251
-102.524
-94.728
-84.4186
-73.3948
-62.5918
-52.483
-43.2839
-35.0575
-27.7842
-21.4009
-15.8248
-10.9685
-6.74631
-3.07779
0.109406
2.87872
5.2815
7.36315
9.16221
10.6772
11.9633
12.9026
13.6405
13.7742
13.5281
12.9805
12.0964
10.8619
9.22724
7.25352
4.67217
2.05987
-100.094
-83.8604
-70.4846
-57.5418
-43.7192
-29.4465
-15.379
-2.7987
6.81786
13.3871
17.4715
20.7412
24.1423
27.6417
30.9028
33.4226
35.3302
37.1108
38.9058
40.5254
41.8612
42.9241
43.7157
44.2137
44.4246
44.3751
44.0874
43.6004
42.9918
42.2553
41.3511
40.3432
39.4649
39.0159
38.6016
38.1194
37.4572
36.6551
35.7327
34.7007
33.5637
32.3175
30.9482
29.4363
27.7612
25.903
23.8435
21.5654
19.0485
16.2679
13.1977
9.81025
6.05884
1.87524
-2.78537
-7.93828
-13.6651
-20.0979
-27.1684
-34.6087
-42.4465
-51.251
-60.7832
-68.74
-76.5089
-86.2039
-96.2746
-100.824
-98.1706
-91.0362
-81.4995
-71.1684
-60.9395
-51.2896
-42.449
-34.4993
-27.4379
-21.2159
-15.7624
-10.9991
-6.84743
-3.23234
-0.0851404
2.65405
5.0353
7.10467
8.88834
10.396
11.7421
12.6865
13.354
13.43
13.1575
12.5985
11.7242
10.5124
8.92543
6.99196
4.52556
1.91022
-100.129
-84.0265
-70.7816
-57.8295
-43.9997
-29.6628
-15.4627
-2.75145
6.91293
13.4369
17.4019
20.5949
23.9812
27.4957
30.761
33.2789
35.1998
36.9902
38.7741
40.3741
41.6934
42.7398
43.5126
43.9936
44.1928
44.1365
43.8406
43.3398
42.7145
41.9727
41.0716
40.0587
39.1799
38.7602
38.3448
37.8243
37.1126
36.2484
35.2532
34.1414
32.9215
31.5925
30.1436
28.5582
26.8185
24.9078
22.8109
20.5128
17.9944
15.2321
12.2017
8.87426
5.20034
1.11691
-3.41025
-8.40386
-13.9612
-20.1866
-26.9729
-34.107
-41.7213
-50.2686
-59.2151
-66.7757
-74.3866
-83.5643
-92.5161
-96.336
-93.8039
-87.2788
-78.4753
-68.8232
-59.1712
-49.9917
-41.5257
-33.8702
-27.0378
-20.9932
-15.6766
-11.0189
-6.94897
-3.39742
-0.299643
2.40026
4.75081
6.79364
8.54088
10.0438
11.4619
12.4477
12.963
13.0119
12.7344
12.1748
11.3164
10.1329
8.59814
6.71165
4.36062
1.7639
-100.156
-84.1827
-71.07
-58.1114
-44.2793
-29.8771
-15.5424
-2.69998
7.01033
13.4842
17.327
20.4502
23.8228
27.3455
30.6103
33.1294
35.069
36.8717
38.6449
40.2259
41.5292
42.56
43.316
43.7818
43.9702
43.9066
43.6021
43.087
42.4451
41.6995
40.8055
39.793
38.9143
38.5167
38.0998
37.5383
36.7765
35.8503
34.7832
33.5926
32.2907
30.8794
29.3509
27.6914
25.8864
23.9224
21.7874
19.4687
16.9489
14.2058
11.2167
7.95075
4.35699
0.379184
-4.00979
-8.8432
-14.225
-20.2265
-26.7201
-33.5587
-40.9347
-49.1532
-57.5258
-64.7439
-72.1402
-80.7135
-88.6328
-91.8441
-89.4516
-83.4834
-75.371
-66.379
-57.3012
-48.5994
-40.5207
-33.1745
-26.5866
-20.734
-15.5675
-11.027
-7.04924
-3.57054
-0.531118
2.12029
4.42929
6.42888
8.12796
9.63557
11.0629
12.126
12.5354
12.5425
12.2616
11.71
10.8749
9.72544
8.24766
6.41495
4.17942
1.62285
-100.174
-84.3257
-71.3494
-58.3862
-44.5573
-30.0893
-15.6185
-2.64533
7.10756
13.5254
17.2479
20.3107
23.6695
27.1949
30.4536
32.9759
34.9385
36.7548
38.5179
40.0808
41.3688
42.3851
43.1261
43.5783
43.7562
43.685
43.3716
42.8421
42.1842
41.4368
40.5547
39.5499
38.674
38.286
37.8668
37.2619
36.449
35.4607
34.3221
33.0536
31.6706
30.1778
28.5698
26.8359
24.965
22.947
20.7734
18.4339
15.9126
13.1897
10.2429
7.03976
3.52912
-0.338011
-4.58549
-9.25764
-14.4567
-20.2212
-26.4211
-32.9731
-40.0886
-47.9248
-55.7452
-62.6363
-69.7551
-77.6911
-84.6707
-87.3744
-85.1297
-79.6719
-72.2094
-63.8558
-55.3461
-47.1261
-39.4446
-32.4202
-26.09
-20.442
-15.437
-11.024
-7.14733
-3.74964
-0.777214
1.81669
4.07388
6.01533
7.66055
9.17173
10.5622
11.6552
12.0333
12.0198
11.7405
11.2058
10.4016
9.29258
7.87667
6.10443
3.98456
1.48844
-100.184
-84.4545
-71.6185
-58.6527
-44.8325
-30.2994
-15.6917
-2.58959
7.20203
13.5554
17.1668
20.1774
23.5252
27.0476
30.2942
32.8212
34.8093
36.6393
38.3928
39.9388
41.2123
42.2154
42.943
43.3829
43.5505
43.4713
43.1489
42.6053
41.9328
41.186
40.3207
39.3319
38.4634
38.0675
37.6444
36.9947
36.1293
35.0784
33.8683
32.5226
31.0595
29.4858
27.7987
25.9905
24.0532
21.9809
19.7684
17.4077
14.8853
12.1833
9.28007
6.14108
2.71674
-1.03532
-5.13906
-9.6483
-14.6568
-20.1755
-26.0852
-32.3564
-39.1874
-46.6081
-53.9071
-60.4752
-67.2606
-74.5421
-80.6715
-82.9472
-80.8535
-75.8672
-69.0159
-61.2775
-53.3269
-45.5892
-38.3111
-31.6176
-25.5552
-20.1216
-15.2874
-11.0101
-7.24147
-3.93173
-1.0339
1.49547
3.69172
5.56155
7.14917
8.65464
10.0108
11.0187
11.4323
11.4365
11.1732
10.6647
9.89915
8.83713
7.4881
5.78288
3.77897
1.36151
-100.169
-84.5765
-71.8798
-58.9106
-45.1041
-30.5068
-15.7625
-2.53558
7.28837
13.5701
17.0827
20.0509
23.3932
26.9064
30.1358
32.668
34.6817
36.5249
38.2694
39.7998
41.06
42.051
42.7667
43.1952
43.3526
43.2652
42.9341
42.3774
41.692
40.9487
40.1052
39.1399
38.2839
37.8617
37.4299
36.7352
35.816
34.7016
33.4197
31.997
30.4543
28.8006
27.0349
25.1524
23.1489
21.0221
18.7705
16.3888
13.8658
11.1858
8.32711
5.25402
1.91934
-1.7139
-5.67222
-10.0161
-14.8268
-20.0945
-25.7195
-31.712
-38.2371
-45.2266
-52.0367
-58.2774
-64.6864
-71.3178
-76.682
-78.5926
-76.6478
-72.0981
-65.8208
-58.6723
-51.2676
-44.0081
-37.1352
-30.7777
-24.9895
-19.7774
-15.1206
-10.9844
-7.32892
-4.11275
-1.29535
1.16375
3.2893
5.0754
6.59853
8.06759
9.40407
10.2954
10.7373
10.7888
10.5613
10.0896
9.3713
8.36254
7.08514
5.45315
3.56571
1.2424
-100.099
-84.6809
-72.1309
-59.1598
-45.3715
-30.711
-15.8316
-2.48428
7.35542
13.5677
16.9913
19.9332
23.2753
26.7731
29.981
32.5177
34.556
36.4115
38.1476
39.6637
40.9118
41.892
42.5969
43.0149
43.1623
43.0665
42.7273
42.159
41.4632
40.7263
39.9092
38.9731
38.1328
37.6709
37.2215
36.4821
35.5076
34.3284
32.9741
31.4742
29.8521
28.1188
26.275
24.3186
22.2488
20.0677
17.777
15.3747
12.852
10.1952
7.3824
4.37733
1.13583
-2.37535
-6.1867
-10.3622
-14.9685
-19.9831
-25.3294
-31.0426
-37.245
-43.8011
-50.1537
-56.0601
-62.065
-68.0678
-72.7497
-74.3477
-72.5453
-68.3979
-62.6567
-56.0695
-49.1927
-42.4023
-35.9317
-29.9111
-24.4002
-19.4131
-14.937
-10.9452
-7.40657
-4.28868
-1.55662
0.826153
2.8707
4.56232
6.00908
7.40083
8.70847
9.51568
9.96678
10.0786
9.90734
9.48507
8.82193
7.873
6.67144
5.11822
3.34793
1.1312
-100.014
-84.7718
-72.369
-59.3988
-45.6341
-30.9117
-15.9007
-2.44035
7.39865
13.5454
16.8893
19.8268
23.1708
26.6479
29.8312
32.3713
34.4324
36.2989
38.0273
39.5306
40.7679
41.7382
42.4333
42.8415
42.9791
42.8752
42.5289
41.9512
41.2479
40.5203
39.7327
38.8299
38.0046
37.4949
37.0185
36.2335
35.2023
33.9572
32.5295
30.9518
29.2503
27.4375
25.5159
23.4857
21.35
19.1146
16.7853
14.3628
11.8414
9.20915
6.44386
3.50932
0.364552
-3.02164
-6.68424
-10.6876
-15.0844
-19.8459
-24.9189
-30.3504
-36.2186
-42.3483
-48.2717
-53.8383
-59.4257
-64.8344
-68.9141
-70.2459
-68.5776
-64.7981
-59.5537
-53.4956
-47.1246
-40.7897
-34.7142
-29.0274
-23.7928
-19.0308
-14.7362
-10.8908
-7.47245
-4.45744
-1.81539
0.485027
2.4394
4.02739
5.38171
6.67746
7.91099
8.67855
9.14066
9.3152
9.21544
8.85544
8.25467
7.37272
6.25121
4.7814
3.1289
1.02786
-99.9164
-84.8479
-72.5932
-59.6264
-45.8912
-31.1084
-15.9708
-2.42065
7.42148
13.4964
16.7772
19.7311
23.0776
26.5304
29.6871
32.2293
34.3109
36.1871
37.9085
39.4005
40.628
41.5895
42.2758
42.675
42.8031
42.6914
42.3395
41.7553
41.0479
40.3318
39.5749
38.7067
37.8909
37.331
36.8199
35.988
34.8988
33.5867
32.0845
30.4283
28.6469
26.7545
24.755
22.6513
20.4497
18.1603
15.7925
13.3506
10.8317
8.22532
5.50931
2.64807
-0.396445
-3.6549
-7.16655
-10.9938
-15.1768
-19.6866
-24.4905
-29.6377
-35.1655
-40.881
-46.4
-51.6241
-56.7932
-61.6499
-65.2029
-66.3102
-64.7673
-61.3225
-56.5352
-50.9721
-45.0815
-39.1847
-33.4932
-28.1331
-23.1704
-18.6312
-14.518
-10.8212
-7.52707
-4.6192
-2.07088
0.142539
2.00056
3.47955
4.73068
5.94184
7.04512
7.8004
8.28142
8.51634
8.49355
8.20772
7.6756
6.86518
5.8281
4.44605
2.91166
0.932081
-99.8059
-84.9076
-72.8026
-59.8416
-46.1415
-31.301
-16.0417
-2.4284
7.42531
13.4112
16.6587
19.6445
22.9935
26.42
29.5491
32.0919
34.1914
36.076
37.7912
39.2733
40.4923
41.4458
42.1241
42.5149
42.6342
42.5154
42.1599
41.5727
40.8648
40.1613
39.4333
38.5975
37.7807
37.1759
36.6244
35.7442
34.5962
33.216
31.6384
29.9028
28.0409
26.0683
23.9908
21.8133
19.5458
17.2024
14.7965
12.3358
9.8205
7.24151
4.57672
1.79168
-1.14921
-4.27727
-7.63531
-11.2822
-15.2482
-19.5082
-24.0461
-28.9062
-34.0921
-39.4089
-44.5448
-49.4272
-54.1865
-58.5372
-61.6328
-62.5526
-61.1271
-57.9857
-53.6172
-48.5142
-43.0764
-37.5974
-32.2752
-27.2319
-22.5347
-18.2156
-14.2845
-10.7392
-7.57289
-4.77497
-2.32228
-0.198109
1.56128
2.931
4.07664
5.23609
6.18548
6.9185
7.41823
7.70533
7.75511
7.548
7.09068
6.35517
5.40464
4.11448
2.69821
0.843141
-99.6714
-84.9567
-72.9978
-60.0434
-46.3838
-31.4894
-16.1213
-2.44923
7.40667
13.2892
16.5375
19.5649
22.9166
26.3161
29.417
31.959
34.074
35.9658
37.6755
39.149
40.3605
41.3068
41.978
42.3613
42.4724
42.3476
41.9908
41.4048
40.6998
40.0085
39.3058
38.4964
37.6684
37.0259
36.4308