/*--------------------------------*- C++ -*----------------------------------*\
| =========                 |                                                 |
| \\      /  F ield         | OpenFOAM: The Open Source CFD Toolbox           |
|  \\    /   O peration     | Version:  4.1                                   |
|   \\  /    A nd           | Web:      www.OpenFOAM.org                      |
|    \\/     M anipulation  |                                                 |
\*---------------------------------------------------------------------------*/
FoamFile
{
    version     2.0;
    format      ascii;
    class       surfaceScalarField;
    location    "2000";
    object      phi;
}
// * * * * * * * * * * * * * * * * * * * * * * * * * * * * * * * * * * * * * //

dimensions      [0 3 -1 0 0 0 0];

internalField   nonuniform List<scalar> 
52920
(
3375.31
-38.211
3385.67
-10.3558
3371.34
14.331
3329.7
41.6386
3261.32
68.3853
3168.76
92.5518
3057.21
111.551
2933.67
123.539
2803.77
129.902
2670.54
133.236
2534.62
135.912
2395.59
139.029
2253.65
141.937
2110.23
143.423
1967.69
142.542
1828.62
139.07
1695.07
133.542
1568.62
126.452
1451.09
117.533
1344.76
106.326
1251.48
93.2772
1171.45
80.0287
1102.4
69.0507
1039.11
63.288
973.331
65.7801
894.633
78.6961
789.374
105.258
631.305
158.068
379.759
251.545
50.806
328.951
-255.203
306.007
-437.316
182.112
-545.518
108.201
-608.162
62.6428
-628.077
19.9143
-607.913
-20.1648
-551.705
-56.2092
-454.942
-96.7639
-303.79
-151.153
-86.6376
-217.152
180.098
-266.736
491.198
-311.1
864.39
-373.192
1291.38
-426.986
1763.68
-472.305
2274.82
-511.139
2818.12
-543.304
3386.49
-568.368
3972.85
-586.362
4570.88
-598.031
5175.8
-604.913
5785.01
-609.212
6398.38
-613.369
7017.81
-619.431
7646.35
-628.543
8286.95
-640.594
8940.97
-654.025
9606.97
-665.994
10279.8
-672.834
10950.7
-670.872
11608.4
-657.74
12241.3
-632.847
12837.4
-596.161
13382.7
-545.282
13850.3
-467.612
14190.2
-339.908
14340.6
-150.354
14252.5
88.0663
13918.2
334.312
13392.1
526.11
12755.6
636.502
12077.6
678.011
11402.4
675.182
10753.9
648.519
10142.7
611.221
9572.04
570.612
9041.78
530.265
8550.17
491.611
8095.21
454.951
7675.17
420.044
7288.73
386.438
6935.07
353.661
6613.75
321.318
6324.61
289.139
6067.63
256.985
5842.79
224.837
5650.01
192.778
5489.03
160.984
5359.33
129.695
5260.13
99.2072
5190.39
69.7323
5149.02
41.375
5135.31
13.71
5150.01
-14.7043
5193.84
-43.8247
5267.51
-73.6746
5369.33
-101.817
5504.77
-135.437
5659.61
-154.843
-209.739
3334.42
-67.7399
3340.62
-16.5556
3325.07
29.8729
3283.8
82.9168
3216.18
136.004
3124
184.733
3012.19
223.352
2887.96
247.769
2757.29
260.576
2623.57
266.951
2487.76
271.725
2349.62
277.173
2209.56
281.996
2069.26
283.723
1931.36
280.437
1798.64
271.79
1673.1
259.086
1555.97
243.577
1448.61
224.893
1352.68
202.258
1269.06
176.889
1196.56
152.535
1131.23
134.379
1066.48
128.03
993.71
138.551
903.417
168.989
781.342
227.332
603.479
335.93
335.837
519.186
-4.19776
668.985
-270.123
571.931
-420.882
332.869
-518.106
205.423
-570.855
115.39
-579.502
28.5607
-546.661
-53.008
-478.692
-124.179
-371.637
-203.82
-216.699
-306.091
-13.0453
-420.807
240.769
-520.55
543.754
-614.085
887.518
-716.956
1274.02
-813.484
1702.67
-900.957
2170.08
-978.547
2671.23
-1044.46
3200.09
-1097.23
3750.25
-1136.52
4315.62
-1163.4
4891.21
-1180.51
5473.85
-1191.84
6062.45
-1201.97
6657.82
-1214.81
7261.94
-1232.66
7876.86
-1255.52
8503.43
-1280.59
9140.05
-1302.62
9781.93
-1314.71
10420.9
-1309.8
11046.1
-1282.96
11645.9
-1232.64
12209.5
-1159.83
12729.4
-1065.11
13193.8
-932.067
13569.6
-715.698
13793.3
-374.021
13790.3
91.0761
13523.8
600.802
13039.6
1010.29
12425
1251.08
11757.8
1345.22
11088.8
1344.15
10445.6
1291.74
9840.48
1216.36
9277.38
1133.71
8756.23
1051.42
8275.3
972.541
7832.49
897.757
7425.93
826.611
7054.13
758.236
6716.06
691.731
6411
626.372
6138.46
561.683
5898
497.441
5689.19
433.649
5511.47
370.499
5364.1
308.35
5246.13
247.668
5156.36
188.98
5093.5
132.586
5056.41
78.4652
5044.4
25.7216
5058.25
-28.5501
5099.05
-84.6316
5168.11
-142.733
5264.23
-197.935
5393.87
-265.071
5539.63
-300.613
-414.576
3285.29
-85.1998
3282.74
-14.0064
3260.95
51.6631
3215.24
128.628
3144.06
207.185
3048.49
280.302
2933.33
338.51
2806.04
375.059
2673.05
393.567
2538.22
401.781
2402.83
407.114
2266.89
413.112
2131.05
417.84
1997.23
417.539
1868.32
409.347
1747.12
392.986
1635.31
370.891
1533.48
345.407
1442.12
316.253
1361.82
282.558
1291.9
246.808
1228.92
215.518
1166.5
196.802
1096.45
198.073
1010.87
224.133
902.143
277.715
758.485
370.989
566.623
527.79
289.102
796.707
-48.048
1006.13
-285.229
809.112
-417.911
465.55
-509.673
297.184
-557.568
163.283
-562.701
33.6921
-529.634
-86.0757
-464.779
-189.035
-366.331
-302.268
-231.417
-441.005
-56.1009
-596.123
165.995
-742.646
432.465
-880.555
735.921
-1020.41
1077.06
-1154.62
1455.85
-1279.75
1870.09
-1392.79
2316.04
-1490.41
2788.92
-1570.11
3283.45
-1631.05
3794.49
-1674.44
4317.71
-1703.73
4850.27
-1724.41
5391.16
-1742.86
5940.99
-1764.64
6501.44
-1793.11
7074.27
-1828.34
7660.08
-1866.4
8257.19
-1899.73
8860.95
-1918.47
9463.52
-1912.37
10054.6
-1874.06
10622.5
-1800.54
11155.7
-1692.97
11646.8
-1556.21
12091.8
-1377.14
12478
-1101.9
12767.2
-663.231
12882.4
-24.0699
12744.9
738.33
12368.3
1386.87
11832.9
1786.44
11221.8
1956.34
10593.2
1972.71
9980.72
1904.26
9400.68
1796.4
8859.72
1674.67
8359.42
1551.72
7899.09
1432.87
7477.23
1319.62
7092.25
1211.59
6742.71
1107.78
6427.38
1007.06
6145.2
908.55
5895.18
811.705
5676.33
716.294
5487.6
622.375
5327.85
530.255
5195.74
440.452
5089.84
353.573
5008.6
270.218
4950.66
190.529
4915.09
114.037
4901.61
39.2018
4911.52
-38.4612
4946.75
-119.866
5009.38
-205.365
5099.39
-287.939
5223.24
-388.928
5361.3
-438.67
-621.059
3234.27
-89.6176
3221.12
-0.862982
3190.86
81.9223
3138.63
180.859
3061.98
283.832
2961.26
381.025
2841.16
458.61
2709.57
506.649
2573.58
529.561
2437.66
537.695
2303.52
541.256
2171.4
545.233
2042.13
547.108
1917.81
541.858
1801.37
525.78
1695.36
499
1600.7
465.552
1516.89
429.214
1443.21
389.929
1378.81
346.961
1320.97
304.649
1263.66
272.822
1198.24
262.225
1116.27
280.042
1011.91
328.492
880.019
409.603
718.275
532.732
519.271
726.794
219.727
1096.25
-109.567
1335.43
-310.795
1010.34
-433.288
588.042
-520.193
384.087
-564.628
207.718
-568.178
37.2404
-536.79
-117.465
-476.271
-249.555
-387.244
-391.296
-269.823
-558.427
-119.598
-746.349
71.6118
-933.856
304.199
-1113.14
572.575
-1288.79
875.719
-1457.77
1213.42
-1617.45
1583.93
-1763.3
1984.11
-1890.59
2409.82
-1995.81
2856.42
-2077.65
3319.38
-2137.4
3794.92
-2179.26
4280.67
-2210.16
4776.01
-2238.2
5281.78
-2270.4
5799.6
-2310.93
6330.99
-2359.74
6876.2
-2411.6
7433.23
-2456.76
7997.39
-2482.63
8561.19
-2476.18
9115.11
-2427.97
9648.25
-2333.68
10149.1
-2193.8
10610.1
-2017.2
11029.1
-1796.22
11402.6
-1475.38
11711.4
-971.983
11892.7
-205.379
11848.5
782.471
11566.1
1669.3
11113.6
2238.97
10571.5
2498.39
9999.64
2544.59
9433.9
2470
8893.32
2336.99
8386.76
2181.23
7917.59
2020.88
7486.47
1864
7092.76
1713.32
6735.35
1569
6412.92
1430.21
6124.07
1295.9
5867.35
1165.26
5641.29
1037.77
5444.33
913.255
5274.87
791.831
5131.24
673.889
5011.67
560.019
4914.43
450.817
4837.94
346.708
4781.11
247.355
4743.62
151.523
4725.98
56.8459
4730.34
-42.8221
4759.66
-149.182
4816.82
-262.526
4902.94
-374.063
5022.62
-508.607
5158.58
-574.634
-839.914
3185.92
-81.0819
3161.11
23.9539
3120.76
122.271
3060.67
240.949
2977.68
366.818
2871.25
487.459
2745.81
584.044
2609.75
642.715
2470.97
668.336
2334.79
673.875
2203.39
672.654
2077.22
671.408
1957.16
667.168
1845.26
653.755
1744.18
626.857
1655.73
587.45
1579.61
541.668
1513.89
494.94
1456.39
447.423
1404.6
398.754
1353.53
355.72
1294.62
331.733
1218
338.837
1117
381.046
988.432
457.057
833.948
564.087
664.576
702.104
443.743
947.626
105.942
1434.05
-190.812
1632.18
-346.398
1165.93
-463.088
704.731
-544.169
465.168
-585.575
249.123
-588.155
39.82
-558.669
-146.952
-502.061
-306.164
-420.577
-472.78
-316.407
-662.597
-187.1
-875.656
-24.6456
-1096.31
175.363
-1313.15
410.957
-1524.38
680.27
-1727.08
982.498
-1919.68
1316.25
-2097.05
1678.86
-2253.2
2066.63
-2383.58
2475.25
-2486.27
2900.33
-2562.48
3338.17
-2617.1
3786.45
-2658.44
4244.58
-2696.33
4713.3
-2739.12
5194.01
-2791.65
5687.92
-2853.65
6194.95
-2918.63
6713
-2974.81
7237.55
-3007.18
7761.53
-3000.16
8276.11
-2942.55
8771.36
-2828.93
9236.01
-2658.45
9662.54
-2443.73
10049.4
-2183.09
10397.3
-1823.31
10701.7
-1276.3
10917.5
-421.257
10937.3
762.688
10727.2
1879.47
10346.1
2620.03
9871.16
2973.33
9360.17
3055.57
8848.54
2981.64
8355.73
2829.79
7891.68
2645.27
7460.99
2451.58
7065.34
2259.65
6704.87
2073.79
6378.85
1895.02
6086.02
1723.04
5824.81
1557.12
5593.42
1396.65
5389.97
1241.22
5212.51
1090.71
5059.06
945.276
4927.64
805.31
4816.32
671.341
4723.4
543.737
4647.65
422.461
4588.64
306.365
4546.92
193.237
4524.01
79.7562
4523.12
-41.9322
4548.23
-174.291
4602.72
-317.009
4687.7
-459.051
4805.46
-626.369
4949.24
-718.412
-1083.89
3124.23
-59.6738
3086.62
61.5627
3035
173.891
2966.99
308.965
2879.43
454.377
2770.56
596.33
2643.66
710.939
2506.84
779.538
2368.62
806.561
2235.24
807.254
2109.57
798.322
1992.33
788.642
1884.42
775.083
1787.58
750.59
1703.81
710.626
1633.71
657.549
1575.41
599.969
1525.4
544.946
1480.09
492.738
1435.16
443.676
1383.28
407.599
1313.94
401.08
1218.02
434.75
1091.92
507.149
936.903
612.072
768.807
732.183
589.68
881.23
303.38
1233.93
-56.3296
1793.76
-276.25
1852.1
-391.592
1281.27
-502.868
816.006
-578.033
540.332
-616.477
287.565
-618.095
41.4362
-589.896
-175.152
-536.03
-360.03
-459.781
-549.03
-364.548
-757.832
-250.887
-989.317
-112.978
-1234.22
56.8227
-1482.95
261.257
-1728.82
499.229
-1965.05
769.116
-2189.57
1069.75
-2397.68
1398.97
-2582.42
1753.53
-2738.15
2129.37
-2862.11
2522.11
-2955.22
2927.84
-3022.83
3344.04
-3074.64
3769.89
-3122.18
4205.84
-3175.07
4652.97
-3238.78
5112.25
-3312.92
5583.62
-3390.01
6065.34
-3456.53
6553.46
-3495.29
7041.45
-3488.14
7520.95
-3422.05
7982.59
-3290.57
8414.8
-3090.66
8809.75
-2838.68
9165.21
-2538.55
9482.52
-2140.62
9766.99
-1560.77
9992.59
-646.857
10051.5
703.811
9893.43
2037.5
9570.82
2942.64
9156.92
3387.23
8706.04
3506.46
8250.97
3436.71
7810.03
3270.73
7393.09
3062.21
7005.22
2839.44
6648.71
2616.16
6324.13
2398.37
6030.95
2188.21
5767.91
1986.08
5533.27
1791.76
5325.05
1604.87
5141.15
1425.12
4979.45
1252.41
4837.84
1086.89
4714.3
928.854
4607.04
778.6
4514.76
636.021
4436.89
500.329
4373.95
369.306
4327.48
239.708
4300.01
107.224
4295.91
-37.8366
4320.02
-198.398
4375.12
-372.106
4461.02
-544.958
4581.59
-746.939
4748.32
-885.142
-1364.74
3072.67
-32.7539
3025.83
108.407
2962.23
237.483
2881.89
389.307
2784.27
552.002
2669.19
711.407
2540.04
840.083
2404.25
915.331
2269.84
940.971
2143.07
934.028
2026.9
914.489
1922.01
893.534
1829.01
868.081
1749.05
830.546
1683.04
776.641
1630.05
710.54
1586.59
643.421
1547.83
583.715
1508.83
531.736
1463.4
489.1
1401.96
469.046
1313.54
489.493
1191.85
556.441
1036.99
662.01
860.732
788.329
686.892
906.022
458.325
1109.8
92.9774
1599.27
-223.218
2109.95
-352.834
1981.72
-446.074
1374.51
-549.779
919.711
-619.276
609.828
-654.365
322.653
-654.737
41.8074
-627.34
-202.549
-575.658
-411.712
-503.612
-621.077
-415.152
-846.292
-312.462
-1092.01
-192.4
-1354.28
-47.8879
-1627.46
127.275
-1903.98
335.241
-2173.02
574.475
-2428.8
843.652
-2666.86
1141.08
-2879.85
1464.05
-3061.11
1808.81
-3206.88
2171.07
-3317.48
2546.78
-3398.54
2933.16
-3461.02
3329.04
-3518.05
3734.27
-3580.31
4149.39
-3653.89
4575.16
-3738.69
5011.86
-3826.71
5458.65
-3903.32
5912.76
-3949.4
6368.56
-3943.95
6818.18
-3871.68
7252.61
-3724.99
7659.38
-3497.44
8030.15
-3209.45
8361.14
-2869.54
8650.79
-2430.26
8909.61
-1819.59
9128.34
-865.587
9205.68
626.471
9082.5
2160.69
8806.96
3218.18
8448.05
3746.14
8055.04
3899.47
7656.69
3835.05
7269.06
3658.36
6901.13
3430.14
6557.85
3182.72
6241.64
2932.37
5953.23
2686.78
5692.16
2449.29
5457.14
2221.1
5246.45
2002.46
5058.08
1793.23
4889.98
1593.22
4740.05
1402.34
4606.29
1220.64
4486.92
1048.23
4380.58
884.939
4286.64
729.96
4205.45
581.517
4138.58
436.177
4088.49
289.803
4058.59
137.123
4054.56
-33.8126
4081.43
-225.259
4139.56
-430.238
4228.58
-633.984
4362.34
-880.697
4569.74
-1092.54
-1687.66
3017.52
-2.39469
2964.89
161.031
2893.63
308.748
2804.26
478.672
2697.42
658.847
2575.08
833.747
2442.63
972.529
2308.29
1049.67
2179.8
1069.46
2062.78
1051.05
1959.45
1017.82
1869.71
983.275
1793.36
944.425
1730.47
893.43
1680.55
826.568
1641.16
749.93
1607.61
676.97
1574.13
617.187
1534.53
571.338
1480.48
543.153
1400.92
548.6
1286.66
603.749
1135.16
707.942
953.298
843.874
767.429
974.197
570.157
1103.29
243.628
1436.32
-146.979
1989.88
-355.923
2318.9
-423.191
2048.99
-507.454
1458.77
-601.365
1013.62
-664.679
673.141
-695.613
353.586
-694.222
40.4154
-667.29
-229.482
-617.696
-461.307
-549.518
-689.255
-466.608
-929.202
-371.673
-1186.94
-264.139
-1461.82
-139.282
-1752.32
9.94464
-2053.21
188.992
-2352.06
398.573
-2638.38
637.263
-2905.55
903.679
-3146.27
1195.7
-3353.13
1510.12
-3521.3
1842.94
-3650.29
2190.09
-3745.69
2548.48
-3819.41
2916.21
-3885.79
3292.16
-3956.25
3675.96
-4037.7
4068.22
-4130.95
4469.86
-4228.35
4881.42
-4314.88
5301.94
-4369.92
5727.21
-4369.22
6150.14
-4294.6
6562.29
-4137.14
6949.92
-3885.07
7304.13
-3563.66
7619.26
-3184.67
7887.91
-2698.91
8121.23
-2052.92
8323.57
-1067.93
8403.23
546.808
8300.68
2263.24
8063.1
3455.76
7754.18
4055.06
7416.57
4237.08
7073.92
4177.7
6739.26
3993.02
6420.17
3749.24
6121.06
3481.83
5844.21
3209.22
5590.33
2940.66
5359.01
2680.61
5149.08
2431.02
4958.98
2192.56
4786.9
1965.31
4630.98
1749.14
4489.38
1543.95
4360.37
1349.64
4242.64
1165.96
4135.48
992.092
4039.16
826.279
3955.06
665.62
3885.74
505.494
3834.35
341.194
3805.03
166.441
3804.95
-33.7303
3837.62
-257.928
3899.93
-492.544
3997.6
-731.657
4161.48
-1044.58
4422.34
-1353.4
-2046.87
2958.35
30.3563
2901.24
218.147
2824.37
385.612
2729.16
573.887
2616.5
771.504
2489.41
960.835
2355.16
1106.78
2223.56
1181.28
2102.73
1190.29
1997.63
1156.15
1909.16
1106.28
1835.79
1056.65
1775.89
1004.32
1728.04
941.283
1690.3
864.303
1659.25
780.977
1629.7
706.52
1595.26
651.628
1548.03
618.568
1477.58
613.599
1373.11
653.075
1228.86
747.998
1047.35
889.449
848.478
1042.75
654.907
1167.77
380.936
1377.26
-25.5049
1842.76
-345.261
2309.64
-451.048
2424.68
-493.037
2090.97
-572.005
1537.74
-654.618
1096.23
-710.368
728.891
-736.233
379.449
-732.45
36.6324
-705.708
-256.224
-658.485
-508.531
-594.553
-753.187
-517.355
-1006.4
-429.394
-1274.9
-331.018
-1560.19
-220.201
-1863.14
-92.1273
-2181.28
60.1569
-2504.35
240.829
-2819.05
449.72
-3114.44
685.608
-3382.15
946.996
-3614.51
1231.4
-3805.7
1535.33
-3954.22
1854.88
-4065.24
2186.49
-4151.02
2527.23
-4226.53
2874.69
-4303.71
3227.62
-4390.63
3586.51
-4489.83
3952.86
-4594.7
4328.63
-4690.66
4714.91
-4756.2
5109.38
-4763.69
5506.32
-4691.54
5898.65
-4529.47
6271.36
-4257.78
6615.38
-3907.69
6923.14
-3492.43
7178.93
-2954.71
7390.52
-2264.5
7572.02
-1249.43
7641.88
476.946
7548.71
2356.41
7342.16
3662.31
7079.39
4317.83
6794.78
4521.69
6505.97
4466.51
6222.59
4276.4
5950.55
4021.28
5693.54
3738.84
5453.59
3449.17
5231.38
3162.86
5026.66
2885.33
4838.52
2619.16
4665.71
2365.37
4506.78
2124.24
4360.17
1895.75
4224.37
1679.75
4098.14
1475.88
3980.78
1283.33
3872.47
1100.4
3774.45
924.297
3689.13
750.943
3619.85
574.765
3570.14
390.906
3544.83
191.755
3552.3
-41.1989
3591.97
-297.604
3660.11
-560.676
3778.91
-850.459
3991.42
-1257.09
4305.3
-1667.27
-2426.64
2895.87
64.3909
2835.81
278.205
2755.15
466.272
2656.36
672.679
2540.73
887.131
2411.91
1089.66
2278.45
1240.23
2151.56
1308.17
2039.89
1301.96
1947.72
1248.32
1874.37
1179.62
1816.44
1114.58
1770.54
1050.23
1733.65
978.168
1702.85
895.105
1674.51
809.313
1643.52
737.509
1602.51
692.635
1541.25
679.832
1447.98
706.871
1314.16
786.89
1138.82
923.337
934.217
1094.05
730.512
1246.45
498.303
1399.98
124.59
1750.98
-275.067
2242.42
-477.901
2512.47
-527.186
2473.97
-564.114
2127.9
-635.874
1609.5
-705.782
1166.14
-752.156
775.264
-771.847
399.14
-765.089
29.8722
-738.439
-282.875
-693.953
-553.017
-634.828
-812.313
-563.968
-1077.26
-483.396
-1355.48
-393.575
-1650.01
-293.801
-1962.91
-181.693
-2293.39
-51.9989
-2634.04
101.283
-2972.33
281.003
-3294.16
486.851
-3588
717.802
-3845.47
972.156
-4060.05
1247.16
-4229.23
1539.19
-4357.27
1844.22
-4456.05
2158.31
-4540.63
2477.94
-4623.34
2801.14
-4713.83
3128.05
-4816.74
3460.18
-4926.83
3800.26
-5030.74
4151.19
-5107.13
4512.77
-5125.27
4881.57
-5060.34
5253.36
-4901.26
5612.33
-4616.75
5950.21
-4245.56
6257.92
-3800.14
6509
-3205.78
6704.66
-2460.16
6864.88
-1409.65
6916.48
425.343
6824.39
2448.5
6644.08
3842.62
6424.6
4537.31
6190.57
4755.71
5953.07
4704.01
5718.23
4511.24
5490.31
4249.2
5272.27
3956.87
5065.94
3655.51
4872.07
3356.73
4690.71
3066.7
4521.34
2788.53
4363.11
2523.6
4214.93
2272.42
4075.63
2035.06
3944.12
1811.26
3819.77
1600.23
3702.7
1400.39
3594.07
1209.03
3496.12
1022.24
3412.14
834.932
3345.88
641.023
3301
435.786
3283.2
209.552
3300.51
-58.5072
3346.54
-343.641
3426.72
-640.851
3585.76
-1009.5
3856.82
-1528.15
4207.79
-2018.24
-2808.16
2809.66
99.8628
2750.01
337.852
2671.19
545.095
2575.66
768.207
2463.9
998.891
2339.16
1214.4
2210.74
1368.66
2091.13
1427.78
1989.68
1403.42
1910.18
1327.81
1850.42
1239.38
1805.09
1159.91
1769.08
1086.24
1738.12
1009.13
1709.03
924.193
1678.75
839.588
1642.11
774.156
1589.71
745.03
1508.73
760.809
1387.79
827.811
1222.66
952.025
1020.55
1125.45
807.468
1307.13
592.933
1460.99
273.533
1719.38
-151.879
2176.39
-455.682
2546.22
-566.682
2623.47
-597.835
2505.12
-634.185
2164.25
-695.231
1670.54
-750.868
1221.78
-786.303
810.699
-798.927
411.764
-788.895
19.8393
-762.441
-309.328
-720.961
-594.497
-667.052
-866.222
-603.121
-1141.19
-530.712
-1427.88
-450.038
-1730.69
-360.575
-2052.37
-261.353
-2392.61
-149.601
-2745.79
-20.3762
-3101.56
131.35
-3445.89
307.752
-3764.4
508.555
-4046.27
732.739
-4284.24
978.371
-4474.86
1242.32
-4621.22
1520.4
-4734.12
1807.99
-4828.22
2100.87
-4916.22
2396.35
-5009.31
2693.77
-5114.16
2993.82
-5226.88
3299.1
-5336.02
3613.5
-5421.52
3938.75
-5450.53
4274.64
-5396.22
4621.82
-5248.44
4964.68
-4959.61
5297.41
-4578.29
5610.51
-4113.24
5864.15
-3459.42
6050.4
-2646.41
6191.85
-1551.1
6220.21
396.974
6124.07
2544.65
5967.25
3999.44
5789.01
4715.56
5603.05
4941.67
5413.78
4893.28
5224.05
4700.97
5036.65
4436.61
4853.98
4139.53
4677.8
3831.7
4509.1
3525.43
4348.29
3227.51
4195.29
2941.53
4049.63
2669.25
3910.6
2411.45
3777.41
2168.25
3649.55
1939.12
3527.13
1722.64
3411.24
1516.28
3304.05
1316.22
3208.68
1117.61
3128.98
914.63
3068.69
701.315
3031.68
472.796
3024.46
216.763
3051.44
-85.4816
3103.94
-396.143
3210.88
-747.787
3428.42
-1227.05
3750.92
-1850.65
4114.39
-2381.71
-3177.24
2738.01
138.022
2673.27
402.584
2590.27
628.1
2494.3
864.172
2386.51
1106.68
2268.8
1332.12
2148.98
1488.47
2039.13
1537.63
1948.55
1494
1880.59
1395.77
1831.76
1288.21
1795.19
1196.48
1764.42
1117.01
1734.59
1038.96
1703.09
955.689
1667.62
875.054
1621.91
819.868
1553.43
813.512
1447.53
866.711
1295.66
979.677
1101.29
1146.39
885.395
1341.34
673.791
1518.73
406.757
1728.02
1.59983
2124.53
-381.741
2559.73
-571.965
2736.45
-637.729
2689.23
-666.502
2533.89
-699.271
2197.02
-746.361
1717.63
-786.544
1261.96
-810.4
834.553
-815.861
417.224
-802.683
6.65943
-776.555
-335.457
-738.101
-632.953
-689.39
-914.933
-632.474
-1198.11
-568.601
-1491.76
-497.802
-1801.49
-419.368
-2130.81
-332.386
-2479.59
-235.501
-2842.68
-126.038
-3211.02
0.51069
-3572.43
148.489
-3912.38
319.643
-4217.42
513.713
-4478.31
729.555
-4690.7
964.798
-4856.46
1215.51
-4984.84
1476.91
-5089.61
1744.34
-5183.65
2014.23
-5279.2
2284.68
-5384.62
2555.15
-5497.35
2827.27
-5608.15
3104.76
-5699.01
3390.43
-5736.2
3687.58
-5693.38
4003.44
-5564.29
4323.86
-5280.04
4648.56
-4902.99
4969.8
-4434.48
5231.74
-3721.37
5414.84
-2829.51
5542.11
-1678.37
5545.51
393.572
5443.53
2646.63
5309.56
4133.4
5171.19
4853.93
5030.7
5082.16
4886.21
5037.77
4737.79
4849.4
4587.1
4587.3
4436.23
4290.4
4287.02
3980.91
4140.78
3671.66
3998.33
3369.96
3859.95
3079.9
3725.51
2803.69
3594.64
2542.32
3467.05
2295.85
3342.91
2063.26
3223.27
1842.28
3110.21
1629.35
3006.81
1419.61
2916.86
1207.56
2844.37
987.12
2792.66
753.022
2766.2
499.259
2771.16
211.81
2805.26
-119.588
2870.37
-461.249
3025.67
-903.091
3307.24
-1508.62
3658.26
-2201.66
4012.28
-2735.73
-3527.75
2668.01
176.077
2601.55
469.041
2515.75
713.902
2418.14
961.784
2312.39
1212.43
2201.13
1443.37
2090.85
1598.76
1991.81
1636.67
1912.06
1573.74
1854.09
1453.75
1813.31
1328.99
1781.69
1228.1
1752.01
1146.69
1719.59
1071.37
1682.95
992.329
1639.91
918.095
1581.51
878.265
1491.69
903.331
1356.17
1002.23
1173.18
1162.66
959.663
1359.91
746.638
1554.37
517.391
1747.98
162.251
2083.16
-263.136
2549.92
-540.949
2837.54
-653.832
2849.33
-703.579
2738.98
-730.929
2561.24
-755.323
2221.41
-786.351
1748.66
-811.083
1286.69
-824.098
847.568
-823.286
416.412
-807.547
-9.0797
-781.856
-361.148
-746.15
-668.659
-702.113
-958.97
-651.61
-1248.61
-595.815
-1547.55
-534.802
-1862.5
-467.832
-2197.78
-393.742
-2553.68
-311.132
-2925.29
-218.445
-3303.71
-113.142
-3677.74
8.85549
-4034.38
151.293
-4359.86
315.619
-4642.63
501.543
-4876.63
707.611
-5062.53
930.623
-5207.85
1166.03
-5325.02
1408.96
-5426.58
1654.78
-5525.01
1900.21
-5630.05
2143.53
-5740.67
2384.92
-5849.53
2626.85
-5940.94
2872.07
-5981.41
3126.31
-5947.62
3403.04
-5841.03
3690.75
-5567.74
3999.71
-5211.95
4328
-4762.77
4601.33
-3994.7
4786.2
-3014.38
4905.23
-1797.39
4884.92
413.885
4778.82
2752.73
4669.07
4243.15
4569.79
4953.21
4472.1
5179.85
4368.79
5141.08
4257.82
4960.36
4140.19
4704.93
4017.9
4412.69
3892.98
4105.82
3767.11
3797.54
3641.38
3495.69
3516.37
3204.91
3392.24
2927.82
3269.02
2665.54
3147.04
2417.83
3027.34
2182.96
2911.93
1957.69
2803.87
1737.41
2706.94
1516.54
2625.24
1289.27
2562.47
1049.89
2521.48
794.015
2507.37
513.367
2523.42
195.759
2562.9
-159.06
2657.31
-555.661
2879.48
-1125.26
3210.86
-1840.01
3562.56
-2553.36
3895.26
-3068.43
-3860.03
2596.96
213.836
2530.48
535.53
2444.5
799.882
2346.98
1059.3
2243.02
1316.39
2136.86
1549.53
2034.93
1700.69
1945.87
1725.72
1875.87
1643.74
1826.06
1503.56
1790.7
1364.34
1760.88
1257.92
1729.18
1178.39
1691.85
1108.71
1648.42
1035.75
1595.35
971.167
1519.58
954.033
1402.7
1020.21
1235.03
1169.9
1027.8
1369.89
813.053
1574.66
602.252
1765.17
305.353
2044.88
-116.074
2504.59
-472.709
2906.55
-647.063
3011.89
-722.548
2924.82
-765.777
2782.21
-787.161
2582.63
-799.297
2233.55
-813.952
1763.31
-824.963
1297.7
-829.29
851.895
-823.906
411.027
-806.492
-26.4949
-781.28
-386.361
-747.804
-702.135
-707.53
-999.245
-662.274
-1293.87
-613.301
-1596.53
-560.936
-1914.86
-504.694
-2254.02
-443.451
-2614.93
-375.526
-2993.21
-299.062
-3380.17
-212.219
-3764.58
-112.58
-4134.02
3.34939
-4475.79
138.761
-4778.04
294.966
-5032.83
471.581
-5239.14
666.447
-5402.71
875.64
-5534.22
1094.3
-5645.24
1316.88
-5747.6
1538.73
-5851.9
1757.01
-5958.95
1970.37
-6062.89
2179.77
-6150.34
2387.42
-6189.06
2599.01
-6159.21
2830.42
-6072.44
3072.85
-5810.17
3353.4
-5492.5
3682.01
-5091.37
3965.15
-4277.85
4154.13
-3203.35
4271.84
-1915.1
4231.89
453.831
4126.86
2857.76
4044.5
4325.51
3983.95
5013.77
3926.4
5237.39
3860.68
5206.8
3783.52
5037.52
3695.66
4792.79
3599.21
4509.14
3496.45
4208.58
3389.29
3904.7
3279.03
3605.94
3166.46
3317.48
3052.04
3042.24
2936.35
2781.24
2820.49
2533.68
2706.45
2297
2597.22
2066.92
2496.6
1838.03
2408.78
1604.36
2337.79
1360.26
2286.63
1101.05
2257.97
822.675
2256.42
514.92
2279.61
172.564
2329.51
-208.954
2478.14
-704.299
2769.33
-1416.45
3121.56
-2192.24
3453.39
-2885.18
3763.23
-3378.27
-4177.07
2525.92
250.715
2460.64
600.812
2376.2
884.324
2280.41
1155.09
2178.58
1418.22
2076.18
1651.93
1980.36
1796.52
1899
1807.08
1836.58
1706.16
1792.73
1547.41
1760.41
1396.66
1729.97
1288.36
1694.38
1213.99
1651.06
1152.02
1599.57
1087.25
1532.95
1037.78
1433.88
1053.1
1285.39
1168.7
1089.23
1366.06
874.115
1585.01
669.248
1779.53
421.529
2012.89
37.5743
2428.83
-370.285
2912.45
-617.245
3153.51
-726.258
3120.91
-785.59
2984.15
-821.159
2817.78
-831.785
2593.25
-829.905
2231.67
-830.049
1763.46
-830.743
1298.4
-829.485
850.636
-821.508
403.05
-803.294
-44.709
-778.512
-411.143
-746.653
-733.994
-709.099
-1036.8
-667.691
-1335.27
-623.854
-1640.36
-578.262
-1960.46
-530.895
-2301.39
-481.037
-2664.78
-427.147
-3047.1
-366.995
-3440.33
-298.135
-3833.44
-218.391
-4213.76
-125.643
-4568.54
-17.0699
-4886.62
110.142
-5160.05
257.285
-5386.29
423.488
-5568.92
605.781
-5716.51
799.71
-5839.17
999.292
-5947.18
1198.53
-6051.14
1393.31
-6153.73
1580.97
-6250.54
1761.39
-6330.76
1937.08
-6364.75
2111.56
-6333.69
2296.17
-6257.05
2484.12
-5998.12
2719.18
-5727.56
3030.68
-5402.87
3314.95
-4562.12
3507.74
-3396.14
3633.16
-2040.53
3581.14
505.853
3485.83
2953.07
3435.42
4375.92
3413.47
5035.72
3393.41
5257.45
3361.86
5238.35
3315.21
5084.17
3254.3
4853.7
3181.45
4582
3099.09
4290.93
3009.28
3994.52
2913.43
3701.79
2812.54
3418.37
2707.51
3147.26
2599.61
2889.14
2490.84
2642.45
2384.13
2403.71
2283.26
2167.79
2192.51
1928.78
2116.11
1680.76
2057.64
1418.73
2019.29
1139.39
2004.16
837.804
2013.01
506.074
2038.64
146.933
2116.59
-286.909
2340.72
-928.423
2680.71
-1756.44
3023.91
-2535.44
3327.95
-3189.23
3619.18
-3669.5
-4481.41
2435.05
285.536
2376.48
659.384
2300.37
960.434
2212.36
1243.1
2116.31
1514.27
2018.21
1750.04
1926.63
1888.09
1850.1
1883.62
1792.37
1763.88
1751.88
1587.9
1720.3
1428.24
1687.45
1321.22
1647.07
1254.36
1597.35
1201.75
1535.72
1148.87
1450.28
1123.22
1321.94
1181.44
1142.36
1348.28
931.296
1577.12
725.321
1790.98
509.153
1995.69
177.894
2344.15
-244.762
2851.49
-562.955
3230.64
-717.572
3308.13
-793.684
3197.02
-842.225
3032.69
-865.991
2841.54
-863.085
2590.35
-848.034
2216.62
-837.483
1752.91
-832.196
1293.11
-828.5
846.939
-819.51
394.059
-801.075
-63.1452
-776.612
-435.606
-745.837
-764.769
-710.125
-1072.51
-671.335
-1374.06
-631.017
-1680.68
-590.174
-2001.3
-549.303
-2342.26
-508.322
-2705.77
-466.265
-3089.16
-421.104
-3485.49
-369.956
-3884.59
-309.795
-4273.92
-238.236
-4640.1
-153.441
-4971.41
-53.1499
-5260.34
65.169
-5504.61
202.451
-5706.2
357.028
-5871.09
525.264
-6007.4
701.39
-6123.3
878.465
-6228.21
1050.89
-6326.16
1214.78
-6414.43
1369.22
-6485.19
1518.04
-6513.58
1663.16
-6478.81
1805.22
-6399.11
1941.91
-6134.82
2110.59
-5896.24
2369.18
-5661.46
2640.45
-4833.39
2835.88
-3591.57
2981.22
-2185.87
2928.88
558.194
2855.35
3026.6
2842.31
4388.96
2858.76
5019.27
2873.56
5242.65
2873.03
5238.88
2854
5103.2
2817.65
4890.06
2766.47
4633.17
2703.01
4354.4
2629.3
4068.23
2546.91
3784.19
2457.13
3508.15
2361.47
3242.92
2262.02
2988.59
2161.72
2742.76
2064.27
2501.15
1973.95
2258.11
1895.2
2007.53
1831.93
1744.02
1786.95
1463.72
1762.12
1164.22
1760.62
839.3
1773.72
492.975
1804.02
116.637
1939.72
-422.611
2240.75
-1229.45
2594.56
-2110.25
2910.22
-2851.1
3188.74
-3467.74
3466.44
-3947.2
-4773.89
2358.23
324.869
2296.56
721.053
2222.47
1034.52
2140.99
1324.58
2052.55
1602.7
1960.37
1842.21
1872.65
1975.81
1798.78
1957.49
1742.92
1819.74
1703.07
1627.76
1669.95
1461.35
1633.35
1357.81
1587.89
1299.81
1530.85
1258.79
1455.04
1224.68
1344.12
1234.15
1183.95
1341.61
983.378
1548.86
776.657
1783.84
574.321
1993.32
292.781
2277.23
-112.605
2749.53
-485.097
3223.98
-695.872
3441.41
-794.88
3407.14
-853.351
3255.49
-889.133
3068.47
-897.978
2850.39
-881.557
2573.93
-856.577
2191.64
-840.183
1736.51
-832.995
1285.92
-829.204
843.148
-819.908
384.763
-801.339
-81.7138
-777.064
-459.881
-747.032
-794.801
-712.637
-1106.91
-675.696
-1411.01
-637.783
-1718.59
-600.091
-2038.99
-563.541
-2378.81
-528.705
-2740.6
-495.424
-3122.44
-462.375
-3518.54
-426.958
-3920
-385.724
-4315.16
-335.222
-4690.6
-272.784
-5033.85
-196.57
-5336.55
-104.924
-5596.25
3.96775
-5815.09
130.343
-5997.46
271.787
-6148.85
423.408
-6274.92
578.194
-6383
729.219
-6477.18
871.287
-6556.5
1002.22
-6616.13
1126.46
-6637.82
1246.98
-6599.33
1352.99
-6505.12
1458.91
-6240.73
1546.32
-5983.66
1707.33
-5822.47
1948.62
-5074.69
2139.03
-3781.97
2314.58
-2361.42
2274.62
598.153
2236.78
3064.43
2266.38
4359.36
2320.67
4964.98
2367.72
5195.6
2395.35
5211.25
2401.43
5097.12
2387.57
4903.93
2356.37
4664.37
2310.35
4400.42
2251.56
4127.01
2181.77
3853.98
2102.78
3587.14
2016.84
3328.86
1926.92
3078.51
1836.73
2832.95
1750.49
2587.39
1672.66
2335.95
1607.49
2072.69
1558.26
1793.26
1526.97
1495.01
1516.13
1175.05
1526.05
829.385
1533.63
485.392
1587.29
62.9774
1808.61
-643.935
2160.94
-1581.78
2496.27
-2445.59
2780.6
-3135.42
3039.95
-3727.1
3307.4
-4214.65
-5053.87
2286.93
364.349
2223.51
784.476
2148.37
1109.66
2069.22
1403.73
1986.33
1685.6
1900.16
1928.38
1816.52
2059.45
1744.39
2029.62
1688.42
1875.71
1646.85
1669.32
1610.28
1497.93
1569.07
1399.02
1518.07
1350.81
1451.01
1325.86
1354.5
1321.19
1212.64
1376.01
1026.35
1527.89
823.564
1751.65
627.269
1980.13
383.635
2236.95
13.2263
2647.64
-389.094
3151.85
-658.377
3493.26
-790.469
3573.51
-859.767
3476.43
-903.685
3299.41
-923.636
3088.42
-917.026
2843.78
-889.745
2546.64
-859.52
2161.41
-841.865
1718.86
-835.55
1279.6
-832.701
840.298
-822.941
375.003
-803.926
-100.731
-779.666
-484.142
-750.201
-824.267
-716.94
-1140.17
-681.592
-1446.35
-645.636
-1754.55
-610.273
-2074.35
-576.631
-2412.45
-545.777
-2771.46
-518.338
-3149.88
-493.937
-3542.94
-470.809
-3943.13
-445.878
-4340.09
-415.307
-4721.17
-375.248
-5073.91
-322.569
-5389.23
-255.322
-5663.5
-172.532
-5897.88
-73.7694
-6096.22
40.2188
-6262.84
166.163
-6400.87
297.904
-6514.74
427.959
-6607.24
549.89
-6678.43
659.833
-6726.07
760.374
-6738.37
856.384
-6695.34
931.19
-6579.93
1030.11
-6339.65
1060.28
-6013.82
1112.17
-5874.36
1280.12
-5242.64
1426.99
-3928.84
1633.55
-2567.97
1620.48
611.221
1632.94
3051.97
1709.34
4282.96
1800.25
4874.07
1876.95
5118.89
1930.21
5157.99
1959.21
5068.12
1965.95
4897.19
1953.08
4677.23
1923.07
4430.43
1878.09
4171.99
1820.28
3911.79
1752.11
3655.31
1676.64
3404.33
1597.62
3157.53
1519.27
2911.29
1446
2660.66
1382.08
2399.87