/*--------------------------------*- C++ -*----------------------------------*\
| =========                 |                                                 |
| \\      /  F ield         | OpenFOAM: The Open Source CFD Toolbox           |
|  \\    /   O peration     | Version:  4.1                                   |
|   \\  /    A nd           | Web:      www.OpenFOAM.org                      |
|    \\/     M anipulation  |                                                 |
\*---------------------------------------------------------------------------*/
FoamFile
{
    version     2.0;
    format      ascii;
    class       volVectorField;
    location    "2000";
    object      U;
}
// * * * * * * * * * * * * * * * * * * * * * * * * * * * * * * * * * * * * * //

dimensions      [0 1 -1 0 0 0 0];

internalField   nonuniform List<vector> 
26785
(
(-2.92916e-16 0.0334947 27.5293)
(-1.74132e-16 0.0435384 26.6432)
(-2.02295e-16 0.0512984 25.6319)
(6.86526e-16 0.0592423 24.5441)
(5.78967e-16 0.0664713 23.333)
(1.12342e-15 0.0724744 22.012)
(1.30629e-15 0.0765296 20.6283)
(1.06643e-15 0.0781203 19.2304)
(1.33192e-15 0.0778211 17.8606)
(7.5641e-16 0.0765932 16.545)
(2.16347e-16 0.0752941 15.2897)
(-4.86635e-17 0.0743129 14.0879)
(-1.01717e-16 0.0733956 12.9316)
(-1.09205e-16 0.0721052 11.8203)
(-1.89158e-16 0.0701164 10.7615)
(-3.88668e-16 0.0673524 9.7654)
(-6.57917e-16 0.0639908 8.84018)
(-1.28139e-15 0.0601776 7.98929)
(-9.29631e-16 0.0557854 7.21408)
(-3.23716e-15 0.0506418 6.51856)
(-5.51106e-15 0.044907 5.90867)
(-6.17119e-15 0.0391495 5.38533)
(-1.07484e-14 0.0342273 4.93916)
(-8.88129e-15 0.0311816 4.54826)
(-1.6268e-14 0.0310801 4.18237)
(-1.89209e-14 0.0348302 3.79346)
(-2.1855e-14 0.0435728 3.35476)
(-2.23322e-14 0.061871 2.75095)
(-3.97785e-14 0.0936183 1.99009)
(-6.11409e-14 0.113375 0.712418)
(-4.11805e-14 0.101928 -0.874827)
(-4.89797e-14 0.0583953 -1.51858)
(-4.68238e-14 0.0327661 -1.98225)
(-2.92352e-14 0.0172517 -2.22136)
(-2.70262e-14 0.00476047 -2.33603)
(-1.39359e-14 -0.00532071 -2.31049)
(-1.68036e-14 -0.0160413 -2.15314)
(-9.76325e-15 -0.0320223 -1.84977)
(-9.96811e-15 -0.0552658 -1.42983)
(-8.64853e-15 -0.0864808 -0.84052)
(6.21199e-15 -0.114816 -0.0736638)
(2.71922e-15 -0.129655 0.833753)
(-2.89133e-16 -0.146714 1.9402)
(-8.33202e-15 -0.16069 3.17178)
(-7.25384e-15 -0.172218 4.50177)
(-1.13477e-14 -0.181812 5.91195)
(-1.15586e-14 -0.189255 7.38251)
(-9.25093e-15 -0.19432 8.89211)
(-8.01737e-15 -0.197002 10.4194)
(-6.96684e-15 -0.197587 11.9448)
(-4.06783e-15 -0.196663 13.4531)
(-2.5653e-15 -0.195055 14.9347)
(-1.78136e-15 -0.193667 16.3873)
(-1.0879e-15 -0.193245 17.8147)
(-2.55437e-16 -0.19419 19.2253)
(6.51924e-16 -0.196437 20.6281)
(1.18305e-15 -0.199386 22.0298)
(1.98739e-15 -0.201953 23.431)
(2.87858e-15 -0.202747 24.8237)
(3.98689e-15 -0.200414 26.1906)
(4.5864e-15 -0.194156 27.5077)
(5.2506e-15 -0.183752 28.7478)
(5.26785e-15 -0.168789 29.8855)
(6.29189e-15 -0.147341 30.8983)
(6.27511e-15 -0.113895 31.7476)
(5.7725e-15 -0.0614008 32.351)
(5.11517e-15 0.010321 32.5853)
(4.39294e-15 0.0937839 32.3197)
(3.86349e-15 0.175326 31.4916)
(3.30025e-15 0.237077 30.1768)
(4.81702e-15 0.271781 28.5568)
(4.95584e-15 0.28374 26.8154)
(5.46263e-15 0.280858 25.079)
(5.98924e-15 0.269824 23.417)
(6.65736e-15 0.255043 21.8602)
(6.96582e-15 0.239033 20.4178)
(7.78854e-15 0.223069 19.0881)
(8.42351e-15 0.207698 17.8653)
(9.0594e-15 0.193067 16.7421)
(9.51992e-15 0.179121 15.7117)
(1.00381e-14 0.165716 14.7684)
(9.8357e-15 0.152694 13.9077)
(9.6414e-15 0.139909 13.126)
(1.00374e-14 0.127259 12.4208)
(9.39011e-15 0.114682 11.7897)
(8.91733e-15 0.10216 11.2309)
(8.7544e-15 0.0897119 10.7422)
(8.8058e-15 0.0773918 10.3218)
(7.46127e-15 0.0652803 9.96697)
(6.46664e-15 0.053484 9.67508)
(5.88599e-15 0.042088 9.44277)
(5.23781e-15 0.0311479 9.26671)
(4.57368e-15 0.0204985 9.14339)
(3.83812e-15 0.00970135 9.07254)
(3.26302e-15 -0.00114822 9.05072)
(2.13001e-15 -0.0120161 9.08729)
(4.66846e-16 -0.0221154 9.1562)
(-1.0096e-15 -0.0337614 9.31612)
(-2.05406e-15 -0.0406429 9.41836)
(-4.58389e-15 -0.0592501 9.80027)
(-1.9799e-16 0.0981449 27.2201)
(1.01062e-15 0.122454 26.2984)
(7.63293e-16 0.143659 25.2818)
(1.20469e-15 0.167536 24.206)
(1.01018e-15 0.190287 23.012)
(1.46491e-15 0.209756 21.7059)
(8.88997e-16 0.223387 20.3321)
(1.09052e-15 0.229412 18.9396)
(7.40822e-16 0.229467 17.5732)
(4.13298e-16 0.226423 16.2617)
(6.38325e-17 0.222894 15.0129)
(-1.86033e-16 0.220093 13.8212)
(-4.73651e-16 0.217281 12.6794)
(-1.72607e-16 0.213149 11.5878)
(-2.15991e-15 0.206733 10.555)
(-3.25289e-15 0.197872 9.59235)
(-9.87202e-16 0.187243 8.70775)
(-4.21031e-16 0.17544 7.90317)
(-1.4116e-15 0.162186 7.17754)
(1.40517e-15 0.147032 6.53219)
(-4.89075e-15 0.130546 5.96973)
(-6.16057e-16 0.114512 5.48595)
(-2.34877e-15 0.101479 5.0647)
(-1.80558e-15 0.094414 4.67802)
(-1.85847e-15 0.0963898 4.29241)
(-1.1712e-14 0.109551 3.86374)
(-1.76833e-14 0.137858 3.37227)
(-2.17926e-14 0.194481 2.70101)
(-3.14304e-14 0.29141 1.87428)
(-5.57299e-14 0.357091 0.560649)
(-2.27695e-14 0.299629 -0.915128)
(-4.05017e-14 0.169189 -1.45841)
(-2.96619e-14 0.097751 -1.89397)
(-2.52223e-14 0.049191 -2.11027)
(-2.37966e-14 0.00806656 -2.19471)
(-2.17353e-14 -0.0264643 -2.13004)
(-1.68085e-14 -0.0577529 -1.92812)
(-3.05284e-15 -0.0996706 -1.59055)
(-3.00052e-15 -0.162282 -1.13221)
(-1.31165e-14 -0.239773 -0.527672)
(-1.55253e-14 -0.308704 0.200916)
(-1.61889e-15 -0.355965 1.10027)
(-7.11173e-15 -0.403341 2.10157)
(-2.05974e-15 -0.447033 3.20006)
(-3.72212e-15 -0.485926 4.39323)
(-6.14707e-15 -0.519386 5.67055)
(-1.03374e-14 -0.546245 7.01633)
(-8.31361e-15 -0.565673 8.41186)
(-8.50954e-15 -0.577563 9.83736)
(-4.13547e-15 -0.582664 11.2739)
(-4.00417e-15 -0.582607 12.7057)
(-2.73464e-15 -0.579734 14.1214)
(-8.73149e-16 -0.576631 15.5161)
(-5.51684e-16 -0.575461 16.8906)
(1.74683e-15 -0.577427 18.25)
(3.90676e-15 -0.582412 19.6006)
(5.13188e-15 -0.588792 20.9472)
(6.78607e-15 -0.593617 22.2898)
(8.63887e-15 -0.593101 23.6205)
(1.03922e-14 -0.583461 24.9238)
(1.15079e-14 -0.562251 26.1771)
(1.33845e-14 -0.528894 27.3538)
(1.4511e-14 -0.48393 28.428)
(1.40464e-14 -0.426129 29.3829)
(1.39005e-14 -0.342947 30.2046)
(1.33324e-14 -0.208653 30.8544)
(1.2152e-14 -0.00773289 31.2388)
(9.51286e-15 0.248845 31.1871)
(1.00287e-14 0.51197 30.5524)
(8.16813e-15 0.71347 29.3677)
(7.16264e-15 0.825453 27.8205)
(7.4385e-15 0.862047 26.1173)
(7.12528e-15 0.850282 24.4035)
(7.25723e-15 0.812834 22.7591)
(7.01804e-15 0.764319 21.2203)
(7.78282e-15 0.712823 19.7982)
(8.05277e-15 0.662251 18.4917)
(8.63302e-15 0.614132 17.2949)
(9.1413e-15 0.56875 16.2002)
(9.20852e-15 0.525803 15.2006)
(9.59602e-15 0.484767 14.29)
(9.1712e-15 0.445108 13.4635)
(8.65703e-15 0.406385 12.717)
(8.89731e-15 0.368296 12.0473)
(9.00742e-15 0.330679 11.4513)
(8.11226e-15 0.293498 10.9265)
(6.60681e-15 0.256825 10.4699)
(5.68084e-15 0.220825 10.0786)
(5.51173e-15 0.185729 9.74949)
(4.61805e-15 0.151818 9.47898)
(4.08885e-15 0.119281 9.26328)
(3.7334e-15 0.0881588 9.09881)
(3.77062e-15 0.057934 8.98248)
(1.21718e-15 0.0272256 8.91364)
(-4.06918e-16 -0.00383778 8.88928)
(-1.29116e-15 -0.0352469 8.92038)
(-3.02026e-15 -0.0645471 8.98108)
(-4.61715e-15 -0.0991939 9.13265)
(-6.40678e-15 -0.118192 9.22529)
(-8.85928e-15 -0.174871 9.59087)
(3.51292e-16 0.171288 26.8608)
(-6.56284e-16 0.207768 25.8717)
(-1.04353e-16 0.239585 24.8149)
(-3.4627e-16 0.277549 23.7187)
(-1.16345e-15 0.314977 22.5145)
(-3.34305e-16 0.347623 21.2014)
(-2.5171e-16 0.370589 19.8211)
(4.56972e-17 0.380576 18.4229)
(3.7934e-16 0.380235 17.0545)
(5.60006e-16 0.374424 15.7471)
(5.54669e-16 0.367637 14.5105)
(4.48538e-16 0.361983 13.3398)
(3.22703e-16 0.356227 12.2283)
(1.33299e-16 0.348145 11.1771)
(4.35577e-16 0.336105 10.1953)
(-2.54924e-15 0.319942 9.29455)
(-9.09132e-16 0.301019 8.48135)
(-4.21495e-15 0.280562 7.75442)
(-1.04306e-15 0.258233 7.10849)
(-4.61966e-15 0.233414 6.54054)
(-6.31785e-15 0.207381 6.04772)
(1.01565e-15 0.183584 5.6177)
(4.5001e-15 0.166455 5.22421)
(3.57609e-15 0.160476 4.83088)
(1.89592e-15 0.169382 4.40286)
(-7.76743e-15 0.195069 3.90802)
(-2.18552e-14 0.245735 3.33351)
(-2.70449e-14 0.337629 2.58182)
(-3.23807e-14 0.495129 1.73555)
(-5.96027e-14 0.603531 0.37175)
(-2.2681e-14 0.483062 -0.965098)
(-3.74633e-14 0.265964 -1.4383)
(-3.53739e-14 0.158047 -1.85928)
(-1.89977e-14 0.0756698 -2.06963)
(-1.92112e-14 0.00437026 -2.13759)
(-2.84554e-14 -0.0575664 -2.0629)
(-2.29566e-14 -0.112352 -1.86016)
(-6.26035e-16 -0.180259 -1.53633)
(-1.03952e-15 -0.274437 -1.10959)
(-1.95787e-14 -0.383175 -0.587212)
(-1.98981e-14 -0.480539 0.0449003)
(-1.1637e-14 -0.556512 0.827559)
(-1.52375e-14 -0.630331 1.70931)
(-2.00595e-14 -0.700383 2.67882)
(-1.94978e-14 -0.7649 3.73344)
(-1.7183e-14 -0.821864 4.86552)
(-1.25241e-14 -0.869053 6.06293)
(-7.69381e-15 -0.904896 7.31055)
(-4.25254e-15 -0.928946 8.5919)
(-3.31456e-15 -0.942082 9.89085)
(-2.59654e-15 -0.946582 11.1934)
(-2.71312e-15 -0.945924 12.4894)
(-2.2293e-15 -0.944082 13.7739)
(-1.11435e-15 -0.944479 15.0472)
(8.1515e-17 -0.949154 16.3131)
(5.90585e-16 -0.958122 17.577)
(1.52671e-15 -0.968987 18.8428)
(2.76944e-15 -0.977192 20.1096)
(4.18624e-15 -0.976776 21.3694)
(4.98382e-15 -0.961646 22.6071)
(6.48766e-15 -0.927548 23.8014)
(8.06308e-15 -0.872982 24.9264)
(1.0044e-14 -0.799219 25.9545)
(1.16881e-14 -0.708623 26.8664)
(1.52855e-14 -0.589262 27.6532)
(1.70059e-14 -0.403134 28.3039)
(1.68871e-14 -0.112086 28.7881)
(1.50979e-14 0.294331 28.9884)
(1.2786e-14 0.746905 28.6799)
(1.00679e-14 1.11175 27.7865)
(7.7666e-15 1.32402 26.4583)
(6.59857e-15 1.40178 24.9107)
(5.25352e-15 1.39147 23.3082)
(4.58828e-15 1.33361 21.7474)
(5.24324e-15 1.25467 20.2754)
(5.95437e-15 1.16939 18.9105)
(6.78316e-15 1.08495 17.6563)
(7.57287e-15 1.00426 16.5093)
(8.22641e-15 0.92799 15.4638)
(8.71697e-15 0.855762 14.5136)
(9.00389e-15 0.786803 13.6528)
(9.25176e-15 0.720316 12.8765)
(8.61121e-15 0.655656 12.1799)
(8.13551e-15 0.592394 11.559)
(8.02486e-15 0.530316 11.0098)
(7.73765e-15 0.469396 10.5285)
(7.3185e-15 0.409763 10.1113)
(6.70127e-15 0.35169 9.75429)
(6.31337e-15 0.29553 9.45337)
(4.55411e-15 0.241669 9.20436)
(3.30147e-15 0.190274 9.00327)
(2.76764e-15 0.141179 8.84673)
(8.73698e-16 0.093479 8.73266)
(-4.71453e-16 0.0448149 8.66105)
(-1.60331e-15 -0.00495054 8.6299)
(-2.80829e-15 -0.0558761 8.65281)
(-4.71005e-15 -0.103957 8.70335)
(-6.53738e-15 -0.161805 8.84982)
(-9.23501e-15 -0.190545 8.92912)
(-8.80027e-15 -0.289385 9.29368)
(3.92467e-16 0.251627 26.4938)
(-1.09349e-15 0.299124 25.4237)
(-2.06191e-15 0.339093 24.3107)
(-2.54678e-15 0.388324 23.1796)
(-2.5512e-15 0.438374 21.953)
(-2.82314e-15 0.483104 20.6226)
(-1.95668e-15 0.514874 19.2269)
(-1.19001e-15 0.528405 17.8163)
(-6.71716e-16 0.527091 16.4423)
(-3.11857e-16 0.517687 15.1396)
(-2.8585e-17 0.506632 13.9202)
(2.2606e-16 0.496997 12.78)
(1.10658e-16 0.487062 11.7122)
(1.51302e-15 0.473687 10.7177)
(1.76291e-15 0.454629 9.80572)
(1.34403e-15 0.429909 8.98644)
(6.15544e-16 0.401861 8.26313)
(2.38185e-15 0.372546 7.62913)
(9.68077e-16 0.341645 7.07326)
(5.80322e-16 0.308494 6.58688)
(-6.88002e-16 0.275412 6.16019)
(3.53568e-15 0.247861 5.77104)
(3.60927e-15 0.232078 5.38267)
(3.41519e-15 0.233159 4.95334)
(2.9677e-15 0.253538 4.45612)
(-1.10437e-15 0.294979 3.87317)
(-1.29996e-14 0.367452 3.20009)
(-2.81556e-14 0.485308 2.411)
(-4.03227e-14 0.700193 1.55416)
(-5.89448e-14 0.843527 0.0366574)
(-2.00395e-14 0.641594 -1.04884)
(-2.96153e-14 0.353817 -1.4914)
(-2.90947e-14 0.217589 -1.88985)
(-2.10231e-14 0.103673 -2.09616)
(-1.9914e-14 0.00385559 -2.15005)
(-1.3204e-14 -0.0842321 -2.07199)
(-3.02795e-14 -0.161609 -1.87315)
(-3.76946e-15 -0.251994 -1.56922)
(1.02486e-15 -0.369933 -1.18296)
(-2.32993e-14 -0.506073 -0.72865)
(-2.58317e-14 -0.631955 -0.186138)
(-1.41139e-14 -0.737144 0.48701)
(-2.41002e-14 -0.835522 1.26665)
(-2.72675e-14 -0.929308 2.1297)
(-2.10038e-14 -1.01692 3.07194)
(-1.49879e-14 -1.09529 4.08675)
(-7.84341e-15 -1.16127 5.16366)
(-2.62534e-15 -1.21262 6.28938)
(-1.09575e-15 -1.24863 7.44927)
(-3.97419e-15 -1.27027 8.62891)
(-2.20718e-15 -1.28043 9.81571)
(-3.19694e-15 -1.28362 11.0008)
(-1.07477e-15 -1.28507 12.1803)
(1.00936e-15 -1.28932 13.355)
(1.02769e-15 -1.29905 14.5288)
(7.6877e-16 -1.31426 15.7064)
(1.45485e-16 -1.33166 16.8906)
(-1.55947e-16 -1.34507 18.0793)
(1.46992e-16 -1.34647 19.264)
(-1.96359e-16 -1.32767 20.4296)
(1.29094e-15 -1.28286 21.5563)
(2.08193e-15 -1.20947 22.6202)
(4.10918e-15 -1.10858 23.5949)
(6.44335e-15 -0.985507 24.4601)
(9.46097e-15 -0.832155 25.2068)
(1.13602e-14 -0.608133 25.8308)
(1.404e-14 -0.261253 26.3339)
(1.67384e-14 0.251796 26.6574)
(1.56442e-14 0.877284 26.571)
(1.29594e-14 1.41467 25.9198)
(8.00574e-15 1.74526 24.8077)
(5.99155e-15 1.88113 23.4406)
(3.70335e-15 1.88523 21.986)
(4.04772e-15 1.81603 20.5464)
(4.56357e-15 1.71268 19.1753)
(4.67909e-15 1.59743 17.8968)
(5.49598e-15 1.48144 16.7189)
(6.06507e-15 1.36949 15.6418)
(7.09153e-15 1.26301 14.6621)
(7.96857e-15 1.16186 13.7749)
(8.63753e-15 1.06524 12.9752)
(9.0881e-15 0.972306 12.2578)
(9.43634e-15 0.882347 11.6175)
(8.95274e-15 0.794905 11.0495)
(8.51279e-15 0.709761 10.5489)
(8.15645e-15 0.626909 10.1108)
(8.81126e-15 0.546526 9.73073)
(8.92428e-15 0.468945 9.40385)
(9.04708e-15 0.394553 9.1256)
(7.91346e-15 0.32369 8.89169)
(8.15169e-15 0.256288 8.69853)
(6.99819e-15 0.191741 8.54372)
(4.03443e-15 0.128634 8.42676)
(1.86936e-15 0.06357 8.34917)
(-9.8079e-17 -0.00405706 8.30998)
(-1.0176e-15 -0.0742912 8.32593)
(-3.09217e-15 -0.142047 8.3692)
(-4.7769e-15 -0.223306 8.51712)
(-5.95949e-15 -0.261667 8.58043)
(-2.17268e-15 -0.410836 8.97172)
(3.23308e-16 0.329654 26.1523)
(-1.1655e-16 0.38497 24.9943)
(-5.7529e-16 0.434281 23.8123)
(-1.33948e-15 0.496392 22.6346)
(-1.33328e-15 0.560623 21.378)
(-8.07682e-16 0.618542 20.0263)
(-1.254e-15 0.659398 18.6127)
(-1.0543e-15 0.675869 17.1884)
(-8.0314e-16 0.67228 15.8092)
(-5.55167e-16 0.657551 14.5147)
(-6.5147e-16 0.640358 13.3199)
(8.15056e-16 0.624905 12.221)
(6.1149e-16 0.609029 11.2103)
(2.01422e-15 0.588683 10.2876)
(3.78088e-15 0.561093 9.46044)
(2.60437e-15 0.526708 8.73571)
(2.37608e-15 0.489128 8.11093)
(3.33938e-15 0.451401 7.57214)
(3.71098e-15 0.413223 7.10146)
(4.16735e-15 0.37401 6.68424)
(3.57105e-15 0.337485 6.30299)
(6.17945e-15 0.311344 5.92537)
(5.00889e-15 0.303133 5.50601)
(3.79245e-15 0.316681 5.00613)
(2.33895e-15 0.35199 4.41555)
(1.33705e-15 0.410578 3.72612)
(-1.34938e-14 0.495626 2.9803)
(-2.88029e-14 0.637158 2.21458)
(-4.81965e-14 0.918607 1.16812)
(-4.65793e-14 1.07053 -0.441473)
(-1.30453e-14 0.765373 -1.16133)
(-1.87475e-14 0.435007 -1.60599)
(-1.13344e-14 0.271709 -1.96978)
(-1.01179e-14 0.127855 -2.16924)
(-2.17095e-14 0.000121898 -2.21032)
(-1.2088e-14 -0.113017 -2.13059)
(-1.41252e-14 -0.211654 -1.93693)
(-1.18739e-14 -0.320781 -1.65163)
(-1.11809e-14 -0.455495 -1.2989)
(-1.21796e-14 -0.611238 -0.896932)
(-3.13807e-14 -0.762129 -0.431504)
(-2.35202e-14 -0.895974 0.138948)
(-3.01799e-14 -1.01948 0.821943)
(-2.36663e-14 -1.13631 1.58991)
(-1.57305e-14 -1.24618 2.43494)
(-1.03408e-14 -1.34533 3.3511)
(-7.347e-15 -1.42974 4.3293)
(-5.0146e-15 -1.49654 5.35757)
(-2.78654e-15 -1.54465 6.42228)
(-2.11576e-15 -1.57517 7.50955)
(5.27422e-16 -1.59152 8.60694)
(9.34104e-16 -1.59928 9.70551)
(1.56422e-15 -1.60491 10.8014)
(1.20806e-15 -1.61394 11.8953)
(2.2976e-16 -1.62955 12.9906)
(1.85097e-17 -1.65157 14.091)
(-7.15578e-17 -1.67578 15.1985)
(-1.73511e-16 -1.69447 16.3104)
(6.61223e-16 -1.69781 17.418)
(1.13456e-15 -1.67583 18.5072)
(3.76854e-15 -1.62144 19.5594)
(3.88918e-15 -1.53123 20.5529)
(4.83093e-15 -1.40578 21.4628)
(5.90212e-15 -1.25337 22.2689)
(6.68963e-15 -1.06989 22.9627)
(1.21941e-14 -0.814626 23.5398)
(1.60532e-14 -0.427528 24.0186)
(2.05532e-14 0.163271 24.3948)
(1.9492e-14 0.942144 24.4579)
(1.64521e-14 1.64744 23.9901)
(1.24943e-14 2.09949 23.0585)
(8.85865e-15 2.29975 21.8603)
(4.95505e-15 2.3255 20.559)
(3.93658e-15 2.2519 19.2552)
(4.42519e-15 2.13011 18.0032)
(5.2881e-15 1.98962 16.8292)
(5.65694e-15 1.84561 15.7443)
(5.62152e-15 1.70496 14.7513)
(6.31431e-15 1.57016 13.8491)
(7.4301e-15 1.44155 13.034)
(8.61341e-15 1.31863 12.3016)
(8.16373e-15 1.20066 11.6466)
(8.2382e-15 1.08703 11.0636)
(8.16802e-15 0.977305 10.5469)
(7.00014e-15 0.871291 10.0911)
(6.56484e-15 0.768981 9.69089)
(6.78532e-15 0.67056 9.34105)
(7.16626e-15 0.576342 9.03664)
(7.10335e-15 0.486609 8.77314)
(8.11723e-15 0.401467 8.54678)
(8.07483e-15 0.320381 8.35509)
(7.15854e-15 0.242123 8.19728)
(4.68125e-15 0.164667 8.0747)
(2.75958e-15 0.0836087 7.99099)
(1.00016e-15 -0.00214096 7.94591)
(-1.13419e-15 -0.0924507 7.95951)
(-2.70546e-15 -0.181218 8.00103)
(-3.35034e-15 -0.285094 8.15544)
(-2.20668e-15 -0.336541 8.20397)
(4.23597e-15 -0.54691 8.65824)
(2.46803e-16 0.434438 25.7047)
(-6.07519e-16 0.490403 24.4568)
(8.60263e-17 0.541749 23.1988)
(-1.28693e-15 0.609578 21.9719)
(-1.5181e-15 0.683071 20.6951)
(-1.31507e-15 0.752006 19.3444)
(-1.40191e-15 0.801449 17.941)
(-9.13122e-16 0.820665 16.5297)
(-3.87783e-16 0.814104 15.168)
(-4.77178e-16 0.7927 13.901)
(-6.45501e-16 0.767645 12.7479)
(6.88654e-16 0.744578 11.7066)
(1.22281e-15 0.72104 10.7685)
(2.0598e-15 0.692195 9.93156)
(3.30655e-15 0.654911 9.20009)
(4.02963e-15 0.610371 8.57542)
(4.925e-15 0.563703 8.04736)
(3.50414e-15 0.518956 7.59407)
(3.40179e-15 0.475748 7.19149)
(6.27454e-15 0.433718 6.81936)
(9.71159e-15 0.398339 6.45216)
(8.90143e-15 0.379515 6.04769)
(9.75242e-15 0.384749 5.55779)
(1.13995e-14 0.414519 4.95841)
(1.14148e-15 0.466904 4.25508)
(7.23705e-16 0.536671 3.4636)
(-1.06904e-14 0.62384 2.71843)
(-3.1081e-14 0.808508 1.88663)
(-4.81258e-14 1.16868 0.403689)
(-3.10168e-14 1.24965 -0.913634)
(-1.37286e-14 0.854129 -1.31538)
(-1.87016e-14 0.510976 -1.76048)
(-5.28785e-15 0.320543 -2.0875)
(-2.54437e-15 0.149714 -2.27635)
(1.6497e-15 -0.00462455 -2.30535)
(-1.19343e-14 -0.141835 -2.2234)
(-1.69621e-14 -0.260929 -2.03324)
(-1.08422e-14 -0.387008 -1.76166)
(-1.01401e-14 -0.53465 -1.43281)
(-1.52071e-14 -0.703663 -1.06589)
(-3.2157e-14 -0.875087 -0.658179)
(-1.89575e-14 -1.03486 -0.17699)
(-2.49644e-14 -1.18326 0.409512)
(-1.92074e-14 -1.32327 1.08889)
(-1.07688e-14 -1.45505 1.84508)
(-6.36788e-15 -1.57489 2.67213)
(-3.54256e-15 -1.67798 3.56229)
(2.45344e-17 -1.76071 4.50506)
(2.67495e-15 -1.82157 5.48773)
(6.24389e-15 -1.86154 6.49657)
(7.27551e-15 -1.88454 7.51864)
(7.77772e-15 -1.89717 8.54423)
(6.14566e-15 -1.90718 9.5688)
(4.42864e-15 -1.92103 10.5924)
(3.78732e-15 -1.94239 11.6174)
(4.09181e-15 -1.97095 12.6467)
(5.28655e-15 -2.00163 13.682)
(6.65949e-15 -2.02533 14.7211)
(8.23142e-15 -2.03056 15.7566)
(9.52415e-15 -2.00561 16.7758)
(1.08114e-14 -1.94223 17.7614)
(1.03119e-14 -1.83623 18.693)
(1.12287e-14 -1.68709 19.5454)
(1.14355e-14 -1.50585 20.298)
(1.24889e-14 -1.29295 20.942)
(1.37898e-14 -1.01045 21.4679)
(1.4826e-14 -0.597521 21.8988)
(1.8695e-14 0.0429919 22.2749)
(1.97758e-14 0.954691 22.4266)
(1.93303e-14 1.82196 22.0904)
(1.45205e-14 2.39487 21.3024)
(1.07084e-14 2.66109 20.2531)
(7.32669e-15 2.71188 19.0993)
(5.54149e-15 2.63846 17.9345)
(4.02374e-15 2.50308 16.8094)
(4.35618e-15 2.34183 15.7496)
(4.75662e-15 2.1736 14.7672)
(4.93665e-15 2.00739 13.8668)
(5.7219e-15 1.84687 13.0484)
(6.37402e-15 1.69314 12.3095)
(6.99471e-15 1.54614 11.6458)
(7.69405e-15 1.40544 11.0522)
(8.34245e-15 1.27055 10.523)
(9.58865e-15 1.14112 10.0524)
(9.21154e-15 1.01695 9.63484)
(6.74598e-15 0.898015 9.26483)
(5.77628e-15 0.78445 8.93724)
(5.7524e-15 0.676441 8.6474)
(5.60785e-15 0.574014 8.39147)
(5.08333e-15 0.476839 8.16682)
(5.61231e-15 0.383717 7.97269)
(5.0993e-15 0.292707 7.8102)
(3.50534e-15 0.201127 7.68256)
(1.93502e-15 0.103635 7.59565)
(1.0922e-15 -0.00127464 7.5497)
(-2.30666e-16 -0.112818 7.56759)
(-1.37129e-15 -0.223193 7.61245)
(8.85355e-16 -0.349053 7.77582)
(7.27367e-15 -0.423659 7.82258)
(1.19292e-14 -0.707447 8.37783)
(1.54102e-16 0.524872 25.3169)
(4.1547e-16 0.588629 24.0208)
(-6.7094e-16 0.647182 22.6951)
(-1.87477e-15 0.722306 21.3925)
(-1.86234e-15 0.803891 20.0518)
(-1.00469e-15 0.881897 18.6655)
(-7.47021e-16 0.938591 17.257)
(-6.5904e-16 0.959915 15.8641)
(-4.03901e-16 0.949863 14.5378)
(-6.81505e-16 0.920901 13.3203)
(7.84168e-17 0.88676 12.2309)
(5.11174e-16 0.854727 11.2665)
(9.03211e-16 0.822235 10.4165)
(1.35212e-15 0.783875 9.67589)
(2.64076e-15 0.736439 9.04404)
(1.94767e-15 0.682144 8.515)
(2.03177e-15 0.627781 8.07045)
(4.24127e-15 0.578252 7.68198)
(4.36687e-15 0.532994 7.32119)
(7.92307e-15 0.492132 6.96253)
(7.86317e-15 0.46321 6.57157)
(6.90077e-15 0.457675 6.09906)
(1.1385e-14 0.480747 5.50534)
(1.11702e-14 0.528986 4.78703)
(5.12981e-15 0.596342 3.96363)
(2.51516e-15 0.664063 3.12551)
(-1.49567e-14 0.7641 2.3943)
(-3.92684e-14 1.02999 1.16491)
(-3.4832e-14 1.41025 -0.515611)
(-2.52228e-14 1.35949 -1.27489)
(-2.16315e-14 0.918899 -1.5201)
(-2.10208e-14 0.580579 -1.94095)
(-1.43745e-14 0.364021 -2.23481)
(-1.47371e-14 0.168233 -2.4084)
(-1.32969e-14 -0.0115433 -2.42481)
(-1.17763e-14 -0.171529 -2.33971)
(-1.63897e-14 -0.309896 -2.15212)
(-1.14404e-14 -0.451555 -1.89157)
(-1.06042e-14 -0.609934 -1.5813)
(-1.39441e-14 -0.78714 -1.24005)
(-2.42588e-14 -0.972616 -0.870749)
(-1.12606e-14 -1.1534 -0.454386)
(-2.73896e-14 -1.32661 0.0432052)
(-8.12647e-15 -1.49072 0.63671)
(-6.20129e-15 -1.64436 1.30857)
(-1.84254e-15 -1.78488 2.0509)
(1.98084e-15 -1.90702 2.85702)
(6.11278e-15 -2.00639 3.71802)
(9.84704e-15 -2.08084 4.62241)
(1.37535e-14 -2.13108 5.55687)
(1.32501e-14 -2.16134 6.50811)
(1.34289e-14 -2.17928 7.46569)
(1.17111e-14 -2.19388 8.42418)
(1.1292e-14 -2.21252 9.38227)
(1.25909e-14 -2.23935 10.3406)
(1.40314e-14 -2.27408 11.3011)
(1.53193e-14 -2.311 12.2653)
(1.6285e-14 -2.33992 13.233)
(1.73456e-14 -2.3478 14.1997)
(1.75432e-14 -2.321 15.1552)
(1.8022e-14 -2.24996 16.084)
(1.89645e-14 -2.12965 16.9665)
(2.08621e-14 -1.9579 17.7761)
(2.04915e-14 -1.74866 18.4906)
(2.26204e-14 -1.50588 19.1006)
(2.09441e-14 -1.19447 19.5876)
(1.93643e-14 -0.759308 19.968)
(2.01276e-14 -0.084852 20.3154)
(1.73974e-14 0.937315 20.5064)
(1.76402e-14 1.95488 20.2567)
(1.25657e-14 2.64195 19.5803)
(9.33532e-15 2.9707 18.6616)
(5.96808e-15 3.0464 17.647)
(4.37549e-15 2.97554 16.6196)
(3.00319e-15 2.83026 15.6235)
(2.71916e-15 2.65227 14.6817)
(2.95213e-15 2.46369 13.8058)
(4.14967e-15 2.27544 13.0009)
(5.15335e-15 2.09247 12.2678)
(5.71146e-15 1.91671 11.6043)
(6.58086e-15 1.74865 11.0067)
(7.13696e-15 1.5882 10.47)
(7.19092e-15 1.43506 9.98864)
(9.3776e-15 1.28891 9.55723)
(1.0445e-14 1.14955 9.17038)
(1.00021e-14 1.0169 8.82303)
(9.63968e-15 0.890969 8.51052)
(8.84901e-15 0.7717 8.22898)
(9.18097e-15 0.658692 7.97577)
(8.75332e-15 0.551002 7.74987)
(8.98483e-15 0.446629 7.55255)
(8.68382e-15 0.342961 7.38685)
(6.10147e-15 0.236684 7.25748)
(4.06494e-15 0.121477 7.17242)
(1.51288e-15 -0.00426667 7.13254)
(1.66975e-15 -0.137758 7.16113)
(4.77142e-15 -0.269208 7.21157)
(1.12039e-14 -0.419849 7.38897)
(1.62402e-14 -0.534801 7.46498)
(1.41477e-14 -0.899188 8.14457)
(-1.30159e-15 0.620949 24.8883)
(-1.24902e-15 0.695652 23.5672)
(-1.54738e-15 0.761407 22.2068)
(-1.70771e-15 0.843364 20.8598)
(-2.04702e-15 0.931275 19.469)
(-1.43198e-15 1.01488 18.0414)
(-7.66902e-16 1.07475 16.6157)
(-5.95289e-16 1.09476 15.2367)
(-5.0098e-16 1.07883 13.9531)
(-7.12917e-16 1.04066 12.8011)
(-6.23818e-16 0.996214 11.7938)
(-5.56844e-16 0.954296 10.9225)
(-3.60108e-16 0.912219 10.1713)
(8.3316e-17 0.864165 9.53003)
(6.57075e-16 0.807101 8.99132)
(2.98028e-15 0.744453 8.54166)
(2.7167e-15 0.684589 8.15654)
(3.16839e-15 0.63305 7.80433)
(3.94185e-15 0.589162 7.45408)
(5.5168e-15 0.553998 7.07368)
(6.67123e-15 0.537144 6.61945)
(5.81643e-15 0.549842 6.04322)
(7.89321e-15 0.593237 5.32497)
(1.39651e-14 0.659996 4.47825)
(9.72607e-15 0.731766 3.56419)
(3.0198e-15 0.794517 2.7527)
(-2.84191e-14 0.946264 1.81761)
(-3.4589e-14 1.29949 0.032511)
(-2.48817e-14 1.57947 -1.25499)
(-2.53498e-14 1.41154 -1.55404)
(-2.80768e-14 0.971811 -1.76336)
(-2.64873e-14 0.641851 -2.13943)
(-2.38282e-14 0.401951 -2.40091)
(-2.42503e-14 0.182923 -2.55354)
(-2.13919e-14 -0.020853 -2.5557)
(-1.63146e-14 -0.202124 -2.4664)
(-1.71509e-14 -0.358337 -2.28144)
(-1.15666e-14 -0.514281 -2.03114)
(-1.03613e-14 -0.682512 -1.73666)
(-1.24218e-14 -0.866085 -1.41477)
(-1.89223e-14 -1.06021 -1.07101)
(-1.24718e-14 -1.2578 -0.697832)
(-2.42883e-14 -1.45213 -0.271155)
(-2.80014e-15 -1.6387 0.2366)
(-5.79892e-15 -1.81444 0.826393)
(1.95259e-15 -1.97556 1.4865)
(6.5294e-15 -2.11697 2.21036)
(8.13424e-15 -2.23361 2.99078)
(1.12636e-14 -2.32256 3.81791)
(1.24263e-14 -2.38405 4.67952)
(1.12533e-14 -2.42247 5.56254)
(1.34288e-14 -2.44635 6.45587)
(1.50698e-14 -2.46582 7.35261)
(1.69923e-14 -2.48898 8.24892)
(1.86869e-14 -2.52052 9.14254)
(1.90837e-14 -2.56056 10.0338)
(1.85499e-14 -2.60329 10.9253)
(1.81276e-14 -2.63786 11.8195)
(1.78466e-14 -2.64988 12.7162)
(1.69959e-14 -2.62347 13.6095)
(1.80418e-14 -2.54727 14.4864)
(2.00344e-14 -2.41519 15.3287)
(2.23512e-14 -2.22233 16.1081)
(2.50309e-14 -1.98606 16.7996)
(2.93881e-14 -1.71307 17.3938)
(3.26726e-14 -1.36942 17.8604)
(3.58671e-14 -0.911556 18.1995)
(3.52372e-14 -0.21285 18.5061)
(2.71795e-14 0.902363 18.701)
(2.03789e-14 2.05761 18.5002)
(1.28633e-14 2.84859 17.9091)
(9.13217e-15 3.23317 17.1059)
(6.03361e-15 3.33137 16.223)
(4.05062e-15 3.26405 15.3296)
(2.95827e-15 3.11179 14.4612)
(2.62521e-15 2.92081 13.6368)
(2.54957e-15 2.71581 12.8667)
(3.42555e-15 2.5094 12.1559)
(4.65289e-15 2.30773 11.5052)
(5.49062e-15 2.11356 10.9132)
(6.42661e-15 1.92795 10.3762)
(6.01947e-15 1.75113 9.88996)
(6.67307e-15 1.58295 9.44967)
(7.77199e-15 1.42315 9.05049)
(9.32372e-15 1.2715 8.6877)
(1.0549e-14 1.12783 8.35691)
(1.12042e-14 0.991959 8.05433)
(1.14344e-14 0.863433 7.77728)
(1.11611e-14 0.741276 7.52476)
(1.21615e-14 0.623803 7.29761)
(1.24688e-14 0.508178 7.09923)
(1.08369e-14 0.391289 6.93416)
(8.88706e-15 0.269212 6.80819)
(8.18316e-15 0.134413 6.73126)
(7.84481e-15 -0.013671 6.70492)
(8.39654e-15 -0.168288 6.74748)
(1.31354e-14 -0.320999 6.80441)
(1.70694e-14 -0.506754 7.01282)
(1.81495e-14 -0.681744 7.16036)
(1.17923e-14 -1.12201 7.95628)
(-2.10481e-15 0.716025 24.4229)
(-2.87004e-15 0.804525 23.0864)
(-3.56391e-15 0.877745 21.7035)
(-4.37681e-15 0.96636 20.3325)
(-3.41037e-15 1.0608 18.9171)
(-2.27656e-15 1.14946 17.4686)
(-1.63205e-15 1.21035 16.0363)
(-8.42816e-16 1.22588 14.6767)
(-7.36378e-16 1.20104 13.4428)
(-2.5478e-17 1.15137 12.3665)
(-2.69459e-16 1.09526 11.4523)
(-8.0104e-16 1.04291 10.6817)
(-1.14247e-15 0.99136 10.03)
(-1.22709e-15 0.934417 9.4796)
(-1.21483e-15 0.869277 9.0156)
(-4.41428e-16 0.800468 8.61887)
(2.83342e-16 0.737675 8.26307)
(-3.38824e-16 0.687002 7.91698)
(-2.13938e-15 0.64814 7.54645)
(2.03996e-15 0.623572 7.10973)
(4.97465e-15 0.623948 6.55741)
(4.75109e-15 0.657991 5.85451)
(9.97231e-15 0.72255 5.00303)
(6.59387e-15 0.801934 4.04045)
(1.31012e-14 0.865911 3.11388)
(4.75404e-15 0.94991 2.27062)
(-3.30559e-14 1.19629 0.758268)
(-2.6939e-14 1.53849 -1.04627)
(-2.19444e-14 1.66531 -1.72674)
(-3.09001e-14 1.43364 -1.81372)
(-4.20182e-14 1.01839 -2.02451)
(-3.81818e-14 0.693613 -2.34715)
(-4.30169e-14 0.433705 -2.57223)
(-3.63149e-14 0.193207 -2.69781)
(-2.45857e-14 -0.0329007 -2.6839)
(-2.10009e-14 -0.233491 -2.58917)
(-2.01976e-14 -0.405882 -2.40772)
(-1.17367e-14 -0.574732 -2.16869)
(-1.0127e-14 -0.752259 -1.89054)
(-1.104e-14 -0.941853 -1.5875)
(-1.48612e-14 -1.14163 -1.26515)
(-8.25309e-15 -1.34961 -0.920658)
(-1.82786e-14 -1.56073 -0.543473)
(6.93306e-16 -1.76807 -0.110889)
(-7.36001e-15 -1.96532 0.39725)
(4.67977e-15 -2.14697 0.976749)
(7.64863e-15 -2.30773 1.61941)
(8.92497e-15 -2.4422 2.31957)
(9.04836e-15 -2.54666 3.06942)
(8.5137e-15 -2.62068 3.85852)
(1.08648e-14 -2.6685 4.67468)
(1.13256e-14 -2.69924 5.50617)
(1.33221e-14 -2.72379 6.3438)
(1.39928e-14 -2.75081 7.18021)
(1.37545e-14 -2.78576 8.00988)
(1.1942e-14 -2.82976 8.83192)
(9.91403e-15 -2.87756 9.64981)
(8.36419e-15 -2.91823 10.4685)
(7.83874e-15 -2.93629 11.2928)
(8.11771e-15 -2.9133 12.1217)
(9.49831e-15 -2.83556 12.9461)
(1.14402e-14 -2.69574 13.7513)
(1.29477e-14 -2.48459 14.5075)
(1.66799e-14 -2.22366 15.1875)
(2.33409e-14 -1.92098 15.783)
(3.1218e-14 -1.54024 16.2491)
(3.86316e-14 -1.05417 16.5619)
(4.39446e-14 -0.3352 16.8269)
(3.53458e-14 0.861128 17.0019)
(2.40446e-14 2.14008 16.8196)
(1.35626e-14 3.02112 16.2931)
(8.82347e-15 3.4522 15.5944)
(5.71833e-15 3.56906 14.8367)
(4.75725e-15 3.50552 14.0727)
(4.37652e-15 3.34885 13.3281)
(2.98947e-15 3.14852 12.6174)
(2.15025e-15 2.93113 11.949)
(3.04419e-15 2.71068 11.3274)
(3.98311e-15 2.49435 10.7538)
(5.27278e-15 2.28566 10.2268)
(5.81499e-15 2.08619 9.74402)
(5.47957e-15 1.89642 9.30181)
(5.84983e-15 1.71637 8.89637)
(7.03628e-15 1.54582 8.52373)
(7.7378e-15 1.38454 8.17999)
(7.752e-15 1.23223 7.86167)
(8.29157e-15 1.08838 7.56617)
(9.06023e-15 0.952004 7.29234)
(9.47262e-15 0.821439 7.04109)
(9.94226e-15 0.6942 6.81519)
(1.06304e-14 0.56671 6.61998)
(9.48954e-15 0.435626 6.46081)
(7.45034e-15 0.296297 6.34416)
(6.81362e-15 0.139702 6.28216)
(6.49645e-15 -0.0310255 6.2751)
(9.74868e-15 -0.204803 6.33007)
(1.50108e-14 -0.384011 6.40085)
(1.76604e-14 -0.623045 6.6737)
(1.59207e-14 -0.869694 6.924)
(7.98474e-15 -1.36698 7.79519)
(1.39492e-16 0.797702 23.9252)
(-1.45335e-16 0.902263 22.5853)
(-7.295e-16 0.988487 21.1933)
(-1.69826e-15 1.08752 19.8127)
(-1.62649e-15 1.19021 18.3907)
(-1.91415e-15 1.28404 16.9418)
(-1.34458e-15 1.34454 15.5208)
(-8.82917e-16 1.35301 14.193)
(-5.77899e-16 1.31638 13.017)
(-3.08195e-16 1.2529 12.0218)
(3.94873e-16 1.18392 11.2025)
(1.4537e-15 1.12103 10.5286)
(1.05525e-15 1.06084 9.96518)
(2.19794e-15 0.996687 9.48575)
(1.99613e-15 0.925733 9.06944)
(1.5363e-15 0.853224 8.69568)
(1.8131e-15 0.789926 8.3412)
(-7.32866e-16 0.742904 7.97597)
(-7.14781e-16 0.713032 7.55807)
(-5.79055e-16 0.704047 7.0344)
(2.33217e-15 0.725572 6.35923)
(3.82946e-15 0.782359 5.51974)
(6.53977e-15 0.865585 4.54121)
(7.22216e-15 0.944691 3.52241)
(1.20493e-14 1.00812 2.63293)
(-2.65285e-15 1.15903 1.44908)
(-3.12196e-14 1.46998 -0.505949)