/*--------------------------------*- C++ -*----------------------------------*\
| =========                 |                                                 |
| \\      /  F ield         | OpenFOAM: The Open Source CFD Toolbox           |
|  \\    /   O peration     | Version:  4.1                                   |
|   \\  /    A nd           | Web:      www.OpenFOAM.org                      |
|    \\/     M anipulation  |                                                 |
\*---------------------------------------------------------------------------*/
FoamFile
{
    version     2.0;
    format      ascii;
    class       volScalarField;
    location    "200";
    object      k;
}
// * * * * * * * * * * * * * * * * * * * * * * * * * * * * * * * * * * * * * //

dimensions      [0 2 -2 0 0 0 0];

internalField   nonuniform List<scalar> 
6820
(
0.257081
0.43421
0.598531
0.709407
0.778201
0.818155
0.838727
0.846174
0.844776
0.837525
0.82652
0.813226
0.79867
0.783564
0.768396
0.753494
0.739074
0.725272
0.712169
0.69981
0.688213
0.677377
0.667293
0.657944
0.64931
0.641373
0.634112
0.627513
0.621552
0.616299
0.611174
0.608685
0.597176
0.811261
1.44605
1.5186
1.38782
1.22321
1.07766
0.959322
0.864708
0.7888
0.727316
0.676984
0.635362
0.60063
0.571409
0.546645
0.525522
0.507396
0.491758
0.478197
0.46638
0.456032
0.446928
0.438875
0.431713
0.425303
0.419525
0.41427
0.409447
0.404963
0.400782
0.396817
0.393136
0.389117
0.368877
0.66418
0.797432
0.829354
0.816501
0.78616
0.750255
0.713813
0.678851
0.64611
0.615799
0.587907
0.562329
0.53892
0.517517
0.497957
0.48008
0.463739
0.448792
0.435112
0.422583
0.411098
0.40056
0.390883
0.381986
0.373799
0.366257
0.359299
0.35287
0.346927
0.341391
0.336207
0.331277
0.240027
0.33628
0.412145
0.460166
0.487006
0.499866
0.503842
0.502265
0.497242
0.490085
0.48163
0.472423
0.462834
0.453116
0.443444
0.433936
0.424674
0.415713
0.407085
0.398811
0.390899
0.383351
0.376163
0.369328
0.362837
0.356676
0.350835
0.345298
0.340054
0.335079
0.330353
0.325857
0.321571
0.214143
0.250634
0.284514
0.312034
0.332879
0.347929
0.358336
0.365172
0.369311
0.371416
0.371981
0.371378
0.369888
0.367729
0.365067
0.362034
0.358733
0.355245
0.351634
0.347952
0.344238
0.340524
0.336837
0.333194
0.329612
0.326103
0.322675
0.319333
0.316085
0.312934
0.309881
0.306925
0.304066
0.205638
0.221923
0.238591
0.25362
0.266387
0.276834
0.285182
0.291735
0.29679
0.300606
0.303399
0.305348
0.306598
0.307272
0.307469
0.307273
0.306752
0.305965
0.30496
0.303778
0.302454
0.301017
0.299491
0.297897
0.296254
0.294576
0.292877
0.291169
0.289462
0.287765
0.286085
0.284428
0.282799
0.202356
0.210365
0.219379
0.228069
0.235909
0.242726
0.248536
0.253432
0.257521
0.260908
0.263683
0.26593
0.26772
0.269114
0.270167
0.270925
0.271427
0.271709
0.271801
0.271729
0.271517
0.271184
0.270749
0.270228
0.269634
0.26898
0.268278
0.267538
0.26677
0.265983
0.265185
0.264381
0.263579
0.201007
0.205088
0.210207
0.215491
0.220495
0.225027
0.22904
0.232556
0.235615
0.238261
0.240539
0.242487
0.244143
0.245538
0.246704
0.247665
0.248444
0.249063
0.24954
0.24989
0.25013
0.250272
0.250328
0.25031
0.250228
0.250091
0.249908
0.249687
0.249436
0.249164
0.248876
0.248578
0.248276
0.200424
0.202497
0.205437
0.20872
0.211997
0.215081
0.217899
0.220438
0.222707
0.224724
0.226509
0.228083
0.229465
0.230675
0.231728
0.232641
0.233427
0.234099
0.234668
0.235145
0.235541
0.235863
0.236121
0.236321
0.236472
0.236581
0.236654
0.236699
0.236721
0.236727
0.236722
0.23671
0.236695
0.200162
0.201184
0.202844
0.204872
0.207026
0.209143
0.211142
0.212992
0.214682
0.216217
0.217604
0.218853
0.219973
0.220976
0.221871
0.222668
0.223375
0.224002
0.224555
0.225042
0.22547
0.225844
0.226171
0.226457
0.226707
0.226927
0.227122
0.227299
0.227461
0.227614
0.227762
0.227909
0.228056
0.200044
0.200513
0.201413
0.202631
0.204022
0.205461
0.206873
0.208218
0.209478
0.210646
0.21172
0.212704
0.213603
0.214421
0.215164
0.215839
0.21645
0.217003
0.217504
0.217957
0.218368
0.21874
0.219079
0.219389
0.219674
0.21994
0.22019
0.220428
0.22066
0.22089
0.221119
0.221352
0.221589
0.199989
0.200171
0.200625
0.201321
0.202185
0.203136
0.204114
0.205078
0.206007
0.206888
0.207714
0.208484
0.209198
0.209859
0.210469
0.211031
0.211548
0.212025
0.212464
0.21287
0.213245
0.213594
0.213919
0.214226
0.214516
0.214794
0.215064
0.215329
0.215593
0.21586
0.216131
0.216409
0.216694
0.199965
0.2
0.200197
0.200563
0.201068
0.201668
0.202319
0.20299
0.203659
0.20431
0.204935
0.205529
0.20609
0.206617
0.207111
0.207572
0.208004
0.208408
0.208786
0.209141
0.209476
0.209792
0.210094
0.210384
0.210664
0.210939
0.211211
0.211483
0.211758
0.21204
0.21233
0.21263
0.212939
0.199954
0.199915
0.199969
0.200132
0.200399
0.20075
0.20116
0.201605
0.202067
0.202533
0.202992
0.20344
0.203871
0.204283
0.204676
0.205049
0.205404
0.205741
0.206061
0.206367
0.206659
0.206941
0.207215
0.207482
0.207745
0.208008
0.208272
0.20854
0.208816
0.2091
0.209396
0.209703
0.210022
0.199949
0.199874
0.19985
0.199893
0.200008
0.200188
0.200423
0.200697
0.200998
0.201314
0.201638
0.201962
0.202283
0.202596
0.202901
0.203196
0.203481
0.203757
0.204024
0.204282
0.204534
0.204781
0.205024
0.205267
0.205509
0.205755
0.206006
0.206265
0.206533
0.206813
0.207106
0.207412
0.207731
0.199947
0.199854
0.199789
0.199764
0.199785
0.199853
0.199966
0.200114
0.200292
0.200491
0.200704
0.200927
0.201154
0.201382
0.20161
0.201836
0.202059
0.202279
0.202496
0.202711
0.202924
0.203136
0.20335
0.203566
0.203787
0.204013
0.204248
0.204493
0.204749
0.20502
0.205306
0.205606
0.205921
0.199946
0.199846
0.19976
0.199697
0.199662
0.19966
0.19969
0.199751
0.199837
0.199946
0.200072
0.200212
0.200362
0.200519
0.200681
0.200846
0.201014
0.201184
0.201356
0.201529
0.201706
0.201886
0.20207
0.20226
0.202458
0.202664
0.202881
0.20311
0.203353
0.203611
0.203886
0.204177
0.204484
0.199946
0.199842
0.199746
0.199662
0.199597
0.199552
0.19953
0.19953
0.199553
0.199595
0.199655
0.19973
0.199818
0.199915
0.200022
0.200135
0.200255
0.200381
0.200512
0.200649
0.200792
0.200941
0.201098
0.201263
0.201438
0.201624
0.201822
0.202034
0.202262
0.202506
0.202768
0.203048
0.203344
0.199946
0.19984
0.199739
0.199646
0.199563
0.199494
0.199439
0.199402
0.199381
0.199377
0.199388
0.199414
0.199453
0.199504
0.199565
0.199636
0.199715
0.199803
0.199899
0.200003
0.200116
0.200237
0.200368
0.20051
0.200663
0.200829
0.201008
0.201204
0.201416
0.201645
0.201893
0.20216
0.202444
0.199946
0.199839
0.199736
0.199638
0.199546
0.199463
0.19939
0.199329
0.199281
0.199245
0.199223
0.199214
0.199217
0.199232
0.199258
0.199294
0.199341
0.199397
0.199463
0.19954
0.199626
0.199723
0.199831
0.199951
0.200084
0.200231
0.200394
0.200572
0.200768
0.200983
0.201217
0.20147
0.20174
0.199946
0.199839
0.199735
0.199634
0.199538
0.199448
0.199365
0.19929
0.199225
0.19917
0.199125
0.199092
0.19907
0.199058
0.199058
0.199069
0.19909
0.199122
0.199164
0.199217
0.199282
0.199358
0.199447
0.199549
0.199664
0.199794
0.199941
0.200104
0.200285
0.200485
0.200705
0.200944
0.201201
0.199946
0.199839
0.199734
0.199633
0.199535
0.199441
0.199352
0.19927
0.199195
0.199128
0.19907
0.199021
0.198982
0.198954
0.198936
0.198928
0.19893
0.198944
0.198969
0.199005
0.199053
0.199113
0.199186
0.199272
0.199373
0.199489
0.199621
0.199771
0.199939
0.200125
0.200331
0.200557
0.2008
0.199946
0.199839
0.199734
0.199632
0.199533
0.199437
0.199346
0.19926
0.19918
0.199107
0.199042
0.198984
0.198936
0.198897
0.198867
0.198848
0.198839
0.198841
0.198854
0.198878
0.198914
0.198962
0.199024
0.199099
0.199189
0.199294
0.199415
0.199553
0.199709
0.199883
0.200077
0.200289
0.200519
0.199946
0.199839
0.199734
0.199632
0.199532
0.199436
0.199344
0.199257
0.199175
0.1991
0.199031
0.19897
0.198918
0.198874
0.19884
0.198815
0.1988
0.198796
0.198802
0.19882
0.19885
0.198892
0.198947
0.199015
0.199097
0.199194
0.199307
0.199436
0.199582
0.199746
0.199929
0.20013
0.200347
0.199946
0.199839
0.199734
0.199632
0.199533
0.199437
0.199345
0.199259
0.199178
0.199103
0.199035
0.198975
0.198923
0.19888
0.198846
0.198821
0.198806
0.198802
0.198808
0.198825
0.198854
0.198894
0.198947
0.199012
0.199091
0.199184
0.199291
0.199414
0.199554
0.19971
0.199884
0.200074
0.20028
0.199946
0.199839
0.199734
0.199632
0.199534
0.19944
0.19935
0.199266
0.199188
0.199117
0.199054
0.198999
0.198953
0.198915
0.198887
0.198869
0.19886
0.198862
0.198873
0.198895
0.198928
0.198972
0.199027
0.199095
0.199174
0.199267
0.199373
0.199493
0.199628
0.199779
0.199945
0.200127
0.200323
0.199946
0.199839
0.199735
0.199634
0.199537
0.199446
0.19936
0.199282
0.199211
0.199148
0.199095
0.199051
0.199017
0.198992
0.198977
0.198971
0.198975
0.198989
0.199013
0.199046
0.199089
0.199141
0.199204
0.199278
0.199363
0.199458
0.199566
0.199687
0.19982
0.199967
0.200128
0.200303
0.20049
0.199946
0.199839
0.199736
0.199638
0.199545
0.199459
0.199382
0.199315
0.199257
0.199211
0.199175
0.199151
0.199137
0.199133
0.199139
0.199155
0.19918
0.199213
0.199256
0.199306
0.199365
0.199432
0.199508
0.199593
0.199686
0.199789
0.199902
0.200025
0.200159
0.200304
0.200461
0.20063
0.200809
0.199946
0.19984
0.19974
0.199646
0.199562
0.199489
0.199429
0.199382
0.19935
0.199331
0.199326
0.199333
0.199352
0.199382
0.19942
0.199468
0.199523
0.199585
0.199654
0.199729
0.19981
0.199897
0.19999
0.200089
0.200195
0.200307
0.200427
0.200555
0.200691
0.200836
0.20099
0.201153
0.201325
0.199946
0.199843
0.199749
0.199667
0.199601
0.199554
0.199527
0.19952
0.199532
0.199562
0.199607
0.199665
0.199734
0.199812
0.199897
0.199988
0.200084
0.200184
0.200287
0.200393
0.200501
0.200612
0.200726
0.200843
0.200963
0.201087
0.201216
0.201349
0.201487
0.201632
0.201783
0.20194
0.202104
0.199947
0.199851
0.199772
0.199717
0.199693
0.1997
0.199737
0.199803
0.199892
0.200001
0.200124
0.200258
0.2004
0.200545
0.200692
0.20084
0.200988
0.201133
0.201277
0.201419
0.201558
0.201696
0.201832
0.201967
0.202102
0.202237
0.202373
0.20251
0.20265
0.202792
0.202938
0.203088
0.203241
0.19995
0.199871
0.199832
0.199843
0.199908
0.200025
0.200185
0.200379
0.200596
0.200828
0.201068
0.201308
0.201546
0.201778
0.202002
0.202218
0.202424
0.20262
0.202807
0.202985
0.203155
0.203318
0.203475
0.203626
0.203772
0.203914
0.204054
0.204191
0.204328
0.204465
0.204602
0.204741
0.20488
0.199959
0.199932
0.199996
0.200162
0.20042
0.200752
0.201132
0.201539
0.201954
0.202364
0.20276
0.203138
0.203493
0.203825
0.204134
0.20442
0.204685
0.204929
0.205155
0.205365
0.205559
0.20574
0.205909
0.206068
0.206218
0.20636
0.206496
0.206626
0.206753
0.206876
0.206997
0.207117
0.207236
0.199989
0.200116
0.200453
0.200978
0.201636
0.202365
0.203111
0.203841
0.204532
0.205172
0.205758
0.20629
0.206769
0.207199
0.207585
0.207932
0.208242
0.20852
0.20877
0.208995
0.209197
0.209381
0.209547
0.209698
0.209837
0.209964
0.210082
0.210192
0.210295
0.210393
0.210486
0.210577
0.210664
0.200095
0.200705
0.201754
0.203078
0.204503
0.2059
0.207196
0.208359
0.209385
0.210279
0.211053
0.211722
0.212299
0.212797
0.213226
0.213597
0.213917
0.214194
0.214434
0.214641
0.214821
0.214976
0.21511
0.215227
0.215327
0.215415
0.215491
0.215556
0.215614
0.215665
0.21571
0.21575
0.215786
0.20052
0.202689
0.205564
0.208535
0.211277
0.213658
0.215652
0.217291
0.218629
0.219716
0.220598
0.221315
0.221897
0.222371
0.222755
0.223066
0.223318
0.223519
0.223678
0.223801
0.223895
0.223963
0.224009
0.224037
0.224048
0.224046
0.224032
0.224009
0.223977
0.223937
0.223892
0.223842
0.223789
0.202177
0.209446
0.217134
0.223399
0.228109
0.231561
0.234062
0.235867
0.237167
0.238099
0.238763
0.23923
0.239549
0.239758
0.23988
0.239936
0.239937
0.239896
0.239819
0.239712
0.239581
0.239428
0.239258
0.239074
0.238876
0.238668
0.238451
0.238227
0.237997
0.237761
0.237523
0.237281
0.237038
0.208495
0.227585
0.245303
0.258675
0.267541
0.272822
0.27564
0.276937
0.277331
0.277197
0.276757
0.27614
0.275423
0.274651
0.273847
0.273026
0.272196
0.271362
0.270526
0.26969
0.268855
0.268023
0.267194
0.26637
0.265552
0.264741
0.263936
0.263141
0.262354
0.261578
0.260813
0.260059
0.259317
0.248319
0.315101
0.348226
0.362238
0.367204
0.368025
0.36674
0.36418
0.36081
0.356945
0.352804
0.348543
0.344269
0.34006
0.335967
0.332027
0.328259
0.324677
0.321287
0.318089
0.315082
0.31226
0.309618
0.30715
0.304848
0.302703
0.30071
0.29886
0.297146
0.295561
0.294097
0.29275
0.291509
0.205355
0.221128
0.238045
0.254121
0.26899
0.282961
0.296243
0.308914
0.321018
0.332581
0.343626
0.354171
0.364231
0.373821
0.382955
0.391647
0.399914
0.407768
0.415225
0.4223
0.429007
0.435361
0.441376
0.447066
0.452446
0.457528
0.462326
0.466852
0.471119
0.475139
0.478923
0.482481
0.48583
0.640382
0.699195
0.780683
0.870946
0.959613
1.04053
1.11338
1.18022
1.24302
1.30216
1.35572
1.39953
1.42814
1.43632
1.4203
1.37839
1.31083
1.2193
1.10665
0.977004
0.836224
0.692552
0.556721
0.440945
0.356416
0.310043
0.302885
0.332939
0.401694
0.522513
0.727152
1.0486
1.48105
1.97585
2.47687
2.94458
3.35757
3.7066
3.98941
4.20754
4.36439
4.46417
4.51138
4.5108
4.46773
4.38838
4.2801
4.15127
4.01081
3.8673
3.72802
3.59828
3.48114
3.37769
3.28758
3.20959
3.14218
3.08379
3.03305
2.98878
2.95008
2.91621
2.88661
2.86083
2.8385
2.81934
2.80309
2.7895
2.7784
2.76957
2.76286
2.75809
2.75512
2.75379
2.75398
2.75554
2.75836
2.76232
2.76732
2.77323
2.77998
2.78746
2.79559
2.80429
2.81348
2.8231
2.83307
2.84334
2.85385
2.86455
2.87538
2.8863
2.89725
2.9082
2.91908
2.92986
2.94047
2.95086
2.96091
2.97029
0.384073
0.383519
0.387287
0.394508
0.4048
0.417689
0.432736
0.449889
0.469443
0.491683
0.516406
0.54245
0.567451
0.587998
0.600214
0.600612
0.586947
0.558808
0.517871
0.467816
0.413975
0.362667
0.32021
0.291722
0.280199
0.286663
0.312006
0.359939
0.439127
0.566695
0.773852
1.0915
1.51458
1.99831
2.49
2.95154
3.36157
3.71031
3.99486
4.21607
4.37676
4.48058
4.53155
4.53409
4.49328
4.41526
4.30748
4.17864
4.038
3.89453
3.75577
3.62713
3.51166
3.41032
3.32258
3.24708
3.18215
3.12615
3.07764
3.03544
2.99861
2.96643
2.93833
2.91389
2.89274
2.8746
2.85922
2.84638
2.83589
2.82756
2.82124
2.81676
2.81398
2.81277
2.81298
2.81451
2.81722
2.82102
2.82579
2.83144
2.83788
2.84502
2.85278
2.86109
2.86987
2.87906
2.8886
2.89842
2.90849
2.91874
2.92914
2.93963
2.95017
2.96072
2.97123
2.98165
2.99195
3.00205
3.01183
3.02087
0.325735
0.319737
0.314004
0.308625
0.303807
0.299739
0.296555
0.294381
0.293334
0.293494
0.294857
0.297269
0.300351
0.303457
0.305708
0.306144
0.303969
0.298843
0.291108
0.281854
0.272794
0.265966
0.26338
0.266809
0.277951
0.299028
0.333739
0.388281
0.472275
0.602233
0.807037
1.11549
1.52451
1.99413
2.47522
2.93073
3.33895
3.68928
3.97794
4.205
4.37255
4.48361
4.54168
4.55071
4.51548
4.44194
4.33756
4.21117
4.07235
3.93038
3.7931
3.66611
3.55253
3.45328
3.36777
3.29454
3.23184
3.17796
3.13142
3.09101
3.05579
3.02502
2.99816
2.97478
2.95452
2.93711
2.92231
2.90991
2.89973
2.8916
2.88536
2.88087
2.87798
2.87657
2.87651
2.8777
2.88001
2.88335
2.88762
2.89273
2.8986
2.90514
2.91228
2.91995
2.92808
2.93662
2.9455
2.95468
2.96411
2.97373
2.98352
2.99341
3.00338
3.01339
3.02339
3.03335
3.04321
3.05291
3.06233
3.07095
0.316795
0.311503
0.306315
0.301254
0.296363
0.291678
0.287228
0.283043
0.279157
0.275598
0.272386
0.269521
0.266975
0.264688
0.262573
0.260542
0.258549
0.256651
0.255064
0.254201
0.254678
0.257315
0.263146
0.273512
0.290249
0.316036
0.35496
0.413176
0.499638
0.629428
0.828818
1.12466
1.51629
1.96911
2.43783
2.88654
3.29307
3.64586
3.94013
4.175
4.35175
4.4727
4.54073
4.55929
4.53271
4.46667
4.3685
4.24706
4.11211
3.97321
3.8385
3.71382
3.60246
3.50541
3.42209
3.351
3.29036
3.23841
3.19363
3.15482
3.121
3.09144
3.0656
3.04305
3.02345
3.00653
2.99207
2.97987
2.96975
2.96155
2.95513
2.95036
2.94709
2.94521
2.94462
2.9452
2.94685
2.94947
2.95299
2.95731
2.96236
2.96806
2.97435
2.98116
2.98843
2.99611
3.00414
3.01248
3.02108
3.0299
3.0389
3.04804
3.05729
3.06661
3.07597
3.08533
3.09465
3.10385
3.1128
3.12093
0.300831
0.29717
0.293513
0.289864
0.286217
0.282578
0.278971
0.275425
0.27197
0.268638
0.265462
0.262477
0.259721
0.257231
0.255053
0.253248
0.251911
0.251194
0.251332
0.252666
0.255684
0.261056
0.269707
0.282927
0.302554
0.331266
0.37304
0.433581
0.520936
0.648675
0.840551
1.12161
1.49359
1.92735
2.3818
2.82242
3.2267
3.58207
3.88266
4.12659
4.31425
4.44718
4.52758
4.55831
4.54319
4.4875
4.39829
4.28429
4.15534
4.02118
3.89026
3.7687
3.66003
3.56541
3.48434
3.41537
3.3567
3.30657
3.26344
3.22609
3.19353
3.16504
3.14006
3.11818
3.09907
3.08246
3.06815
3.05594
3.04567
3.03719
3.03038
3.02509
3.02122
3.01865
3.01729
3.01703
3.01779
3.01948
3.02201
3.02533
3.02934
3.03399
3.03922
3.04496
3.05117
3.05779
3.06478
3.0721
3.0797
3.08755
3.0956
3.10384
3.11223
3.12073
3.12932
3.13796
3.14662
3.15522
3.1636
3.17115
0.280922
0.278755
0.27654
0.274277
0.271949
0.269548
0.267083
0.264574
0.262052
0.259559
0.257146
0.254872
0.252804
0.251014
0.249587
0.248626
0.248265
0.248688
0.250148
0.25299
0.257694
0.264917
0.275569
0.290926
0.312795
0.343775
0.387601
0.449421
0.536356
0.660549
0.843418
1.1083
1.45912
1.87205
2.31037
2.74131
3.14223
3.49967
3.80666
4.06027
4.25993
4.40637
4.50107
4.54622
4.54507
4.50237
4.42473
4.32066
4.19988
4.07227
3.9465
3.82902
3.72367
3.63184
3.55322
3.48644
3.42976
3.38142
3.3399
3.30394
3.27257
3.24506
3.22085
3.19954
3.1808
3.16438
3.15007
3.13771
3.12713
3.11822
3.11083
3.10486
3.1002
3.09676
3.09444
3.09315
3.09282
3.09338
3.09474
3.09685
3.09963
3.10304
3.10702
3.11152
3.11648
3.12187
3.12765
3.13378
3.14021
3.14693
3.1539
3.16109
3.16847
3.17602
3.18371
3.19151
3.19939
3.20728
3.21499
3.22188
0.262639
0.261529
0.260367
0.259146
0.257845
0.256446
0.254945
0.253356
0.251707
0.250041
0.248419
0.246912
0.245606
0.244593
0.243983
0.243903
0.244509
0.246004
0.248653
0.252811
0.258961
0.267756
0.280098
0.297238
0.320923
0.353618
0.39875
0.46088
0.546256
0.665713
0.838522
1.08638
1.41508
1.80579
2.22624
2.64574
3.04184
3.40034
3.71322
3.97652
4.18871
4.34966
4.46008
4.52148
4.53645
4.5091
4.44553
4.35381
4.24343
4.12425
4.00515
3.89287
3.79162
3.70311
3.62726
3.56287
3.50829
3.46182
3.42193
3.38738
3.35719
3.33065
3.30718
3.28639
3.26796
3.25165
3.23728
3.22466
3.21368
3.2042
3.19612
3.18934
3.18375
3.17929
3.17586
3.1734
3.17183
3.17109
3.17111
3.17185
3.17325
3.17525
3.17782
3.1809
3.18447
3.18847
3.19288
3.19766
3.20278
3.20822
3.21396
3.21995
3.2262
3.23266
3.23933
3.24617
3.25316
3.26023
3.26718
3.2733
0.247913
0.247471
0.24699
0.246461
0.24586
0.245166
0.244368
0.243473
0.242505
0.241507
0.240542
0.239689
0.239043
0.238712
0.238819
0.239509
0.240956
0.243375
0.247043
0.25232
0.25969
0.2698
0.283532
0.302094
0.327147
0.360979
0.406676
0.468219
0.551063
0.664857
0.826895
1.05728
1.36334
1.73076
2.13176
2.53801
2.92756
3.28569
3.60347
3.87593
4.10062
4.27653
4.4036
4.48262
4.51546
4.50555
4.45832
4.38126
4.28349
4.17473
4.06394
3.95816
3.86196
3.77745
3.70484
3.64317
3.59092
3.54646
3.50833
3.47527
3.44634
3.42081
3.39811
3.37786
3.35975
3.34354
3.32907
3.31617
3.30472
3.29463
3.28578
3.27809
3.2715
3.26591
3.26127
3.25751
3.25458
3.25242
3.25098
3.25022
3.25009
3.25055
3.25157
3.2531
3.25512
3.25759
3.26049
3.26379
3.26747
3.2715
3.27586
3.28054
3.28552
3.29077
3.2963
3.30206
3.30805
3.31418
3.32025
3.32552
0.23667
0.236628
0.236564
0.236467
0.236316
0.236088
0.235771
0.235369
0.234901
0.23441
0.233959
0.233627
0.233517
0.233744
0.234444
0.23577
0.23791
0.241088
0.245589
0.251777
0.26013
0.271282
0.286086
0.305687
0.331637
0.366023
0.411573
0.471727
0.551234
0.658668
0.809501
1.02228
1.30549
1.6489
2.02904
2.42022
2.8013
3.15732
3.47858
3.75921
3.99584
4.18664
4.33078
4.42831
4.48035
4.4896
4.4607
4.40047
4.31748
4.22116
4.12044
4.0226
3.93259
3.85292
3.78417
3.72568
3.67609
3.63392
3.59774
3.56636
3.53882
3.51441
3.49258
3.47295
3.45522
3.43916
3.42462
3.41145
3.39954
3.38881
3.37918
3.37056
3.3629
3.35613
3.35022
3.34509
3.34072
3.33705
3.33406
3.3317
3.32994
3.32875
3.3281
3.32797
3.32833
3.32915
3.33042
3.33212
3.33422
3.33672
3.33959
3.34283
3.34642
3.35035
3.35461
3.35919
3.36405
3.36914
3.37423
3.37854
0.228225
0.228415
0.228599
0.228766
0.228898
0.228974
0.228982
0.228925
0.228822
0.228712
0.228657
0.228738
0.229057
0.229735
0.230912
0.232753
0.235449
0.239232
0.244391
0.251288
0.260392
0.272316
0.287869
0.308125
0.334506
0.368883
0.413636
0.471713
0.547243
0.647824
0.787241
0.982513
1.24295
1.56189
1.91999
2.29435
2.66497
3.01689
3.33986
3.62722
3.87477
4.07988
4.24099
4.3574
4.42952
4.45922
4.45034
4.40888
4.34273
4.26085
4.17205
4.08374
4.00119
3.92738
3.86328
3.80855
3.7621
3.72258
3.68865
3.65919
3.63326
3.61017
3.58938
3.57051
3.55327
3.53747
3.52295
3.50958
3.49727
3.48595
3.47556
3.46602
3.4573
3.44935
3.44213
3.43561
3.42976
3.42454
3.41993
3.4159
3.41245
3.40953
3.40714
3.40525
3.40385
3.40293
3.40248
3.40247
3.40289
3.40375
3.40502
3.40671
3.4088
3.4113
3.41418
3.41745
3.42109
3.42501
3.42901
3.43225
0.221866
0.22219
0.222521
0.222848
0.223158
0.223433
0.223664
0.223854
0.224021
0.224202
0.224458
0.224867
0.225532
0.226574
0.228137
0.230389
0.233524
0.237777
0.243436
0.250857
0.260493
0.27293
0.288924
0.309463
0.335833
0.369685
0.41307
0.468502
0.539569
0.63298
0.760955
0.939019
1.17699
1.47126
1.80637
2.16228
2.52041
2.86609
3.18871
3.48099
3.73799
3.95636
4.13382
4.269
4.36156
4.41258
4.42502
4.40398
4.35653
4.29105
4.21603
4.13892
4.06529
3.9985
3.93999
3.88977
3.84704
3.81064
3.77938
3.75217
3.72815
3.70663
3.68711
3.66921
3.65266
3.63728
3.62292
3.60948
3.59689
3.58507
3.57399
3.5636
3.55387
3.54477
3.53628
3.52838
3.52104
3.51426
3.50802
3.50231
3.49711
3.49242
3.48823
3.48454
3.48132
3.47858
3.47632
3.47452
3.47318
3.47231
3.47189
3.47193
3.47242
3.47337
3.47478
3.47664
3.47893
3.48158
3.48439
3.48646
0.217031
0.21743
0.217847
0.218272
0.218696
0.219105
0.219493
0.219864
0.220236
0.220645
0.221149
0.221825
0.222772
0.224111
0.225985
0.228561
0.232036
0.236642
0.24266
0.250438
0.260407
0.273114
0.28926
0.309738
0.335694
0.368564
0.4101
0.462441
0.5287
0.614775
0.731433
0.892738
1.10873
1.37838
1.68978
2.02579
2.36946
2.70665
3.02667
3.32175
3.58634
3.81647
4.0092
4.16251
4.27537
4.34807
4.38269
4.38335
4.35623
4.30895
4.24955
4.18539
4.12221
4.06377
4.01192
3.9671
3.92881
3.89614
3.86803
3.84352
3.82178
3.80217
3.78422
3.76756
3.75195
3.73722
3.72323
3.70991
3.69719
3.68503
3.67339
3.66226
3.65163
3.64147
3.63177
3.62254
3.61378
3.60547
3.59762
3.59022
3.58329
3.57682
3.57081
3.56527
3.5602
3.5556
3.55147
3.54783
3.54466
3.54198
3.5398
3.5381
3.53691
3.53623
3.53606
3.53641
3.53726
3.53853
3.54003
3.54082
0.213307
0.213747
0.214213
0.214699
0.215196
0.215698
0.2162
0.216708
0.217241
0.217833
0.218539
0.219433
0.220613
0.222194
0.224317
0.227147
0.230876
0.235732
0.241986
0.249968
0.260086
0.272844
0.288877
0.308985
0.33417
0.36567
0.404972
0.45389
0.515124
0.593825
0.699414
0.844536
1.03921
1.28451
1.57173
1.88659
2.21391
2.54038
2.85539
3.15091
3.42092
3.66089
3.86734
4.03766
4.17016
4.2644
4.32155
4.34479
4.33928
4.31178
4.26974
4.22025
4.16915
4.12048
4.07652
4.03812
4.00513
3.97689
3.95255
3.93125
3.91226
3.89498
3.87897
3.8639
3.84955
3.83574
3.82239
3.80943
3.7968
3.7845
3.7725
3.7608
3.7494
3.73831
3.72754
3.71709
3.70698
3.69721
3.68781
3.67879
3.67016
3.66193
3.65412
3.64674
3.63981
3.63333
3.62732
3.62179
3.61676
3.61222
3.60821
3.60472
3.60177
3.59938
3.59755
3.59629
3.5956
3.5954
3.59549
3.59489
0.210403
0.210864
0.211357
0.211879
0.212426
0.212994
0.213581
0.214195
0.214855
0.215596
0.216468
0.217543
0.218913
0.220691
0.223011
0.226032
0.22994
0.234954
0.241332
0.249384
0.259485
0.272095
0.287781
0.307248
0.331362
0.361179
0.397952
0.443222
0.499323
0.570722
0.665596
0.795215
0.969363
1.19078
1.4536
1.74627
2.05555
2.3691
2.67666
2.9701
3.24308
3.49064
3.70884
3.89456
4.04553
4.16062
4.24016
4.28636
4.30334
4.2969
4.27375
4.2406
4.20319
4.1658
4.13106
4.10022
4.0735
4.05053
4.03067
4.01321
3.99752
3.98307
3.96945
3.95638
3.94365
3.93113
3.91875
3.90644
3.89419
3.882
3.86987
3.85782
3.84586
3.83402
3.82233
3.81081
3.79949
3.78839
3.77755
3.76699
3.75673
3.74681
3.73725
3.72808
3.71931
3.71096
3.70308
3.69566
3.68873
3.68232
3.67644
3.67112
3.66636
3.66219
3.65864
3.6557
3.65338
3.65161
3.6502
3.64809
0.208116
0.208584
0.209091
0.209635
0.210215
0.210829
0.21148
0.212177
0.212939
0.2138
0.214809
0.216032
0.217557
0.21949
0.221959
0.225116
0.229136
0.234226
0.240628
0.248628
0.258566
0.270854
0.285993
0.30459
0.32739
0.355283
0.389322
0.430815
0.481772
0.546034
0.630631
0.745513
0.900047
1.09823
1.33667
1.6064
1.89612
2.19468
2.49235
2.78109
3.05439
3.30701
3.53463
3.7337
3.90149
4.03622
4.13746
4.20648
4.24636
4.26187
4.25888
4.24354
4.2214
4.1968
4.17269
4.15066
4.13129
4.11453
4.09997
4.08707
4.07531
4.06425
4.05356
4.04296
4.03231
4.02149
4.01045
3.99916
3.98762
3.97585
3.96388
3.95175
3.93948
3.92713
3.91474
3.90234
3.88999
3.87772
3.86559
3.85362
3.84186
3.83035
3.81913
3.80823
3.79768
3.78753
3.77779
3.76851
3.75971
3.75142
3.74367
3.73648
3.72988
3.7239
3.71856
3.71388
3.70987
3.70645
3.70345
3.69974
0.206302
0.206769
0.20728
0.207835
0.208436
0.209083
0.209781
0.210542
0.211386
0.212343
0.213462
0.214804
0.21645
0.2185
0.221075
0.224316
0.228387
0.23348
0.239816
0.247656
0.257305
0.269123
0.283546
0.301095
0.322395
0.348195
0.379375
0.417046
0.462931
0.520297
0.595129
0.69611
0.832046
1.00783
1.22215
1.46843
1.73733
2.01901
2.30443
2.58582
2.85669
3.11161
3.34601
3.55603
3.73851
3.89116
4.01287
4.10401
4.16667
4.20456
4.22264
4.22634
4.22088
4.21055
4.19847
4.18655
4.17571
4.1662
4.15784
4.15031
4.14321
4.13621
4.12902
4.12146
4.1134
4.10475
4.09549
4.08564
4.0752
4.06422
4.05276
4.04086
4.02858
4.016
4.00316
3.99014
3.97698
3.96376
3.95052
3.93732
3.92421
3.91126
3.8985
3.88599
3.87377
3.86188
3.85037
3.83928
3.82865
3.81851
3.8089
3.79985
3.79141
3.78359
3.77645
3.76998
3.76422
3.75908
3.75441
3.74902
0.204856
0.205318
0.205826
0.206385
0.206997
0.207666
0.208399
0.209208
0.210113
0.211146
0.212349
0.213781
0.215517
0.217649
0.220289
0.223565
0.227631
0.232659
0.238851
0.246439
0.255691
0.26692
0.280496
0.296859
0.316533
0.340138
0.368409
0.402288
0.44324
0.494018
0.559652
0.647631
0.766075
0.920433
1.11113
1.33374
1.58083
1.84396
2.11492
2.38639
2.65202
2.90635
3.14466
3.36288
3.55754
3.72592
3.86632
3.97833
4.06309
4.12328
4.16286
4.1865
4.1989
4.20418
4.2055
4.20501
4.20391
4.20273
4.20158
4.2003
4.19866
4.19644
4.19345
4.18953
4.18462
4.17869
4.17172
4.16377
4.15488
4.14511
4.13454
4.12325
4.11132
4.09883
4.08586
4.0725
4.05881
4.04488
4.03077
4.01656
4.00231
3.98809
3.97397
3.96
3.94623
3.93274
3.91956
3.90675
3.89436
3.88243
3.87101
3.86014
3.84987
3.84023
3.83126
3.82299
3.81544
3.80854
3.80215
3.79498
0.203705
0.204156
0.204658
0.205214
0.20583
0.206512
0.207267
0.208109
0.209058
0.210145
0.211409
0.212904
0.2147
0.216879
0.219544
0.222812
0.22682
0.231724
0.237704
0.244962
0.25373
0.264277
0.276911
0.291999
0.309971
0.33134
0.356718
0.386896
0.423114
0.467663
0.524716
0.600638
0.702775
0.83684
1.00463
1.20361
1.4282
1.67137
1.92588
2.18498
2.4426
2.69338
2.93259
3.15602
3.36
3.5415
3.69833
3.8294
3.935
4.01684
4.07786
4.1219
4.15301
4.175
4.19096
4.20315
4.213
4.2213
4.22839
4.23432
4.23901
4.24237
4.24429
4.2447
4.24359
4.24096
4.23684
4.23132
4.22447
4.21638
4.20716
4.19689
4.1857
4.17369
4.16094
4.14757
4.13366
4.11932
4.10462
4.08966
4.07451
4.05926
4.04397
4.02873
4.01361
3.99866
3.98395
3.96955
3.95551
3.94189
3.92874
3.91611
3.90405
3.89262
3.88185
3.87177
3.86243
3.85375
3.84559
3.83657
0.202792
0.203229
0.20372
0.204269
0.204883
0.205568
0.206334
0.207196
0.208173
0.209294
0.210596
0.212128
0.213953
0.216146
0.218799
0.222017
0.225921
0.23065
0.23636
0.243226
0.251445
0.261242
0.272873
0.286636
0.302883
0.32203
0.344584
0.371209
0.402941
0.441661
0.490783
0.555629
0.642712
0.757743
0.903544
1.07924
1.28094
1.50305
1.73937
1.98384
2.2308
2.4751
2.71211
2.9376
3.1478
3.33945
3.51001
3.65783
3.78245
3.88468
3.96652
4.03089
4.08115
4.12063
4.15225
4.17825
4.2002
4.2191
4.23549
4.2496
4.26154
4.27132
4.27895
4.28442
4.28779
4.2891
4.28845
4.28594
4.28168
4.27579
4.26839
4.25963
4.24962
4.23849
4.22637
4.21338
4.19961
4.1852
4.17023
4.15482
4.13905
4.12303
4.10684
4.09056
4.07428
4.05807
4.04202
4.02619
4.01064
3.99545
3.98068
3.96639
3.95263
3.93947
3.92694
3.9151
3.90397
3.89351
3.88357
3.87265
0.202074
0.202496
0.202972
0.20351
0.204115
0.204796
0.205564
0.206432
0.207421
0.208557
0.209874
0.211418
0.213244
0.21542
0.218026
0.221155
0.224914
0.229424
0.234818
0.241244
0.248869
0.257876
0.268474
0.280902
0.295441
0.312428
0.332276
0.355537
0.383067
0.416393
0.458258
0.513036
0.586368
0.683746
0.808689
0.961694
1.14044
1.34071
1.55741
1.78524
2.01907
2.25408
2.48581
2.71014
2.92327
3.12185
3.30307
3.46487
3.60616
3.72696
3.82838
3.91246
3.9818
4.03916
4.08713
4.12785
4.16292
4.19345
4.22016
4.24344
4.26356
4.28063
4.29478
4.30609
4.31467
4.32063
4.32409
4.32521
4.32412
4.32099
4.31597
4.30921
4.30087
4.2911
4.28004
4.26784
4.25462
4.24052
4.22564
4.21012
4.19406
4.17758
4.16076
4.14371
4.12653
4.1093
4.09211
4.07505
4.05818
4.04159
4.02535
4.00952
3.99417
3.97937
3.96517
3.95161
3.93875
3.92653
3.91482
3.90196
0.201519
0.201923
0.202383
0.202905
0.203497
0.204167
0.204926
0.205789
0.206775
0.207908
0.20922
0.210751
0.212552
0.21468
0.217208
0.220215
0.223794
0.228048
0.233091
0.239046
0.246049
0.254249
0.263812
0.274926
0.287812
0.302737
0.320036
0.340159
0.363804
0.392191
0.427489
0.473216
0.53414
0.615346
0.720748
0.851933
1.00797
1.18597
1.38196
1.59146
1.80994
2.03301
2.2565
2.47645
2.68917
2.89127
3.07981
3.25244
3.40757
3.54457
3.66376
3.76633
3.85411
3.92924
3.99387
4.04989
4.09886
4.14192
4.17987
4.21325
4.24244
4.26769
4.2892
4.30714
4.32168
4.333
4.34127
4.34667
4.34939
4.34962
4.34754
4.34334
4.3372
4.32928
4.31977
4.30882
4.29658
4.2832
4.26883
4.25358
4.23759
4.22098
4.20386
4.18635
4.16855
4.15057
4.1325
4.11444
4.09646
4.07867
4.06113
4.04393
4.02714
4.01083
3.99506
3.97989
3.96536
3.95144
3.938
3.92319
0.201102
0.201488
0.201929
0.202433
0.203006
0.203658
0.2044
0.205247
0.206215
0.207329
0.208616
0.210113
0.211863
0.213918
0.216339
0.219196
0.222566
0.226538
0.231204
0.236668
0.243039
0.250435
0.258985