/*--------------------------------*- C++ -*----------------------------------*\
| =========                 |                                                 |
| \\      /  F ield         | OpenFOAM: The Open Source CFD Toolbox           |
|  \\    /   O peration     | Version:  4.1                                   |
|   \\  /    A nd           | Web:      www.OpenFOAM.org                      |
|    \\/     M anipulation  |                                                 |
\*---------------------------------------------------------------------------*/
FoamFile
{
    version     2.0;
    format      ascii;
    class       volScalarField;
    location    "200";
    object      nut;
}
// * * * * * * * * * * * * * * * * * * * * * * * * * * * * * * * * * * * * * //

dimensions      [0 2 -1 0 0 0 0];

internalField   nonuniform List<scalar> 
6820
(
3.54369e-05
5.06719e-05
6.21572e-05
6.89873e-05
7.29424e-05
7.51542e-05
7.62705e-05
7.66709e-05
7.65958e-05
7.62056e-05
7.56097e-05
7.48842e-05
7.40826e-05
7.32424e-05
7.239e-05
7.15437e-05
7.07162e-05
6.99161e-05
6.9149e-05
6.84185e-05
6.77267e-05
6.70748e-05
6.6463e-05
6.58914e-05
6.53597e-05
6.48674e-05
6.44143e-05
6.4e-05
6.36236e-05
6.32903e-05
6.29637e-05
6.28057e-05
6.20878e-05
0.00135032
0.000930451
0.000725653
0.000570022
0.00045348
0.000372425
0.000316479
0.00027679
0.000247652
0.000225591
0.000208453
0.000194846
0.000183849
0.000174828
0.000167337
0.000161056
0.000155744
0.000151222
0.000147352
0.000144026
0.00014116
0.000138685
0.000136549
0.000134707
0.000133126
0.000131778
0.000130643
0.000129705
0.000128953
0.000128367
0.000127875
0.000127541
0.00012716
0.00344395
0.00180043
0.0013372
0.00108088
0.000912477
0.000791662
0.000701097
0.000631204
0.0005759
0.000531164
0.000494279
0.000463365
0.000437096
0.000414508
0.000394892
0.000377712
0.000362557
0.000349108
0.00033711
0.000326361
0.000316694
0.000307976
0.000300094
0.000292956
0.000286484
0.000280613
0.000275288
0.000270462
0.000266107
0.00026214
0.000258642
0.000255692
0.000253184
0.0063739
0.00310295
0.0021786
0.00173341
0.00146623
0.00128438
0.00115097
0.00104829
0.000966566
0.00089987
0.000844356
0.000797402
0.000757153
0.000722262
0.00069172
0.000664764
0.0006408
0.000619364
0.000600085
0.000582666
0.000566864
0.000552482
0.000539356
0.000527351
0.000516354
0.000506273
0.00049703
0.000488573
0.00048081
0.000473778
0.000467516
0.000462082
0.000457438
0.00899732
0.00527269
0.00366216
0.00284187
0.00235764
0.00203892
0.00181243
0.00164251
0.00150986
0.00140318
0.0013154
0.00124184
0.00117925
0.00112534
0.00107842
0.0010372
0.00100073
0.000968235
0.000939118
0.000912899
0.000889191
0.000867678
0.0008481
0.000830243
0.000813933
0.000799023
0.0007854
0.000772931
0.000761608
0.000751415
0.000742341
0.00073442
0.000727632
0.0103765
0.00752962
0.00561365
0.00443427
0.00367784
0.00316276
0.00279268
0.00251491
0.00229901
0.00212643
0.00198537
0.00186792
0.00176864
0.00168364
0.00161007
0.00154581
0.00148923
0.00143908
0.00139435
0.00135426
0.00131816
0.00128556
0.00125601
0.00122918
0.00120477
0.00118255
0.00116231
0.00114394
0.00112734
0.00111244
0.00109919
0.00108757
0.00107756
0.0109773
0.00922091
0.0075221
0.00622455
0.00528147
0.00459003
0.0040705
0.00366963
0.0033526
0.00309646
0.00288565
0.00270943
0.00256011
0.00243213
0.00232135
0.00222461
0.0021395
0.00206414
0.00199703
0.00193696
0.00188299
0.00183431
0.00179028
0.00175037
0.00171413
0.00168119
0.0016513
0.00162422
0.00159976
0.00157779
0.0015582
0.00154093
0.00152588
0.0112223
0.0102599
0.00902121
0.00786247
0.00689821
0.00612427
0.00550559
0.00500696
0.00460007
0.00426362
0.00398187
0.00374318
0.00353885
0.0033623
0.00320848
0.00307348
0.00295423
0.00284828
0.00275368
0.00266884
0.00259247
0.00252349
0.00246103
0.00240435
0.00235284
0.00230604
0.00226352
0.00222494
0.00219003
0.00215856
0.00213035
0.00210527
0.00208316
0.0113196
0.0108284
0.0100354
0.00914739
0.00830387
0.00755889
0.00692036
0.00637837
0.00591834
0.00552616
0.00518972
0.00489913
0.0046464
0.00442516
0.0042303
0.00405771
0.00390405
0.00376662
0.0036432
0.00353195
0.00343136
0.00334016
0.00325726
0.00318181
0.00311307
0.00305042
0.00299333
0.00294136
0.00289415
0.00285137
0.0028128
0.0027782
0.00274736
0.0113579
0.0111185
0.0106544
0.0100468
0.00939338
0.00875856
0.00817341
0.00764804
0.00718208
0.00677068
0.00640759
0.00608657
0.00580191
0.00554858
0.00532233
0.0051195
0.00493704
0.00477235
0.00462326
0.00448791
0.00436474
0.00425241
0.00414981
0.00405598
0.00397012
0.00389151
0.00381956
0.00375376
0.00369369
0.00363898
0.00358931
0.0035444
0.00350397
0.0113728
0.0112599
0.0110054
0.0106241
0.0101644
0.00967475
0.00918914
0.00872701
0.00829751
0.00790363
0.00754496
0.00721946
0.00692438
0.00665682
0.00641394
0.00619312
0.00599202
0.00580852
0.00564078
0.00548718
0.00534631
0.00521694
0.00509802
0.00498861
0.00488792
0.00479524
0.00470998
0.00463159
0.00455964
0.00449371
0.00443347
0.00437859
0.00432876
0.0113786
0.0113265
0.0111937
0.01097
0.010671
0.0103234
0.00995297
0.00957904
0.0092143
0.00886615
0.00853837
0.0082324
0.0079483
0.00768531
0.00744226
0.0072178
0.00701053
0.00681907
0.00664213
0.0064785
0.00632709
0.00618694
0.00605713
0.0059369
0.00582553
0.00572239
0.00562695
0.0055387
0.00545722
0.00538213
0.00531306
0.0052497
0.00519171
0.0113809
0.011357
0.0112903
0.011166
0.0109837
0.0107538
0.0104911
0.0102098
0.00992174
0.00963515
0.00935573
0.00908702
0.00883104
0.00858878
0.0083605
0.00814607
0.00794504
0.00775684
0.00758081
0.00741625
0.00726249
0.00711887
0.00698477
0.00685961
0.00674285
0.006634
0.00653263
0.00643833
0.00635073
0.00626949
0.00619431
0.00612488
0.00606088
0.0113818
0.0113707
0.0113381
0.011272
0.0111667
0.0110235
0.0108487
0.0106506
0.0104373
0.0102161
0.00999253
0.00977073
0.00955368
0.00934337
0.00914109
0.00894758
0.00876321
0.00858809
0.00842215
0.00826521
0.00811699
0.0079772
0.0078455
0.00772157
0.00760508
0.0074957
0.00739314
0.00729711
0.00720735
0.00712359
0.00704559
0.00697308
0.00690581
0.0113822
0.0113768
0.0113609
0.011327
0.0112689
0.0111843
0.0110743
0.0109426
0.0107938
0.0106329
0.0104641
0.0102912
0.0101173
0.00994452
0.00977473
0.00960914
0.00944865
0.00929384
0.00914511
0.00900266
0.0088666
0.00873692
0.00861359
0.0084965
0.00838553
0.00828055
0.00818141
0.00808795
0.00800001
0.00791744
0.00784007
0.0077677
0.00770012
0.0113823
0.0113793
0.0113716
0.0113544
0.0113235
0.0112757
0.0112099
0.0111268
0.0110285
0.0109176
0.0107969
0.0106692
0.010537
0.0104023
0.0102669
0.0101322
0.00999924
0.00986889
0.0097418
0.00961845
0.00949919
0.00938428
0.00927386
0.00916806
0.00906692
0.00897046
0.00887869
0.00879156
0.00870902
0.00863103
0.00855748
0.00848827
0.00842323
0.0113824
0.0113804
0.0113764
0.0113677
0.0113516
0.0113255
0.0112878
0.0112378
0.011176
0.0111033
0.0110213
0.0109317
0.0108361
0.0107362
0.0106334
0.0105289
0.0104238
0.0103191
0.0102154
0.0101133
0.0100133
0.00991588
0.00982125
0.00972966
0.00964132
0.00955635
0.00947487
0.00939694
0.00932261
0.00925191
0.00918482
0.0091213
0.00906124
0.0113824
0.0113809
0.0113785
0.0113739
0.0113655
0.0113516
0.0113307
0.0113019
0.0112646
0.0112192
0.011166
0.011106
0.0110402
0.0109695
0.010895
0.0108177
0.0107384
0.010658
0.0105771
0.0104962
0.010416
0.0103369
0.0102591
0.0101831
0.0101091
0.0100372
0.00996779
0.00990086
0.00983657
0.009775
0.00971621
0.00966021
0.00960694
0.0113824
0.0113811
0.0113794
0.0113767
0.0113722
0.0113648
0.0113535
0.0113373
0.0113157
0.0112884
0.0112555
0.0112171
0.0111737
0.011126
0.0110744
0.0110197
0.0109625
0.0109034
0.010843
0.0107817
0.01072
0.0106584
0.0105971
0.0105366
0.010477
0.0104187
0.0103618
0.0103066
0.0102532
0.0102016
0.0101521
0.0101046
0.0100592
0.0113824
0.0113812
0.0113798
0.0113779
0.0113753
0.0113712
0.011365
0.0113561
0.011344
0.0113281
0.0113085
0.0112849
0.0112575
0.0112266
0.0111925
0.0111555
0.011116
0.0110744
0.0110311
0.0109866
0.0109411
0.010895
0.0108487
0.0108024
0.0107564
0.0107109
0.0106661
0.0106223
0.0105796
0.0105381
0.0104979
0.0104592
0.0104219
0.0113824
0.0113812
0.0113799
0.0113785
0.0113767
0.0113742
0.0113707
0.0113658
0.011359
0.01135
0.0113386
0.0113247
0.011308
0.0112888
0.0112671
0.0112431
0.0112169
0.0111888
0.0111591
0.011128
0.0110958
0.0110628
0.0110291
0.010995
0.0109607
0.0109266
0.0108926
0.010859
0.0108261
0.0107938
0.0107624
0.0107319
0.0107023
0.0113824
0.0113812
0.01138
0.0113787
0.0113773
0.0113756
0.0113734
0.0113705
0.0113667
0.0113616
0.0113551
0.011347
0.0113372
0.0113257
0.0113123
0.0112973
0.0112805
0.0112623
0.0112426
0.0112216
0.0111996
0.0111766
0.0111529
0.0111286
0.011104
0.011079
0.011054
0.0110291
0.0110044
0.01098
0.0109561
0.0109326
0.0109098
0.0113824
0.0113812
0.01138
0.0113788
0.0113775
0.0113762
0.0113746
0.0113728
0.0113704
0.0113674
0.0113637
0.011359
0.0113533
0.0113464
0.0113384
0.0113291
0.0113186
0.011307
0.0112942
0.0112803
0.0112655
0.0112498
0.0112334
0.0112163
0.0111987
0.0111807
0.0111625
0.0111441
0.0111257
0.0111074
0.0110893
0.0110714
0.0110537
0.0113824
0.0113812
0.01138
0.0113788
0.0113776
0.0113764
0.0113752
0.0113738
0.0113722
0.0113702
0.0113679
0.011365
0.0113615
0.0113573
0.0113522
0.0113464
0.0113396
0.0113319
0.0113233
0.0113138
0.0113035
0.0112925
0.0112807
0.0112682
0.0112553
0.0112418
0.011228
0.0112139
0.0111997
0.0111853
0.0111709
0.0111566
0.0111424
0.0113824
0.0113812
0.01138
0.0113788
0.0113777
0.0113765
0.0113754
0.0113742
0.0113729
0.0113714
0.0113696
0.0113675
0.0113649
0.0113618
0.0113581
0.0113537
0.0113485
0.0113426
0.0113359
0.0113285
0.0113202
0.0113113
0.0113016
0.0112913
0.0112804
0.011269
0.0112572
0.011245
0.0112325
0.0112198
0.011207
0.0111941
0.0111811
0.0113824
0.0113812
0.01138
0.0113788
0.0113777
0.0113766
0.0113754
0.0113742
0.0113729
0.0113713
0.0113695
0.0113673
0.0113646
0.0113614
0.0113575
0.0113529
0.0113476
0.0113414
0.0113345
0.0113267
0.0113182
0.0113088
0.0112988
0.011288
0.0112766
0.0112647
0.0112522
0.0112393
0.0112261
0.0112126
0.0111989
0.011185
0.0111709
0.0113824
0.0113812
0.01138
0.0113789
0.0113777
0.0113765
0.0113752
0.0113738
0.011372
0.0113699
0.0113673
0.0113641
0.0113601
0.0113553
0.0113496
0.011343
0.0113354
0.0113268
0.0113172
0.0113067
0.0112952
0.0112828
0.0112696
0.0112556
0.0112409
0.0112255
0.0112097
0.0111933
0.0111766
0.0111596
0.0111423
0.0111249
0.0111072
0.0113824
0.0113812
0.01138
0.0113788
0.0113776
0.0113762
0.0113745
0.0113723
0.0113695
0.0113659
0.0113612
0.0113554
0.0113483
0.0113399
0.0113301
0.0113189
0.0113063
0.0112923
0.0112771
0.0112606
0.011243
0.0112243
0.0112047
0.0111842
0.011163
0.0111412
0.0111188
0.011096
0.0110728
0.0110493
0.0110257
0.011002
0.0109781
0.0113824
0.0113812
0.01138
0.0113787
0.0113772
0.0113751
0.0113723
0.0113683
0.0113628
0.0113556
0.0113465
0.0113353
0.011322
0.0113064
0.0112888
0.0112691
0.0112475
0.011224
0.011199
0.0111725
0.0111447
0.0111158
0.0110859
0.0110552
0.0110238
0.0109919
0.0109596
0.010927
0.0108942
0.0108613
0.0108284
0.0107956
0.0107629
0.0113824
0.0113812
0.0113799
0.0113782
0.0113757
0.0113718
0.0113659
0.0113574
0.0113459
0.0113311
0.0113128
0.011291
0.0112658
0.0112374
0.011206
0.0111719
0.0111354
0.0110969
0.0110566
0.0110148
0.0109718
0.0109278
0.0108831
0.0108379
0.0107923
0.0107465
0.0107007
0.010655
0.0106095
0.0105643
0.0105195
0.0104752
0.0104314
0.0113824
0.0113812
0.0113794
0.0113763
0.0113708
0.0113618
0.0113481
0.0113291
0.0113044
0.0112738
0.0112376
0.0111961
0.0111499
0.0110995
0.0110457
0.0109889
0.0109298
0.0108688
0.0108065
0.0107432
0.0106794
0.0106152
0.010551
0.0104871
0.0104236
0.0103606
0.0102983
0.0102369
0.0101763
0.0101167
0.0100582
0.0100007
0.00994433
0.0113825
0.0113808
0.0113771
0.0113694
0.0113551
0.0113324
0.0113
0.0112575
0.0112053
0.0111441
0.0110752
0.0109998
0.0109192
0.0108346
0.010747
0.0106575
0.0105668
0.0104757
0.0103846
0.0102941
0.0102045
0.010116
0.010029
0.00994351
0.00985976
0.00977781
0.00969771
0.00961953
0.00954326
0.00946893
0.00939651
0.009326
0.00925736
0.0113824
0.0113787
0.0113681
0.0113452
0.0113062
0.0112492
0.0111742
0.0110831
0.0109785
0.0108634
0.0107405
0.0106124
0.0104813
0.0103489
0.0102166
0.0100856
0.00995643
0.00982987
0.00970628
0.00958593
0.009469
0.0093556
0.00924575
0.00913944
0.00903664
0.00893727
0.00884126
0.00874851
0.00865891
0.00857237
0.00848877
0.00840801
0.00832996
0.011382
0.0113691
0.0113328
0.0112639
0.0111598
0.0110234
0.0108614
0.0106809
0.010489
0.0102912
0.010092
0.00989475
0.00970163
0.00951414
0.00933317
0.00915923
0.00899253
0.00883307
0.00868074
0.00853533
0.00839656
0.00826414
0.00813777
0.00801713
0.00790192
0.00779183
0.00768659
0.00758591
0.00748954
0.00739723
0.00730876
0.00722391
0.00714248
0.0113785
0.011325
0.0112002
0.0110017
0.0107452
0.0104521
0.0101413
0.00982729
0.00951944
0.00922351
0.00894274
0.00867845
0.0084308
0.00819929
0.00798309
0.0077812
0.00759256
0.00741614
0.00725096
0.00709608
0.00695067
0.00681395
0.00668519
0.00656377
0.0064491
0.00634065
0.00623795
0.00614056
0.00604808
0.00596018
0.00587651
0.00579679
0.00572075
0.0113536
0.0111263
0.0107265
0.0102237
0.00968896
0.0091673
0.00868027
0.00823578
0.00783456
0.00747436
0.00715155
0.00686176
0.00660077
0.00636486
0.00615077
0.00595574
0.00577741
0.00561378
0.00546312
0.00532397
0.00519507
0.00507534
0.00496382
0.00485972
0.0047623
0.00467094
0.00458509
0.00450427
0.00442803
0.00435601
0.00428785
0.00422326
0.00416195
0.0111683
0.0102734
0.00924381
0.0082943
0.00749028
0.00682626
0.00627763
0.00582155
0.00543877
0.00511535
0.00483884
0.00459969
0.00439072
0.00420646
0.00404273
0.0038962
0.00376427
0.00364482
0.00353613
0.00343679
0.00334562
0.00326163
0.003184
0.003112
0.00304505
0.00298261
0.00292423
0.00286952
0.00281813
0.00276976
0.00272415
0.00268106
0.00264028
0.00982637
0.00723838
0.0057733
0.00486847
0.00424746
0.00378589
0.0034246
0.00313883
0.00290827
0.00271774
0.00255734
0.00242037
0.00230201
0.00219869
0.00210769
0.0020269
0.00195466
0.00188964
0.00183078
0.0017772
0.0017282
0.00168319
0.00164166
0.00160321
0.00156748
0.00153417
0.00150303
0.00147383
0.00144639
0.00142052
0.0013961
0.00137298
0.00135106
0.0041417
0.00254164
0.00204416
0.00174823
0.00154013
0.00137751
0.0012464
0.0011394
0.00105123
0.000977822
0.000916044
0.000863469
0.000818244
0.00077896
0.000744536
0.000714131
0.000687088
0.000662881
0.00064109
0.000621374
0.000603451
0.000587089
0.000572095
0.000558306
0.000545583
0.00053381
0.000522885
0.000512721
0.000503243
0.000494385
0.00048609
0.000478309
0.00047099
0.000119434
0.000124352
0.000129425
0.000134072
0.000138233
0.000142034
0.000145558
0.000148842
0.000151915
0.000154793
0.000157495
0.000160032
0.000162416
0.000164656
0.000166763
0.000168743
0.000170606
0.000172357
0.000174003
0.000175551
0.000177005
0.000178373
0.000179658
0.000180865
0.000181999
0.000183064
0.000184064
0.000185003
0.000185883
0.000186708
0.000187482
0.000188207
0.000188887
6.77731e-05
7.8526e-05
9.454e-05
0.00011485
0.000138241
0.000163672
0.000190595
0.000218806
0.000248235
0.000278744
0.000309952
0.000341151
0.000371337
0.000399377
0.000424221
0.000445074
0.000461492
0.000473389
0.000481013
0.000484969
0.000486387
0.000487391
0.000492175
0.000509126
0.000554308
0.000654619
0.000845905
0.0011677
0.00167083
0.00244718
0.00366502
0.00547496
0.00775564
0.0101105
0.0121717
0.0137808
0.0149458
0.0157457
0.0162715
0.0166038
0.0168074
0.0169333
0.0170215
0.017103
0.0172025
0.0173387
0.0175243
0.0177659
0.0180623
0.0184049
0.0187773
0.0191583
0.0195254
0.0198589
0.0201445
0.0203749
0.020549
0.0206704
0.0207454
0.0207816
0.0207868
0.0207679
0.0207314
0.0206822
0.0206248
0.0205624
0.0204977
0.0204326
0.0203686
0.0203067
0.0202478
0.0201922
0.0201402
0.0200919
0.0200473
0.0200062
0.0199685
0.0199339
0.0199022
0.019873
0.0198461
0.0198212
0.0197979
0.0197759
0.019755
0.0197349
0.0197153
0.019696
0.0196768
0.0196574
0.0196376
0.0196173
0.0195962
0.0195741
0.0195509
0.0195264
0.0195002
0.0194723
0.0194418
0.0194053
0.000127394
0.000129119
0.000132741
0.000138447
0.000146231
0.000155967
0.000167497
0.000180725
0.000195639
0.000212286
0.000230699
0.000250793
0.000272282
0.000294655
0.000317243
0.00033936
0.000360489
0.000380491
0.000399841
0.000419973
0.000443807
0.000476573
0.000526847
0.000607281
0.000734185
0.000926537
0.00120846
0.00161749
0.00221216
0.00308798
0.00440613
0.00629203
0.00859406
0.0109122
0.0129019
0.0144303
0.0155209
0.0162588
0.016736
0.017032
0.0172103
0.0173205
0.0174016
0.0174844
0.0175935
0.0177475
0.0179594
0.0182351
0.0185725
0.0189605
0.0193801
0.0198067
0.0202146
0.0205817
0.0208926
0.02114
0.0213236
0.0214482
0.0215214
0.0215521
0.0215489
0.0215198
0.0214717
0.0214101
0.0213397
0.021264
0.0211859
0.0211074
0.02103
0.0209549
0.0208829
0.0208145
0.0207498
0.0206891
0.0206324
0.0205795
0.0205302
0.0204844
0.0204418
0.020402
0.0203649
0.0203301
0.0202972
0.0202661
0.0202363
0.0202078
0.0201801
0.0201531
0.0201265
0.0201002
0.0200738
0.0200473
0.0200205
0.0199931
0.019965
0.0199359
0.0199058
0.0198742
0.0198404
0.0198011
0.000251312
0.000250292
0.000250632
0.000252798
0.000256984
0.000263117
0.00027096
0.00028019
0.00029047
0.000301549
0.000313343
0.000325966
0.000339711
0.00035498
0.000372232
0.000391995
0.00041497
0.000442238
0.000475539
0.000517605
0.000572485
0.000645818
0.000745038
0.000879753
0.00106282
0.00131257
0.00165661
0.00213627
0.00280935
0.00376573
0.00515388
0.00707666
0.00936758
0.0116358
0.0135587
0.0150205
0.0160531
0.0167439
0.0171848
0.0174541
0.0176138
0.0177129
0.0177897
0.017875
0.0179936
0.0181645
0.0184007
0.0187083
0.0190842
0.0195157
0.0199811
0.0204526
0.0209013
0.0213027
0.0216402
0.021906
0.0221005
0.0222295
0.0223019
0.0223277
0.0223165
0.0222772
0.0222172
0.0221427
0.0220585
0.0219687
0.021876
0.0217829
0.0216909
0.0216013
0.0215149
0.0214323
0.0213537
0.0212793
0.0212092
0.0211432
0.0210812
0.0210231
0.0209685
0.0209171
0.0208688
0.0208232
0.0207799
0.0207389
0.0206996
0.020662
0.0206257
0.0205905
0.0205561
0.0205225
0.0204893
0.0204564
0.0204236
0.0203907
0.0203576
0.0203241
0.0202899
0.0202547
0.0202179
0.0201758
0.000453376
0.000450331
0.000449105
0.000450138
0.000453602
0.00045935
0.000467053
0.000476292
0.000486643
0.000497777
0.000509562
0.000522138
0.000535953
0.000551758
0.000570581
0.000593713
0.000622727
0.000659555
0.000706628
0.000767073
0.000844977
0.000945741
0.00107662
0.00124753
0.00147239
0.00177109
0.00217248
0.00271702
0.00345771
0.00447656
0.0059084
0.0078371
0.0100918
0.0122993
0.0141579
0.0155632
0.01655
0.0172055
0.0176199
0.01787
0.0180169
0.0181086
0.0181833
0.0182719
0.0183994
0.0185855
0.0188437
0.0191801
0.0195913
0.0200632
0.0205719
0.0210867
0.0215758
0.022012
0.0223771
0.022663
0.0228702
0.0230053
0.0230783
0.0231002
0.0230819
0.0230328
0.0229611
0.0228735
0.0227753
0.0226707
0.0225629
0.0224544
0.022347
0.0222419
0.0221401
0.0220422
0.0219486
0.0218595
0.0217749
0.0216949
0.0216192
0.0215478
0.0214803
0.0214165
0.0213561
0.021299
0.0212447
0.021193
0.0211437
0.0210964
0.021051
0.0210071
0.0209647
0.0209234
0.020883
0.0208435
0.0208046
0.0207661
0.0207279
0.0206898
0.0206516
0.0206129
0.020573
0.0205284
0.000721393
0.000716281
0.000713432
0.00071322
0.000715789
0.000720987
0.000728494
0.000737911
0.000748842
0.000761006
0.000774344
0.0007891
0.000805855
0.000825535
0.000849398
0.000879021
0.000916326
0.000963637
0.0010238
0.00110035
0.00119783
0.00132216
0.00148122
0.00168577
0.00195059
0.00229629
0.00275143
0.00335349
0.0041491
0.00521211
0.00666433
0.00857433
0.0107741
0.0129131
0.0147095
0.016066
0.0170167
0.017646
0.0180419
0.0182792
0.0184178
0.0185053
0.0185797
0.018672
0.0188076
0.0190069
0.0192841
0.0196456
0.0200879
0.0205963
0.0211449
0.0217005
0.0222286
0.0226996
0.0230934
0.0234009
0.0236227
0.023766
0.0238415
0.0238613
0.0238371
0.0237792
0.0236964
0.0235961
0.023484
0.0233646
0.0232413
0.023117
0.0229935
0.0228723
0.0227544
0.0226405
0.0225312
0.0224265
0.0223268
0.0222319
0.0221418
0.0220563
0.0219752
0.0218982
0.0218252
0.0217559
0.02169
0.0216271
0.0215672
0.0215098
0.0214548
0.0214019
0.021351
0.0213017
0.021254
0.0212076
0.0211623
0.0211181
0.0210747
0.021032
0.0209897
0.0209475
0.0209047
0.0208575
0.00106806
0.00105977
0.00105426
0.00105184
0.00105261
0.0010564
0.00106289
0.00107168
0.00108243
0.00109493
0.00110923
0.00112572
0.00114515
0.00116862
0.00119759
0.00123389
0.00127971
0.00133767
0.00141097
0.00150358
0.0016205
0.00176818
0.00195511
0.0021926
0.00249589
0.00288544
0.00338835
0.00403783
0.00487389
0.00596285
0.00741476
0.00928647
0.0114178
0.0134833
0.0152197
0.0165336
0.017456
0.0180668
0.0184507
0.0186804
0.0188149
0.0189008
0.0189762
0.0190722
0.0192149
0.0194251
0.0197179
0.0201002
0.0205689
0.0211088
0.0216929
0.022286
0.0228512
0.0233563
0.0237794
0.0241102
0.0243487
0.0245024
0.0245827
0.0246025
0.0245741
0.0245089
0.0244162
0.024304
0.0241784
0.0240445
0.0239059
0.0237657
0.023626
0.0234884
0.023354
0.0232238
0.0230981
0.0229775
0.022862
0.0227517
0.0226465
0.0225464
0.0224511
0.0223605
0.0222743
0.0221922
0.0221141
0.0220397
0.0219686
0.0219008
0.0218358
0.0217735
0.0217138
0.0216563
0.0216009
0.0215474
0.0214956
0.0214455
0.0213967
0.0213493
0.0213029
0.0212572
0.0212113
0.0211616
0.00151119
0.00149765
0.00148752
0.00148104
0.00147824
0.00147892
0.00148274
0.00148933
0.00149841
0.00150985
0.00152382
0.00154086
0.00156187
0.00158815
0.00162137
0.00166357
0.00171721
0.00178521
0.00187108
0.00197915
0.00211481
0.00228492
0.00249834
0.00276665
0.00310494
0.00353286
0.00407505
0.00475988
0.00562118
0.00671879
0.00815242
0.00997039
0.0120238
0.014013
0.0156917
0.0169685
0.017869
0.0184677
0.0188452
0.0190721
0.0192058
0.0192925
0.0193699
0.0194697
0.0196181
0.0198368
0.0201415
0.02054
0.0210298
0.0215955
0.0222099
0.0228363
0.0234357
0.0239738
0.0244265
0.0247819
0.0250393
0.025206
0.0252936
0.0253157
0.0252854
0.0252146
0.0251136
0.0249907
0.0248527
0.024705
0.0245516
0.0243958
0.02424
0.024086
0.0239352
0.0237883
0.0236462
0.0235093
0.0233777
0.0232516
0.023131
0.0230158
0.022906
0.0228012
0.0227014
0.0226063
0.0225156
0.0224291
0.0223466
0.0222678
0.0221926
0.0221206
0.0220517
0.0219857
0.0219223
0.0218615
0.021803
0.0217468
0.0216926
0.0216402
0.0215896
0.0215403
0.0214913
0.021439
0.00206104
0.0020398
0.00202266
0.00200976
0.0020011
0.00199643
0.00199542
0.00199774
0.00200316
0.00201168
0.00202357
0.00203952
0.00206058
0.00208822
0.00212431
0.0021711
0.00223128
0.00230802
0.00240511
0.00252714
0.00267979
0.00287016
0.00310725
0.0034025
0.00377044
0.00422922
0.00480047
0.00550767
0.00637934
0.0074699
0.00887004
0.0106223
0.0125913
0.0145032
0.0161269
0.0173714
0.0182557
0.0188478
0.0192239
0.0194519
0.0195879
0.0196774
0.019758
0.0198613
0.0200142
0.0202388
0.0205517
0.0209616
0.0214667
0.0220523
0.022691
0.0233457
0.0239758
0.0245449
0.0250269
0.025408
0.0256863
0.0258685
0.0259662
0.0259934
0.0259636
0.0258896
0.0257822
0.0256502
0.0255012
0.0253407
0.0251733
0.0250027
0.0248313
0.0246612
0.024494
0.0243308
0.0241722
0.0240188
0.023871
0.023729
0.0235928
0.0234623
0.0233376
0.0232185
0.0231047
0.0229961
0.0228926
0.0227938
0.0226995
0.0226095
0.0225236
0.0224416
0.0223633
0.0222885
0.0222169
0.0221485
0.0220831
0.0220205
0.0219606
0.0219032
0.0218481
0.021795
0.0217429
0.0216878
0.0027159
0.00268479
0.00265841
0.00263688
0.00262012
0.00260789
0.00259987
0.0025958
0.00259554
0.00259917
0.00260712
0.00262019
0.00263958
0.00266691
0.00270423
0.00275395
0.00281895
0.0029026
0.00300891
0.00314264
0.00330963
0.00351702
0.0037737
0.00409065
0.00448142
0.00496226
0.0055515
0.00626815
0.00713646
0.00820627
0.00956046
0.011238
0.0131185
0.0149532
0.0165249
0.0177415
0.0186146
0.0192051
0.0195842
0.0198171
0.0199583
0.0200526
0.0201373
0.0202441
0.0204002
0.0206283
0.0209458
0.0213622
0.0218767
0.0224758
0.0231325
0.0238098
0.0244663
0.0250638
0.0255742
0.0259816
0.0262826
0.0264827
0.0265934
0.0266284
0.0266021
0.0265273
0.0264157
0.0262767
0.0261182
0.0259465
0.0257664
0.0255817
0.0253955
0.0252101
0.025027
0.0248476
0.0246728
0.0245032
0.0243393
0.0241813
0.0240294
0.0238836
0.0237439
0.0236101
0.0234823
0.02336
0.0232433
0.0231319
0.0230256
0.0229241
0.0228274
0.022735
0.022647
0.0225631
0.0224831
0.0224068
0.0223341
0.0222649
0.0221991
0.0221364
0.0220767
0.0220196
0.021964
0.0219061
0.00346208
0.00341974
0.00338269
0.00335098
0.00332451
0.00330306
0.00328638
0.00327425
0.00326665
0.00326377
0.00326616
0.00327475
0.00329086
0.00331627
0.00335311
0.00340398
0.00347188
0.00356032
0.00367343
0.00381608
0.00399408
0.00421448
0.00448578
0.00481828
0.00522422
0.00571771
0.00631389
0.00702794
0.00788078
0.00891834
0.0102167
0.0118129
0.0136026
0.0153611
0.016884
0.018077
0.0189436
0.019537
0.0199233
0.0201645
0.0203137
0.0204147
0.0205046
0.0206149
0.0207732
0.0210026
0.0213211
0.0217393
0.0222575
0.0228635
0.0235317
0.0242256
0.0249035
0.0255261
0.0260633
0.0264971
0.026822
0.0270423
0.0271686
0.0272145
0.0271944
0.0271218
0.0270085
0.0268648
0.0266988
0.0265175
0.026326
0.0261287
0.0259288
0.0257287
0.0255305
0.0253356
0.025145
0.0249595
0.0247797
0.0246059
0.0244385
0.0242773
0.0241226
0.0239742
0.0238321
0.0236961
0.0235661
0.0234419
0.0233233
0.0232101
0.0231022
0.0229993
0.0229013
0.0228079
0.0227191
0.0226347
0.0225546
0.0224785
0.0224064
0.0223381
0.0222735
0.0222121
0.0221529
0.0220918
0.00427649
0.00422278
0.00417471
0.00413232
0.00409552
0.00406413
0.00403796
0.0040169
0.00400101
0.00399063
0.00398641
0.00398938
0.00400101
0.00402314
0.00405804
0.00410838
0.00417727
0.0042683
0.00438563
0.00453412
0.00471945
0.00494839
0.0052289
0.00557033
0.0059835
0.00648035
0.00707309
0.00777383
0.00860096
0.00959697
0.0108319
0.0123425
0.0140403
0.0157241
0.0172013
0.0183747
0.0192392
0.0198399
0.0202374
0.0204905
0.0206504
0.0207602
0.0208563
0.0209705
0.0211302
0.0213589
0.0216752
0.0220908
0.0226072
0.0232139
0.0238869
0.024591
0.0252849
0.0259286
0.0264903
0.0269498
0.0272995
0.0275418
0.0276863
0.027746
0.0277351
0.0276674
0.0275553
0.0274092
0.0272381
0.0270491
0.026848
0.0266395
0.026427
0.0262135
0.0260011
0.0257913
0.0255856
0.0253848
0.0251895
0.0250003
0.0248175
0.0246412
0.0244716
0.0243086
0.0241522
0.0240024
0.023859
0.0237218
0.0235908
0.0234657
0.0233463
0.0232326
0.0231244
0.0230214
0.0229236
0.0228307
0.0227427
0.0226594
0.0225807
0.0225065
0.0224366
0.0223706
0.0223074
0.0222429
0.00513025
0.00506629
0.00500809
0.0049557
0.00490906
0.00486807
0.00483261
0.00480268
0.00477845
0.00476037
0.0047492
0.00474608
0.00475254
0.00477053
0.00480238
0.00485083
0.00491902
0.00501056
0.00512958
0.0052808
0.00546971
0.0057026
0.00598678
0.00633056
0.00674325
0.00723478
0.00781484
0.00849318
0.0092863
0.0102335
0.0113995
0.0128216
0.0144274
0.0160382
0.0174727
0.0186304
0.0194971
0.0201094
0.0205221
0.0207906
0.0209642
0.0210849
0.0211888
0.0213072
0.0214678
0.0216943
0.0220058
0.0224148
0.0229244
0.0235258
0.0241971
0.0249049
0.025609
0.0262693
0.0268525
0.0273364
0.027711
0.0279768
0.0281416
0.0282178
0.0282191
0.0281593
0.028051
0.0279052
0.0277313
0.0275368
0.0273281
0.02711
0.0268866
0.0266609
0.0264353
0.0262118
0.0259917
0.0257762
0.025566
0.0253619
0.0251641
0.0249729
0.0247886
0.0246111
0.0244406
0.0242769
0.0241201
0.0239699
0.0238263
0.0236891
0.0235582
0.0234335
0.0233147
0.0232018
0.0230946
0.022993
0.0228968
0.022806
0.0227204
0.0226399
0.0225643
0.0224933
0.0224257
0.0223573
0.00599245
0.00592047
0.00585411
0.00579347
0.00573855
0.0056893
0.00564572
0.00560791
0.00557616
0.005551
0.0055333
0.00552428
0.00552555
0.0055391
0.00556729
0.00561289
0.00567903
0.00576929
0.00588767
0.00603872
0.00622756
0.00646
0.00674256
0.00708248
0.00748764
0.00796614
0.00852568
0.00917425
0.00992688
0.0108199
0.0119132
0.0132451
0.0147592
0.0162987
0.0176931
0.0188388
0.019712
0.0203402
0.0207723
0.0210599
0.0212502
0.0213843
0.0214976
0.0216213
0.0217827
0.0220059
0.0223104
0.0227096
0.0232078
0.0237984
0.0244618
0.025167
0.0258753
0.0265472
0.0271483
0.0276546
0.0280536
0.0283436
0.0285305
0.0286255
0.0286417
0.0285926
0.0284911
0.0283484
0.0281742
0.0279766
0.0277623
0.0275365
0.0273037
0.0270673
0.0268299
0.0265936
0.0263602
0.0261308
0.0259065
0.0256879
0.0254756
0.02527
0.0250713
0.0248797
0.0246951
0.0245178
0.0243475
0.0241843
0.0240281
0.0238787
0.0237361
0.0236001
0.0234706
0.0233475
0.0232306
0.0231199
0.0230152
0.0229165
0.0228235
0.0227363
0.0226547
0.0225782
0.0225058
0.0224331
0.0068333
0.00675634
0.00668463
0.00661832
0.00655747
0.00650213
0.00645241
0.00640849
0.00637076
0.00633987
0.00631674
0.00630266
0.00629928
0.00630862
0.00633304
0.00637529
0.00643846
0.00652601
0.00664179
0.00679007
0.00697558
0.00720353
0.00747967
0.0078102
0.00820167
0.00866064
0.00919326
0.00980632
0.0105136
0.0113487
0.0123668
0.0136078
0.0150307
0.0165001
0.0178567
0.0189936
0.0198773
0.020526
0.0209818
0.0212924
0.0215029
0.0216532
0.021778
0.0219082
0.022071
0.0222904
0.0225863
0.0229729
0.023456
0.024031
0.0246809
0.0253774
0.026084
0.026762
0.0273769
0.0279028
0.028325
0.0286393
0.0288495
0.0289653
0.0289989
0.0289633
0.0288713
0.0287344
0.0285626
0.0283642
0.0281465
0.0279152
0.0276748
0.0274292
0.0271814
0.0269337
0.026688
0.0264457
0.0262081
0.0259758
0.0257497
0.0255301
0.0253174
0.0251119
0.0249136
0.0247227
0.0245392
0.0243631
0.0241942
0.0240326
0.0238781
0.0237308
0.0235903
0.0234568
0.02333
0.0232098
0.0230963
0.0229892
0.0228886
0.0227942
0.022706
0.0226236
0.0225459
0.0224683
0.00762675
0.00754824
0.00747442
0.00740549
0.00734158
0.00728285
0.00722946
0.00718173
0.00714011
0.00710534
0.00707838
0.00706058
0.00705359
0.00705941
0.0070804
0.00711923
0.00717889
0.00726271
0.00737431
0.00751764
0.007697
0.00791699
0.00818258
0.00849899
0.00887164
0.00930584
0.0098066
0.0103798
0.0110384
0.0118129
0.0127546
0.0139045
0.0152364
0.0166363
0.0179563
0.0190872
0.0199854
0.020659
0.0211432
0.0214812
0.0217157
0.0218854
0.0220244
0.0221629
0.0223281
0.0225439
0.0228304
0.0232026
0.0236676
0.0242229
0.0248543
0.0255364
0.0262354
0.0269142
0.0275382
0.0280804
0.0285238
0.0288617
0.0290959
0.029234
0.029287
0.0292675
0.0291877
0.0290592
0.0288923
0.0286958
0.028477
0.0282421
0.0279961
0.0277431
0.0274865
0.0272287
0.026972
0.0267179
0.0264679
0.0262228
0.0259835
0.0257506
0.0255245
0.0253055
0.0250939