/*--------------------------------*- C++ -*----------------------------------*\
| =========                 |                                                 |
| \\      /  F ield         | OpenFOAM: The Open Source CFD Toolbox           |
|  \\    /   O peration     | Version:  4.1                                   |
|   \\  /    A nd           | Web:      www.OpenFOAM.org                      |
|    \\/     M anipulation  |                                                 |
\*---------------------------------------------------------------------------*/
FoamFile
{
    version     2.0;
    format      ascii;
    class       volScalarField;
    location    "200";
    object      omega;
}
// * * * * * * * * * * * * * * * * * * * * * * * * * * * * * * * * * * * * * //

dimensions      [0 0 -1 0 0 0 0];

internalField   nonuniform List<scalar> 
6820
(
7254.62
8569.04
9629.31
10283.1
10668.7
10886.4
10996.7
11036.4
11029
10990.3
10931.4
10859.8
10780.8
10698.2
10614.7
10531.9
10451.3
10373.5
10299
10228.4
10161.6
10098.8
10040.1
9985.28
9934.42
9887.44
9844.28
9804.89
9769.19
9737.65
9706.78
9691.55
9618.24
600.791
1554.14
2092.73
2434.68
2697.39
2893.64
3031.23
3124.06
3185.12
3224.04
3247.66
3260.84
3266.97
3268.41
3266.73
3262.98
3257.89
3251.89
3245.27
3238.16
3230.61
3222.6
3214.05
3204.83
3194.74
3183.56
3171.01
3156.76
3140.39
3122.15
3103.17
3082.43
3060.06
107.109
368.9
596.343
767.298
894.818
993.05
1070.12
1130.88
1178.77
1216.4
1245.85
1268.78
1286.51
1300.14
1310.53
1318.35
1324.15
1328.35
1331.29
1333.23
1334.36
1334.84
1334.78
1334.27
1333.36
1332.08
1330.45
1328.47
1326.04
1323.44
1319.94
1314.89
1308.45
37.6578
108.374
189.179
265.469
332.147
389.189
437.754
479.128
514.442
544.618
570.412
592.453
611.282
627.358
641.074
652.767
662.725
671.193
678.379
684.459
689.581
693.87
697.43
700.347
702.69
704.514
705.862
706.749
707.252
707.249
706.613
705.193
702.984
23.8007
47.5344
77.6902
109.799
141.191
170.644
197.71
222.326
244.6
264.695
282.789
299.055
313.664
326.771
338.521
349.048
358.471
366.9
374.43
381.15
387.136
392.455
397.166
401.321
404.962
408.127
410.841
413.146
415.024
416.459
417.437
417.914
417.885
19.8176
29.4733
42.5019
57.1956
72.4302
87.5293
102.118
116.002
129.095
141.366
152.818
163.469
173.352
182.505
190.966
198.778
205.98
212.612
218.712
224.314
229.451
234.152
238.446
242.355
245.9
249.102
251.979
254.532
256.765
258.679
260.27
261.525
262.443
18.434
22.8139
29.1646
36.6403
44.6674
52.8811
61.0578
69.062
76.8123
84.2601
91.3773
98.1499
104.573
110.649
116.384
121.785
126.865
131.633
136.103
140.286
144.195
147.84
151.233
154.383
157.301
159.994
162.465
164.718
166.756
168.579
170.186
171.573
172.739
17.9114
19.9893
23.3014
27.4076
31.9641
36.7434
41.6013
46.4464
51.2198
55.8824
60.4085
64.781
68.9892
73.027
76.8913
80.5813
84.098
87.4434
90.6204
93.6326
96.4834
99.1769
101.717
104.107
106.351
108.451
110.407
112.222
113.896
115.431
116.824
118.074
119.182
17.7059
18.7005
20.4713
22.8174
25.5299
28.4541
31.4867
34.5602
37.63
40.6655
43.6457
46.5558
49.3856
52.128
54.7782
57.3331
59.7909
62.1508
64.4126
66.5766
68.6435
70.6144
72.4905
74.2726
75.9611
77.5569
79.0605
80.4725
81.793
83.0219
84.1588
85.2027
86.1536
17.6232
18.0945
19.0385
20.3917
22.0396
23.8787
25.8329
27.8492
29.8914
31.9344
33.9604
35.9566
37.9139
39.8256
41.6868
43.494
45.2448
46.9375
48.5708
50.1441
51.657
53.1096
54.5016
55.8328
57.1034
58.3134
59.463
60.5522
61.5808
62.5488
63.4558
64.3012
65.0851
17.5896
17.8077
18.3012
19.0729
20.0722
21.2368
22.5128
23.8591
25.2459
26.6518
28.0611
29.4626
30.8479
32.2107
33.5463
34.8513
36.123
37.3595
38.5592
39.7212
40.8446
41.9289
42.9734
43.978
44.9423
45.8662
46.7496
47.5923
48.3943
49.1552
49.875
50.5533
51.19
17.5758
17.6729
17.923
18.352
18.9472
19.6773
20.5078
21.4091
22.3573
23.3345
24.3271
25.3248
26.3199
27.3065
28.2802
29.2376
30.1758
31.0929
31.9874
32.8579
33.7035
34.5234
35.3169
36.0837
36.8234
37.5357
38.2203
38.8772
39.506
40.1068
40.6792
41.2232
41.7384
17.5702
17.6102
17.7317
17.9619
18.306
18.7532
19.2849
19.8818
20.5265
21.2046
21.9047
22.6179
23.337
24.0566
24.7725
25.4813
26.1804
26.8676
27.5414
28.2004
28.8435
29.4699
30.0789
30.6699
31.2426
31.7966
32.3316
32.8475
33.344
33.821
34.2783
34.7158
35.1333
17.5678
17.5815
17.6369
17.7548
17.9461
18.211
18.5422
18.929
19.36
19.8248
20.3144
20.8213
21.3395
21.8639
22.3907
22.9167
23.4393
23.9565
24.4666
24.9681
25.4601
25.9416
26.4119
26.8704
27.3166
27.7503
28.1709
28.5785
28.9726
29.3532
29.7201
30.0732
30.4123
17.5668
17.5686
17.5909
17.6475
17.7487
17.8991
18.098
18.3409
18.6215
18.9332
19.2695
19.6247
19.9938
20.3727
20.7577
21.1461
21.5355
21.9239
22.3096
22.6913
23.0679
23.4386
23.8025
24.159
24.5076
24.848
25.1798
25.5027
25.8165
26.1211
26.4163
26.7019
26.9777
17.5665
17.5629
17.5692
17.5935
17.6434
17.7243
17.8383
17.9848
18.1613
18.364
18.5891
18.8323
19.0902
19.3593
19.6369
19.9203
20.2075
20.4967
20.7863
21.0752
21.3622
21.6465
21.9272
22.2038
22.4758
22.7428
23.0043
23.2601
23.51
23.7538
23.9914
24.2224
24.4468
17.5663
17.5604
17.5592
17.567
17.5889
17.6292
17.6908
17.7748
17.881
18.0078
18.1533
18.3149
18.4903
18.6769
18.8728
19.0757
19.2841
19.4963
19.7111
19.9272
20.1437
20.3598
20.5748
20.788
20.999
21.2073
21.4125
21.6145
21.8129
22.0075
22.1982
22.3847
22.5668
17.5662
17.5594
17.5547
17.5544
17.5616
17.5791
17.6096
17.6546
17.715
17.7906
17.8806
17.984
18.0991
18.2247
18.359
18.5007
18.6485
18.801
18.9573
19.1163
19.2772
19.4393
19.6019
19.7644
19.9264
20.0875
20.2474
20.4057
20.5622
20.7167
20.8691
21.019
21.1663
17.5662
17.5589
17.5527
17.5486
17.5483
17.5536
17.5664
17.5881
17.6198
17.6621
17.7148
17.7778
17.8502
17.9314
18.0204
18.1162
18.218
18.3248
18.4358
18.5503
18.6675
18.7869
18.9078
19.0299
19.1527
19.2758
19.3989
19.5218
19.6442
19.766
19.8869
20.0067
20.1252
17.5662
17.5588
17.5519
17.546
17.5421
17.5411
17.5442
17.5526
17.5671
17.5885
17.6172
17.6531
17.6963
17.7463
17.8028
17.8651
17.9328
18.0053
18.0819
18.1621
18.2455
18.3315
18.4198
18.5098
18.6014
18.6942
18.7878
18.8822
18.977
19.0721
19.1674
19.2625
19.3574
17.5662
17.5587
17.5515
17.5449
17.5392
17.5351
17.5332
17.5342
17.539
17.548
17.5617
17.5804
17.6042
17.6332
17.6672
17.7059
17.7491
17.7965
17.8477
17.9023
17.9601
18.0207
18.0838
18.1491
18.2163
18.2852
18.3557
18.4274
18.5002
18.5741
18.6487
18.724
18.7997
17.5662
17.5587
17.5514
17.5444
17.538
17.5323
17.5279
17.5251
17.5245
17.5264
17.5313
17.5395
17.5513
17.5667
17.5857
17.6085
17.6349
17.6647
17.6978
17.734
17.7732
17.8151
17.8595
17.9062
17.9551
18.006
18.0587
18.1131
18.169
18.2264
18.285
18.3448
18.4055
17.5662
17.5587
17.5513
17.5442
17.5374
17.5311
17.5255
17.5208
17.5174
17.5156
17.5156
17.5178
17.5223
17.5295
17.5393
17.5519
17.5674
17.5857
17.6067
17.6305
17.6569
17.6859
17.7172
17.7509
17.7868
17.8247
17.8647
17.9065
17.9501
17.9955
18.0424
18.0907
18.1404
17.5662
17.5587
17.5513
17.5441
17.5372
17.5306
17.5245
17.519
17.5143
17.5106
17.5082
17.5073
17.508
17.5107
17.5154
17.5223
17.5315
17.543
17.5569
17.5732
17.5918
17.6128
17.6361
17.6616
17.6892
17.719
17.7508
17.7846
17.8204
17.8579
17.8972
17.9382
17.9807
17.5662
17.5587
17.5513
17.5441
17.5372
17.5305
17.5243
17.5185
17.5134
17.5091
17.5059
17.5039
17.5033
17.5043
17.507
17.5116
17.5183
17.527
17.5379
17.5509
17.5662
17.5837
17.6034
17.6253
17.6493
17.6754
17.7035
17.7337
17.7658
17.7998
17.8357
17.8733
17.9125
17.5662
17.5587
17.5513
17.5442
17.5373
17.5307
17.5246
17.5191
17.5143
17.5104
17.5077
17.5063
17.5063
17.508
17.5115
17.517
17.5245
17.5341
17.5459
17.5598
17.576
17.5944
17.615
17.6377
17.6626
17.6895
17.7186
17.7496
17.7825
17.8174
17.8541
17.8925
17.9326
17.5662
17.5587
17.5513
17.5443
17.5376
17.5314
17.5258
17.5212
17.5176
17.5154
17.5147
17.5158
17.5189
17.5241
17.5315
17.5413
17.5534
17.568
17.5849
17.6043
17.626
17.65
17.6763
17.7049
17.7355
17.7683
17.8031
17.8398
17.8784
17.9189
17.9611
18.005
18.0504
17.5662
17.5587
17.5515
17.5446
17.5384
17.5331
17.5289
17.5263
17.5256
17.5271
17.5312
17.538
17.5477
17.5604
17.5761
17.5949
17.6168
17.6415
17.6691
17.6995
17.7325
17.7679
17.8058
17.8459
17.8882
17.9325
17.9787
18.0268
18.0766
18.1282
18.1813
18.2358
18.2918
17.5662
17.5588
17.5518
17.5456
17.5406
17.5373
17.5364
17.5385
17.544
17.5535
17.5671
17.5851
17.6076
17.6343
17.6654
17.7004
17.7394
17.7819
17.8278
17.8768
17.9286
17.9831
18.04
18.099
18.1602
18.2232
18.2879
18.3541
18.4219
18.491
18.5614
18.6329
18.7055
17.5662
17.559
17.5528
17.5482
17.5463
17.5482
17.5549
17.5674
17.5863
17.6118
17.6443
17.6835
17.7292
17.781
17.8384
17.901
17.9682
18.0396
18.1147
18.1931
18.2743
18.358
18.4439
18.5316
18.6211
18.7119
18.804
18.8971
18.9912
19.0861
19.1817
19.2779
19.3746
17.5663
17.5598
17.5556
17.5556
17.5619
17.5765
17.6009
17.6362
17.6828
17.7404
17.8085
17.8865
17.9732
18.0679
18.1693
18.2766
18.389
18.5055
18.6255
18.7484
18.8736
19.0006
19.1291
19.2586
19.389
19.5198
19.6511
19.7824
19.9139
20.0452
20.1764
20.3074
20.4379
17.5665
17.5622
17.5644
17.5773
17.6052
17.6507
17.7155
17.7996
17.9019
18.021
18.1547
18.3011
18.458
18.6236
18.7962
18.9742
19.1565
19.3419
19.5295
19.7186
19.9085
20.0987
20.2887
20.4782
20.667
20.8548
21.0414
21.2268
21.4107
21.5933
21.7743
21.9537
22.1316
17.5673
17.5707
17.5928
17.6428
17.7266
17.846
17.9997
18.1843
18.3953
18.6281
18.8782
19.1416
19.4149
19.6953
19.9805
20.2686
20.558
20.8476
21.1364
21.4236
21.7087
21.9912
22.2707
22.5471
22.8202
23.0898
23.3559
23.6184
23.8774
24.1329
24.3848
24.6334
24.8784
17.5706
17.6017
17.6877
17.8426
18.0682
18.3577
18.7003
19.0845
19.4997
19.9367
20.3882
20.8484
21.3128
21.778
22.2417
22.7019
23.1572
23.6067
24.0498
24.4859
24.9147
25.3361
25.7499
26.1563
26.5552
26.9467
27.331
27.7082
28.0785
28.4421
28.7992
29.15
29.4945
17.5853
17.7223
18.0135
18.4588
19.0319
19.6994
20.4308
21.2021
21.9955
22.7981
23.6005
24.3963
25.1814
25.9531
26.7097
27.4504
28.1746
28.8821
29.5732
30.2478
30.9064
31.5494
32.1771
32.7901
33.3888
33.9736
34.5451
35.1037
35.65
36.1843
36.7071
37.2189
37.7199
17.6614
18.2171
19.1641
20.3972
21.806
23.3066
24.844
26.3838
27.9057
29.3959
30.8462
32.2534
33.6169
34.9373
36.2158
37.454
38.6536
39.8161
40.9432
42.0365
43.0975
44.1277
45.1283
46.1007
47.0462
47.966
48.8611
49.7326
50.5815
51.4088
52.2155
53.0023
53.7701
18.1027
20.3872
23.4897
26.9341
30.454
33.9221
37.285
40.5161
43.6067
46.546
49.343
52.0099
54.5581
56.9974
59.3363
61.582
63.7408
65.8184
67.8196
69.7489
71.6103
73.4076
75.1441
76.8231
78.4475
80.02
81.5433
83.0199
84.452
85.8418
87.1913
88.5026
89.7775
21.2179
31.4414
42.4893
53.1327
62.9884
72.0629
80.4883
88.2294
95.3593
101.995
108.22
114.09
119.645
124.915
129.927
134.701
139.255
143.605
147.766
151.75
155.569
159.235
162.758
166.148
169.413
172.562
175.603
178.542
181.386
184.142
186.815
189.411
191.936
59.9557
123.976
170.352
207.203
238.424
267.166
294.24
319.624
343.228
365.04
385.139
403.654
420.742
436.556
451.244
464.938
477.754
489.797
501.157
511.913
522.133
531.878
541.201
550.146
558.755
567.062
575.098
582.891
590.463
597.835
605.026
612.052
618.928
1719.4
1778.24
1839.25
1895.41
1945.92
1992.2
2035.23
2075.45
2113.15
2148.55
2181.83
2213.13
2242.58
2270.31
2296.4
2320.97
2344.08
2365.84
2386.31
2405.57
2423.69
2440.73
2456.76
2471.82
2485.97
2499.27
2511.76
2523.49
2534.49
2544.82
2554.5
2563.56
2572.07
9448.9
8904
8257.71
7583.36
6941.57
6357.39
5841.63
5393.93
5007.43
4671.53
4373.95
4102.36
3845.95
3596.41
3348.03
3097
2840.41
2575.68
2300.67
2014.57
1719.26
1420.94
1131.15
866.081
642.993
473.624
358.06
285.123
240.415
213.516
198.403
191.527
190.964
195.426
203.494
213.672
224.65
235.404
245.178
253.409
259.671
263.632
265.041
263.743
259.714
253.098
244.238
233.666
222.054
210.123
198.539
187.818
178.287
170.085
163.2
157.527
152.912
149.189
146.204
143.819
141.921
140.419
139.239
138.323
137.626
137.112
136.752
136.523
136.406
136.387
136.452
136.592
136.797
137.06
137.374
137.734
138.136
138.574
139.046
139.548
140.077
140.63
141.207
141.803
142.419
143.051
143.699
144.361
145.037
145.724
146.422
147.131
147.848
148.574
149.307
150.046
150.791
151.541
152.297
153.066
3014.85
2970.26
2917.61
2849.52
2768.23
2678.06
2583.54
2489.36
2399.54
2316.14
2238.44
2162.94
2084.06
1995.55
1891.97
1769.84
1628.2
1468.65
1295.19
1113.92
932.78
760.988
607.786
480.374
381.646
309.391
258.184
222.529
198.506
183.516
175.631
173.473
176.236
183.126
192.995
204.538
216.584
228.204
238.698
247.538
254.31
258.686
260.411
259.322
255.395
248.781
239.845
229.153
217.419
205.402
193.795
183.126
173.719
165.697
159.031
153.599
149.231
145.754
143.004
140.842
139.154
137.846
136.847
136.099
135.557
135.186
134.959
134.852
134.849
134.935
135.098
135.327
135.615
135.954
136.338
136.763
137.223
137.715
138.236
138.782
139.352
139.942
140.551
141.176
141.818
142.473
143.141
143.82
144.51
145.21
145.918
146.634
147.357
148.087
148.822
149.562
150.306
151.053
151.803
152.561
1296.14
1277.46
1252.85
1220.84
1182.2
1139.18
1094.46
1050.65
1009.86
973.286
941.004
911.963
884.138
854.858
821.284
780.988
732.507
675.752
612.165
544.535
476.509
411.829
353.512
303.277
261.523
227.818
201.459
181.757
168.108
159.925
156.588
157.63
162.743
171.378
182.556
195.115
207.994
220.335
231.479
240.918
248.245
253.127
255.298
254.585
250.949
244.54
235.727
225.096
213.389
201.396
189.834
179.25
169.967
162.105
155.626
150.394
146.234
142.961
140.41
138.439
136.929
135.79
134.948
134.346
133.94
133.695
133.585
133.587
133.684
133.862
134.11
134.417
134.777
135.181
135.626
136.105
136.615
137.152
137.713
138.295
138.896
139.515
140.149
140.796
141.456
142.127
142.808
143.498
144.196
144.901
145.613
146.331
147.055
147.782
148.514
149.249
149.987
150.726
151.466
152.209
698.747
691.719
682.055
669.248
653.355
634.979
614.979
594.263
573.637
553.658
534.55
516.188
498.132
479.718
460.186
438.835
415.188
389.127
360.96
331.391
301.403
272.078
244.42
219.243
197.128
178.442
163.39
152.07
144.5
140.606
140.278
143.505
150.251
160.099
172.188
185.472
198.977
211.902
223.618
233.632
241.538
246.994
249.72
249.525
246.35
240.331
231.828
221.43
209.895
198.034
186.589
176.121
166.968
159.25
152.928
147.862
143.871
140.768
138.383
136.571
135.214
134.219
133.513
133.038
132.751
132.617
132.61
132.708
132.893
133.152
133.475
133.851
134.272
134.734
135.23
135.755
136.307
136.881
137.475
138.086
138.712
139.352
140.004
140.667
141.339
142.02
142.708
143.403
144.103
144.809
145.52
146.235
146.953
147.674
148.398
149.124
149.851
150.578
151.305
152.03
417.014
414.88
411.409
406.416
399.863
391.933
382.942
373.249
363.187
353.004
342.822
332.629
322.292
311.593
300.275
288.102
274.914
260.673
245.49
229.623
213.455
197.447
182.084
167.833
155.109
144.262
135.58
129.293
125.554
124.455
126.127
130.81
138.628
149.256
161.923
175.677
189.619
202.996
215.203
225.754
234.243
240.319
243.684
244.126
241.561
236.099
228.079
218.079
206.857
195.238
183.981
173.669
164.654
157.069
150.88
145.95
142.096
139.13
136.881
135.202
133.973
133.101
132.512
132.148
131.965
131.929
132.013
132.195
132.458
132.789
133.178
133.614
134.091
134.602
135.142
135.707
136.294
136.899
137.52
138.154
138.8
139.456
140.121
140.794
141.473
142.158
142.848
143.543
144.242
144.944
145.648
146.355
147.065
147.775
148.487
149.2
149.913
150.625
151.335
152.039
263.021
263.034
262.308
260.76
258.357
255.157
251.28
246.877
242.096
237.056
231.823
226.407
220.761
214.796
208.407
201.497
194.002
185.912
177.287
168.258
159.021
149.825
140.948
132.685
125.324
119.141
114.392
111.302
110.047
110.778
113.749
119.345
127.793
138.842
151.802
165.803
180.009
193.708
206.316
217.354
226.413
233.131
237.195
238.369
236.539
231.781
224.402
214.956
204.186
192.918
181.926
171.813
162.953
155.497
149.424
144.604
140.86
138.004
135.864
134.293
133.171
132.404
131.915
131.647
131.555
131.605
131.769
132.027
132.36
132.756
133.203
133.693
134.219
134.773
135.353
135.953
136.57
137.201
137.844
138.496
139.158
139.826
140.499
141.178
141.86
142.546
143.235
143.926
144.619
145.313
146.008
146.704
147.401
148.097
148.794
149.49
150.186
150.88
151.57
152.251
173.796
174.626
175.034
174.976
174.428
173.401
171.942
170.114
167.983
165.607
163.023
160.243
157.251
154.011
150.48
146.614
142.388
137.801
132.892
127.737
122.451
117.184
112.114
107.436
103.359
100.094
97.8517
96.8259
97.1782
99.0823
102.856
108.96
117.69
128.865
141.873
155.921
170.23
184.124
197.038
208.499
218.097
225.459
230.258
232.232
231.238
227.311
220.716
211.967
201.782
190.977
180.332
170.469
161.788
154.465
148.497
143.769
140.111
137.341
135.288
133.805
132.772
132.092
131.689
131.504
131.493
131.619
131.856
132.181
132.577
133.032
133.533
134.071
134.641
135.236
135.85
136.481
137.125
137.779
138.441
139.109
139.782
140.459
141.139
141.82
142.503
143.187
143.871
144.556
145.24
145.923
146.606
147.289
147.97
148.65
149.329
150.007
150.682
151.355
152.023
152.68
120.285
121.321
122.112
122.632
122.863
122.803
122.465
121.874
121.061
120.053
118.87
117.522
116.008
114.313
112.422
110.317
107.99
105.448
102.716
99.8442
96.9068
94.0016
91.2486
88.7859
86.7663
85.3536
84.716
85.0122
86.3825
89.0048
93.2233
99.534
108.276
119.337
132.186
146.103
160.364
174.328
187.448
199.258
209.345
217.332
222.877
225.696
225.613
222.62
216.932
209.013
199.541
189.311
179.099
169.546
161.078
153.899
148.035
143.387
139.799
137.096
135.111
133.699
132.737
132.13
131.801
131.689
131.749
131.944
132.246
132.633
133.087
133.595
134.146
134.73
135.341
135.973
136.62
137.28
137.948
138.623
139.302
139.984
140.668
141.352
142.036
142.719
143.401
144.081
144.759
145.435
146.108
146.78
147.449
148.116
148.78
149.442
150.101
150.757
151.411
152.061
152.705
153.336
87.1424
88.1366
88.987
89.6768
90.1929
90.5286
90.6858
90.6727
90.5019
90.1865
89.7382
89.1644
88.4677
87.646
86.6952
85.6118
84.3967
83.0593
81.6207
80.1163
78.5979
77.1341
75.8104
74.7282
74.0027
73.7614
74.1373
75.2578
77.242
80.264
84.6718
90.9664
99.5151
110.271
122.786
136.415
150.489
164.4
177.622
189.696
200.21
208.783
215.063
218.746
219.623
217.642
212.964
205.993
197.355
187.809
178.123
168.947
160.735
153.724
147.969
143.397
139.868
137.219
135.287
133.93
133.028
132.483
132.216
132.168
132.291
132.548
132.91
133.355
133.864
134.423
135.021
135.649
136.3
136.967
137.646
138.334
139.026
139.722
140.418
141.113
141.807
142.498
143.185
143.869
144.549
145.225
145.896
146.563
147.226
147.884
148.538
149.188
149.834
150.477
151.115
151.75
152.381
153.007
153.625
154.228
65.9212
66.793
67.5792
68.2685
68.8516
69.3216
69.6761
69.9167
70.0479
70.0761
70.0078
69.8489
69.6038
69.2751
68.865
68.3767
67.8159
67.194
66.5292
65.8497
65.1944
64.6143
64.1736
63.949
64.0298
64.5158
65.512
67.1196
69.4401
72.6395
77.0545
83.1726
91.3758
101.678
113.716
126.921
140.679
154.42
167.636
179.881
190.747
199.85
206.831
211.371
213.232
212.317
208.729
202.807
195.113
186.36
177.294
168.571
160.668
153.857
148.227
143.735
140.262
137.658
135.769
134.457
133.603
133.11
132.898
132.907
133.087
133.402
133.82
134.319
134.88
135.489
136.133
136.805
137.495
138.198
138.909
139.625
140.343
141.059
141.773
142.482
143.187
143.886
144.578
145.264
145.942
146.614
147.28
147.938
148.59
149.235
149.875
150.508
151.136
151.758
152.375
152.988
153.595
154.196
154.789
155.363
51.8805
52.6171
53.3022
53.9282
54.4883
54.9769
55.3905
55.7281
55.991
56.1822
56.3057
56.3663
56.3687
56.3178
56.2187
56.0777
55.9034
55.7077
55.5075
55.3265
55.1957
55.1553
55.2552
55.5556
56.1266
57.0471
58.4002
60.2666
62.7336
65.9562
70.2512
76.0803
83.8293
93.5671
105.014
117.677
131.004
144.461
157.565
169.883
181.013
190.575
198.205
203.572
206.414
206.592
204.151
199.358
192.705
184.848
176.499
168.311
160.78
154.212
148.733
144.334
140.92
138.358
136.507
135.233
134.42
133.971
133.808
133.868
134.101
134.47
134.942
135.494
136.106
136.764
137.456
138.17
138.901
139.642
140.387
141.133
141.878
142.617
143.351
144.077
144.795
145.503
146.202
146.892
147.571
148.241
148.902
149.553
150.196
150.83
151.455
152.073
152.683
153.286
153.883
154.472
155.056
155.632
156.199
156.745
42.3041
42.917
43.499
44.0447
44.5494
45.0086
45.4192
45.7795
46.0894
46.3505
46.5656
46.7385
46.8742
46.9781
47.0568
47.118
47.1711
47.2286
47.3061
47.4242
47.6089
47.8929
48.3164
48.9275
49.7822
50.9433
52.4771
54.4485
56.9334
60.0746
64.1633
69.6278
76.8493
85.9436
96.7101
108.736
121.529
134.596
147.483
159.771
171.07
181.005
189.213
195.357
199.152
200.425
199.16
195.556
190.026
183.158
175.622
168.055
160.967
154.696
149.406
145.121
141.778
139.263
137.449
136.209
135.433
135.024
134.905
135.013
135.297
135.717
136.242
136.846
137.511
138.219
138.958
139.718
140.492
141.273
142.055
142.834
143.609
144.375
145.132
145.878
146.612
147.334
148.043
148.739
149.423
150.094
150.753
151.4
152.035
152.66
153.274
153.878
154.472
155.057
155.634
156.203
156.763
157.315
157.856
158.374
35.5959
36.103
36.5918
37.0587
37.5002
37.913
38.2946
38.6433
38.9589
39.2421
39.4952
39.7216
39.9259
40.1137
40.292
40.4689
40.6541
40.8597
41.1004
41.3943
41.7637
42.2359
42.8438
43.6266
44.6295
45.9031
47.5003
49.4744
51.8918
54.8825
58.7091
63.7622
70.4111
78.8104
88.8328
100.144
112.313
124.894
137.462
149.617
160.983
171.196
179.896
186.745
191.443
193.784
193.701
191.32
186.975
181.179
174.547
167.69
161.124
155.214
150.158
146.02
142.767
140.31
138.538
137.334
136.593
136.223
136.147
136.301
136.634
137.105
137.683
138.341
139.058
139.818
140.608
141.417
142.237
143.061
143.884
144.702
145.511
146.308
147.093
147.863
148.619
149.358
150.082
150.79
151.481
152.158
152.819
153.465
154.097
154.716
155.321
155.914
156.495
157.065
157.625
158.174
158.713
159.242
159.758
160.249
30.7908
31.2097
31.6183
32.0141
32.3946
32.7575
33.101
33.4236
33.7252
34.0063
34.2689
34.5161
34.7521
34.9824
35.2138
35.4543
35.7135
36.0027
36.3354
36.7277
37.1991
37.7724
38.4751
39.3393
40.4018
41.7035
43.2873
45.1976
47.4929
50.2898
53.8211
58.4381
64.4923
72.1677
81.4036
91.9403
103.412
115.42
127.571
139.491
150.821
161.207
170.302
177.767
183.296
186.655
187.731
186.583
183.464
178.806
173.16
167.101
161.141
155.661
150.896
146.947
143.813
141.433
139.714
138.552
137.851
137.521
137.488
137.688
138.071
138.595
139.227
139.94
140.712
141.528
142.372
143.234
144.104
144.977
145.846
146.706
147.555
148.389
149.207
150.008
150.79
151.553
152.297
153.022
153.727
154.414
155.082
155.733
156.366
156.983
157.585
158.171
158.742
159.3
159.846
160.378
160.899
161.407
161.901
162.366
27.2876
27.6335
27.9742
28.3081
28.6334
28.9487
29.2525
29.544
29.8229
30.0901
30.3472
30.597
30.8435
31.0918
31.3484
31.6208
31.918
32.2505
32.6306
33.0726
33.5931
34.2118
34.9514
35.8384
36.903
38.1785
39.7
41.5049
43.6451
46.2234
49.4436
53.6168
59.072
66.014
74.4401
84.1613
94.8754
106.234
117.88
129.466
140.653
151.105
160.487
168.466
174.734
179.038
181.226
181.294
179.417
175.944
171.354
166.176
160.905
155.933
151.524
147.813
144.837
142.56
140.912
139.805
139.151
138.866
138.879
139.128
139.563
140.142
140.831
141.603
142.435
143.309
144.212
145.132
146.058
146.985
147.905
148.815
149.71
150.588
151.446
152.284
153.1
153.893
154.664
155.412
156.138
156.841
157.523
158.184
158.825
159.446
160.048
160.633
161.2
161.75
162.285
162.806
163.311
163.802
164.275
164.717
24.7004
24.9857
25.2692
25.55
25.8268
26.0987
26.3647
26.6243
26.8777
27.1255
27.3693
27.6118
27.8566
28.1085
28.3733
28.658
28.9709
29.3215
29.7208
30.1813
30.7174
31.3457
32.0852
32.9577
33.9881
35.2034
36.6329
38.3084
40.2757
42.6245
45.5303
49.2648
54.1313
60.3463
67.9561
76.8367
86.7484
97.3934
108.455
119.614
130.555
140.962
150.516
158.896
165.796
170.951
174.178
175.418
174.773
172.51
169.03
164.806
160.306
155.922
151.94
148.528
145.754
143.616
142.064
141.03
140.435
140.204
140.27
140.574
141.066
141.704
142.454
143.288
144.184
145.123
146.09
147.073
148.062
149.049
150.028
150.994
151.943
152.871
153.778
154.66
155.517
156.349
157.154
157.934
158.687
159.415
160.118
160.797
161.452
162.084
162.694
163.283
163.851
164.4
164.93
165.442
165.937
166.414
166.872
167.294
22.774
23.0088
23.2442
23.4796
23.7143
23.9476
24.179
24.4083
24.6357
24.8622
25.0892
25.3191
25.5554
25.8022
26.0649
26.3498
26.6644
27.0172
27.4178
27.8772
28.4076
29.0231
29.7394
30.5745
31.5486
32.6841
34.0053
35.5395
37.3272
39.4454
42.043
45.3539
49.6529
55.1604
61.962
69.9923
79.0712
88.952
99.3588
110.005
120.602
130.854
140.462
149.121
156.534
162.428
166.599
168.943
169.494
168.44
166.103
162.893
159.238
155.522
152.042
148.994
146.478
144.52
143.097
142.159
141.641
141.478
141.607
141.974
142.529
143.232
144.049
144.952
145.918
146.927
147.965
149.018
150.076
151.132
152.177
153.207
154.218
155.206
156.168
157.104
158.011
158.89
159.739
160.558
161.348
162.109
162.842
163.546
164.223
164.874
165.5
166.1
166.677
167.23
167.762
168.273
168.763
169.231
169.677
170.084
21.335
21.5276
21.7224
21.9192
22.1174
22.3168
22.5172
22.7185
22.9213
23.1263
23.3352
23.55
23.7739
24.0107
24.2652
24.5431
24.8508
25.1959
25.5868
26.0329
26.5447
27.1337
27.8131
28.5974
29.5033
30.5491
31.7551
33.145
34.754
36.6475
38.9499
41.8597
45.6211
50.4514
56.4657
63.6499
71.8796
80.9586
90.6529
100.71
110.869
120.86
130.406
139.219
147.014
153.523
158.524
161.878
163.562
163.69
162.506
160.351
157.604
154.63
151.729
149.115
146.916
145.188
143.934
143.122
142.705
142.627
142.834
143.274
143.902
144.679
145.571
146.55
147.593
148.68
149.796
150.927
152.062
153.194
154.314
155.417
156.498
157.555
158.583
159.581
160.548
161.483
162.385
163.254
164.091
164.894
165.666
166.406
167.114
167.793
168.442
169.063
169.656
170.223
170.764
171.279
171.771
172.237
172.678
173.074
20.2618
20.4192
20.5799
20.7439
20.9109
21.0809
21.2539
21.4301
21.61
21.7947
21.9854
22.1844
22.3942
22.6184
22.8613
23.1277
23.4235
23.7551
24.1298
24.5555
25.0411
25.5962
26.2314
26.9586
27.7912
28.7443
29.8348
31.0833
32.52
34.1999
36.2252
38.7615
42.0219
46.2138
51.4729
57.8279
65.2054
73.4584
82.3947
91.7974
101.435
111.065
120.432
129.273
137.317
144.304
150.005
154.256
156.985
158.241
158.193
157.111
155.32
153.153
150.903
148.794
146.978
145.536
144.495
143.847
143.56
143.591
143.893
144.422
145.135
145.996
146.972
148.036
149.165
150.338
151.541
152.758
153.98
155.197
156.401
157.586
158.748
159.882
160.986
162.058
163.095
164.097
165.062
165.992
166.885
167.741
168.562
169.348
170.098
170.815
171.498
172.149
172.768
173.356
173.914
174.443
174.944
175.416
175.858
176.25
19.4676
19.5957
19.7279
19.8643
20.0049
20.1497
20.2989
20.453
20.6125
20.7783
20.952
21.1353
21.3308
21.5414
21.771
22.0239
22.3051
22.6202
22.9753
23.3772
23.8331
24.3509
24.9392
25.6076
26.3668
27.2291
28.2086
29.3227
30.5975
32.0782
33.8479
36.042
38.8428
42.4421
46.9873
52.5415
59.077
66.4928
74.6384
83.3327
92.3755
101.552
110.632
119.376
127.534
134.857
141.117
146.132
149.796
152.099
153.144
153.128
152.32
151.011
149.475
147.941
146.574
145.477
144.701
144.259
144.136
144.304
144.725
145.361
146.175
147.134
148.206
149.366
150.591
151.86
153.159
154.472
155.79
157.102
158.4
159.678
160.931
162.154
163.344
164.5
165.618
166.698
167.738
168.739
169.7
170.621
171.503
172.345
173.149
173.914
174.642
175.333
175.989
176.609
177.194
177.746
178.265
178.751
179.203
179.598
18.8885
18.9927
19.1016
19.2153
19.3338
19.4575
19.5867
19.7217
19.8634
20.0127
20.1709
20.3398
20.5215
20.7188
20.935
21.1739
21.4397
21.7372
22.0716
22.4486
22.874
23.3544
23.8964
24.5078
25.1969
25.9736
26.8496
27.8396
28.9653
30.264
31.8017
33.6874
36.0731
39.1311
43.0117
47.8038
53.5192
60.0997
67.4351
75.3802
83.7662
92.4068
101.1
109.629
117.767
125.281
131.951
137.587
142.054
145.301
147.366
148.385
148.561
148.141
147.372
146.474
145.62
144.93
144.474
144.286
144.367
144.704
145.27
146.037
146.971
148.044
149.227
150.496
151.828
153.205
154.611
156.032
157.456
158.874
160.277
161.658
163.013
164.336
165.625
166.876
168.087
169.256
170.384
171.468
172.509
173.507
174.461
175.373
176.242
177.068
177.853
178.596
179.299
179.962
180.586
181.171
181.719
182.227
182.698
183.107
18.4774
18.5628
18.6532
18.7487
18.8496
18.9562
19.069
19.1885
19.3155
19.4508
19.5958
19.7521
19.9216
20.1068
20.3105
20.536
20.787
21.0676
21.382
21.735
22.1314
22.5762
23.075
23.6335
24.2583
24.9571
25.7394
26.6174
27.6091
28.7443
30.0751
31.6871
33.7042
36.2761
39.5482
43.6263
48.5549
54.3144
60.8331
68.0012
75.6815
83.7166
91.9317
100.136
108.126
115.69
122.618
128.72
133.846
137.91
140.9
142.891
144.028
144.506
144.539
144.328
144.045
143.821
143.741
143.856
144.186
144.729
145.473
146.396
147.473
148.68
149.991
151.384
152.838
154.336
155.862
157.402
158.945
160.48
162
163.497
164.966
166.401
167.8
169.158
170.474
171.746
172.973
174.154
175.288
176.376
177.416
178.41
179.356
180.257
181.111
181.919
182.682
183.401
184.075
184.705
185.292
185.834
186.334
186.768
18.1998
18.2713
18.3478
18.4297
18.5174
18.6112
18.7116
18.8192
18.9348
19.0593
19.194
19.3402
19.4998
19.675
19.8682
20.0822
20.3202
20.5857
20.8823
21.2137
21.584
21.9971
22.4572
22.9688
23.5368
24.1671
24.8672
25.6467
26.5204
27.5119
28.6614
30.035
31.7306
33.874
36.599
40.0197
44.2051
49.1699
54.8785
61.2551
68.1939
75.5666
83.2256
91.0065
98.7302
106.206
113.242
119.654
125.284
130.021
133.817
136.693
138.74
140.099
140.946
141.456
141.794
142.089
142.44
142.909
143.533
144.324
145.28
146.39
147.637
149
150.459
151.994
153.587
155.221
156.881
158.554
160.229
161.895
163.544
165.17
166.765
168.326
169.848
171.327
172.761
174.149
175.489
176.779
178.02
179.211
180.351
181.44
182.479
183.467
184.405
185.292
186.128
186.915
187.652
188.34
188.978
189.567
190.108
190.578
18.0319
18.0943
18.1618
18.2348
18.3138
18.3992
18.4915
18.5913
18.6994
18.8168
18.9445
19.084
19.2368
19.4048
19.5904
19.7957
20.0237
20.2772
20.5591
20.8728
21.2212
21.6076
22.0351
22.5071
23.0271
23.5994
24.2296
24.9254
25.6981
26.5662
27.5602
28.73
30.1508
31.9243
34.168
36.9949
40.4909
44.6989
49.6164
55.2002
61.3756
68.0425
75.0807
82.3518
89.7017
96.9633
103.962
110.527
116.5
121.758
126.221
129.871
132.748
134.946
136.595
137.842
138.832
139.691
140.521
141.395
142.359
143.44
144.647
145.978
147.423
148.968
150.599
152.297
154.048
155.835
157.646
159.467
161.289