/*--------------------------------*- C++ -*----------------------------------*\
| =========                 |                                                 |
| \\      /  F ield         | OpenFOAM: The Open Source CFD Toolbox           |
|  \\    /   O peration     | Version:  4.1                                   |
|   \\  /    A nd           | Web:      www.OpenFOAM.org                      |
|    \\/     M anipulation  |                                                 |
\*---------------------------------------------------------------------------*/
FoamFile
{
    version     2.0;
    format      ascii;
    class       volScalarField;
    location    "200";
    object      p;
}
// * * * * * * * * * * * * * * * * * * * * * * * * * * * * * * * * * * * * * //

dimensions      [0 2 -2 0 0 0 0];

internalField   nonuniform List<scalar> 
6820
(
15.9233
5.22379
1.69574
0.948166
0.552475
0.217236
0.0239047
-0.0754025
-0.145362
-0.206259
-0.258801
-0.304681
-0.347181
-0.38832
-0.428925
-0.469572
-0.510865
-0.553361
-0.597549
-0.643901
-0.692912
-0.745111
-0.801086
-0.861497
-0.927111
-0.998838
-1.07775
-1.1652
-1.26252
-1.37325
-1.50302
-1.66323
-1.85164
-5.79594
-2.24935
-1.4488
-0.64657
-0.266567
-0.188379
-0.179391
-0.180448
-0.199454
-0.232681
-0.270176
-0.307942
-0.346046
-0.384784
-0.424095
-0.464066
-0.505013
-0.547319
-0.591371
-0.637578
-0.686389
-0.7383
-0.793863
-0.853702
-0.918544
-0.989249
-1.06689
-1.15288
-1.24954
-1.36007
-1.48733
-1.63812
-1.8098
-3.60537
-0.0980399
0.162727
0.17081
0.180403
0.0859029
-0.0121832
-0.0803102
-0.137895
-0.193155
-0.243962
-0.290075
-0.333387
-0.375326
-0.416595
-0.457752
-0.499381
-0.542027
-0.586179
-0.632308
-0.680896
-0.732452
-0.787522
-0.846716
-0.910726
-0.98037
-1.05663
-1.14081
-1.23449
-1.33978
-1.45814
-1.59262
-1.73665
-1.17833
0.291955
0.140128
0.0276054
0.044438
-0.00860233
-0.0775716
-0.126997
-0.170094
-0.214147
-0.257051
-0.2978
-0.337369
-0.376612
-0.415918
-0.455627
-0.496146
-0.537892
-0.581262
-0.626659
-0.674505
-0.725253
-0.779395
-0.837477
-0.900115
-0.968017
-1.04201
-1.12308
-1.21237
-1.31115
-1.4199
-1.53906
-1.66281
-0.725815
-0.0118967
-0.0519415
-0.0650131
-0.0185174
-0.0443009
-0.0955849
-0.137582
-0.176756
-0.217842
-0.258736
-0.298261
-0.336978
-0.375512
-0.41419
-0.453317
-0.493263
-0.534408
-0.577127
-0.621794
-0.668806
-0.718578
-0.771559
-0.828237
-0.889145
-0.954875
-1.02608
-1.10348
-1.18775
-1.27948
-1.3784
-1.48375
-1.59087
-0.644921
-0.165782
-0.11919
-0.0953888
-0.0545244
-0.0716549
-0.112883
-0.150606
-0.187245
-0.225689
-0.264301
-0.302094
-0.339411
-0.376721
-0.414305
-0.452438
-0.491445
-0.531664
-0.573432
-0.617089
-0.66299
-0.711504
-0.763025
-0.817967
-0.876771
-0.939902
-1.00783
-1.081
-1.15975
-1.24413
-1.33351
-1.42663
-1.51987
-0.521638
-0.195767
-0.142977
-0.119756
-0.0895433
-0.10137
-0.133898
-0.166773
-0.200119
-0.235432
-0.271393
-0.307146
-0.342824
-0.378726
-0.415066
-0.45207
-0.490009
-0.529172
-0.569851
-0.612345
-0.656963
-0.704024
-0.75386
-0.806811
-0.863219
-0.923422
-0.987723
-1.05634
-1.12933
-1.20644
-1.28684
-1.36912
-1.45047
-0.412284
-0.207227
-0.164046
-0.144082
-0.121222
-0.129282
-0.154862
-0.183223
-0.213329
-0.245668
-0.279084
-0.312806
-0.346807
-0.381248
-0.416273
-0.452058
-0.488823
-0.526809
-0.566264
-0.607443
-0.650608
-0.696025
-0.743963
-0.794685
-0.84844
-0.905445
-0.965857
-1.02972
-1.09688
-1.16691
-1.2389
-1.31151
-1.38252
-0.340711
-0.217358
-0.181324
-0.163709
-0.146891
-0.153149
-0.173903
-0.198675
-0.225991
-0.255711
-0.286808
-0.318592
-0.350936
-0.383897
-0.417561
-0.45206
-0.487564
-0.52427
-0.562382
-0.602111
-0.643671
-0.687274
-0.733125
-0.781415
-0.832305
-0.885907
-0.942253
-1.00125
-1.06263
-1.12585
-1.19003
-1.25394
-1.31585
-0.295622
-0.223163
-0.193459
-0.178698
-0.167196
-0.172942
-0.190502
-0.212546
-0.237534
-0.264991
-0.294011
-0.323985
-0.354727
-0.386221
-0.418508
-0.451676
-0.485855
-0.521197
-0.557864
-0.596024
-0.635844
-0.677482
-0.721085
-0.766773
-0.81463
-0.864678
-0.916855
-0.970974
-1.02668
-1.08342
-1.14035
-1.19642
-1.25025
-0.266962
-0.225511
-0.202201
-0.190548
-0.183344
-0.18914
-0.204568
-0.224529
-0.247576
-0.273084
-0.300256
-0.328556
-0.357768
-0.387826
-0.418733
-0.450541
-0.483341
-0.517246
-0.552379
-0.588865
-0.626824
-0.666366
-0.707583
-0.750533
-0.795232
-0.841631
-0.889597
-0.938885
-0.989105
-1.0397
-1.08993
-1.1389
-1.1855
-0.249279
-0.226393
-0.208993
-0.200248
-0.196303
-0.202324
-0.216266
-0.234581
-0.255975
-0.279776
-0.305287
-0.33203
-0.359775
-0.388423
-0.417947
-0.448366
-0.479738
-0.512139
-0.545654
-0.580369
-0.616362
-0.653697
-0.692415
-0.732523
-0.77398
-0.816685
-0.860457
-0.905015
-0.949966
-0.994788
-1.03883
-1.08134
-1.12145
-0.239027
-0.226941
-0.214542
-0.208354
-0.206824
-0.213075
-0.225902
-0.24284
-0.26277
-0.285031
-0.309008
-0.334274
-0.360591
-0.387839
-0.415965
-0.444961
-0.474852
-0.505682
-0.5375
-0.570357
-0.604291
-0.639326
-0.675459
-0.712653
-0.750825
-0.789835
-0.829473
-0.869448
-0.909378
-0.94879
-0.987125
-1.02376
-1.05801
-0.233655
-0.227638
-0.219229
-0.215221
-0.215465
-0.221883
-0.233801
-0.249522
-0.268099
-0.288918
-0.311436
-0.335265
-0.360167
-0.386005
-0.412704
-0.440232
-0.468585
-0.497776
-0.527822
-0.558741
-0.590536
-0.623196
-0.656681
-0.69092
-0.725798
-0.761152
-0.796756
-0.832322
-0.867495
-0.901856
-0.934931
-0.966211
-0.995148
-0.231392
-0.228654
-0.223294
-0.221083
-0.222614
-0.229115
-0.240241
-0.254837
-0.272127
-0.291557
-0.312652
-0.335054
-0.358531
-0.382932
-0.408163
-0.434169
-0.460922
-0.488405
-0.516609
-0.545518
-0.575108
-0.605335
-0.636132
-0.667402
-0.699009
-0.730773
-0.76247
-0.793823
-0.824509
-0.854164
-0.882393
-0.908779
-0.932889
-0.231044
-0.229998
-0.22688
-0.226095
-0.228535
-0.235029
-0.245429
-0.258961
-0.275004
-0.293076
-0.312759
-0.333728
-0.355754
-0.378679
-0.402393
-0.426821
-0.45191
-0.47762
-0.503914
-0.530753
-0.558084
-0.58584
-0.613931
-0.642242
-0.670622
-0.69889
-0.726824
-0.754169
-0.780637
-0.805914
-0.829672
-0.851575
-0.871282
-0.23182
-0.231595
-0.230065
-0.230358
-0.233407
-0.239803
-0.249513
-0.262023
-0.276849
-0.293581
-0.311855
-0.331376
-0.351923
-0.373331
-0.395477
-0.41827
-0.441636
-0.465513
-0.489842
-0.514559
-0.539593
-0.564856
-0.590243
-0.615623
-0.640844
-0.665723
-0.690052
-0.713596
-0.736104
-0.757308
-0.776939
-0.794725
-0.810401
-0.233198
-0.233334
-0.232884
-0.233945
-0.237355
-0.243563
-0.252592
-0.26411
-0.277744
-0.293152
-0.310019
-0.328078
-0.347118
-0.366972
-0.387506
-0.408614
-0.430206
-0.4522
-0.474518
-0.497078
-0.519792
-0.542558
-0.565258
-0.587756
-0.609898
-0.631509
-0.652393
-0.672342
-0.691136
-0.70855
-0.724364
-0.73836
-0.75033
-0.234837
-0.235107
-0.235349
-0.236907
-0.240471
-0.246397
-0.254738
-0.26528
-0.277742
-0.291841
-0.307305
-0.323895
-0.341409
-0.359679
-0.378565
-0.39795
-0.417728
-0.437802
-0.458079
-0.478462
-0.49885
-0.51913
-0.539177
-0.558855
-0.578012
-0.59648
-0.614084
-0.630637
-0.645949
-0.659833
-0.672108
-0.682604
-0.691159
-0.236518
-0.236814
-0.237461
-0.239284
-0.242824
-0.248374
-0.256002
-0.265574
-0.276877
-0.28968
-0.303749
-0.318867
-0.334844
-0.351513
-0.36873
-0.386365
-0.404304
-0.422437
-0.440659
-0.458861
-0.476932
-0.494754
-0.512199
-0.529131
-0.545403
-0.560862
-0.575347
-0.588694
-0.600742
-0.611334
-0.620324
-0.627578
-0.632973
-0.238104
-0.238382
-0.239218
-0.241109
-0.244469
-0.24955
-0.256427
-0.26502
-0.275172
-0.28669
-0.299373
-0.313024
-0.327463
-0.342524
-0.358061
-0.373937
-0.390027
-0.406214
-0.422382
-0.438415
-0.454196
-0.469603
-0.484508
-0.498778
-0.512276
-0.52486
-0.536385
-0.546709
-0.555695
-0.563214
-0.569147
-0.573392
-0.575858
-0.23952
-0.239764
-0.240627
-0.242414
-0.245453
-0.24997
-0.256047
-0.263644
-0.272641
-0.282883
-0.29419
-0.306384
-0.319292
-0.332751
-0.346611
-0.360732
-0.374981
-0.389232
-0.403365
-0.417258
-0.43079
-0.443838
-0.456277
-0.46798
-0.478818
-0.488661
-0.497382
-0.504858
-0.510973
-0.515619
-0.518704
-0.520151
-0.519893
-0.240734
-0.240941
-0.241701
-0.243231
-0.245817
-0.249673
-0.254893
-0.261464
-0.2693
-0.278268
-0.288212
-0.298964
-0.310356
-0.322229
-0.334429
-0.346812
-0.35924
-0.371584
-0.383715
-0.395511
-0.40685
-0.417609
-0.427667
-0.436904
-0.4452
-0.452439
-0.458508
-0.463302
-0.466724
-0.468685
-0.469113
-0.467954
-0.465159
-0.241755
-0.241924
-0.242471
-0.243599
-0.2456
-0.248694
-0.252988
-0.258497
-0.265157
-0.272856
-0.281449
-0.290777
-0.300678
-0.31099
-0.321559
-0.332236
-0.34288
-0.353356
-0.363536
-0.373293
-0.382506
-0.391056
-0.398828
-0.405706
-0.411584
-0.416355
-0.419922
-0.422194
-0.42309
-0.422541
-0.420489
-0.416902
-0.411742
-0.242629
-0.24276
-0.242989
-0.243566
-0.244843
-0.247062
-0.250354
-0.254754
-0.26022
-0.26665
-0.273908
-0.28184
-0.290281
-0.29907
-0.308049
-0.317065
-0.325974
-0.334639
-0.342929
-0.350718
-0.357886
-0.364319
-0.369905
-0.37454
-0.378123
-0.380563
-0.381774
-0.381679
-0.380212
-0.377317
-0.372952
-0.3671
-0.359737
-0.243444
-0.243537
-0.243332
-0.243189
-0.243584
-0.244803
-0.247002
-0.250241
-0.25449
-0.259654
-0.265598
-0.272165
-0.279189
-0.286504
-0.293946
-0.301361
-0.308599
-0.315522
-0.321998
-0.327902
-0.333116
-0.337531
-0.341043
-0.343553
-0.344972
-0.345218
-0.344217
-0.341906
-0.338231
-0.333149
-0.326629
-0.318669
-0.309255
-0.244343
-0.244394
-0.243608
-0.242537
-0.241861
-0.241929
-0.242931
-0.244948
-0.247958
-0.251862
-0.256519
-0.261765
-0.267426
-0.273328
-0.279302
-0.285188
-0.290833
-0.296097
-0.300846
-0.30496
-0.308323
-0.31083
-0.312384
-0.312895
-0.312282
-0.310474
-0.307407
-0.30303
-0.2973
-0.290183
-0.281661
-0.271745
-0.260426
-0.245543
-0.245545
-0.243972
-0.241693
-0.239704
-0.238441
-0.238121
-0.238849
-0.240598
-0.243256
-0.246665
-0.250646
-0.255012
-0.259578
-0.264167
-0.26861
-0.272754
-0.276454
-0.27958
-0.28201
-0.283634
-0.284353
-0.284074
-0.282717
-0.280211
-0.276492
-0.271508
-0.265215
-0.257582
-0.248585
-0.238214
-0.22649
-0.213412
-0.247376
-0.247304
-0.244627
-0.240746
-0.23713
-0.234307
-0.232522
-0.231888
-0.232362
-0.233799
-0.236013
-0.238802
-0.241959
-0.245282
-0.248583
-0.251688
-0.254436
-0.256684
-0.2583
-0.259166
-0.259175
-0.258235
-0.256259
-0.253176
-0.248921
-0.243441
-0.236693
-0.228641
-0.219262
-0.208541
-0.196475
-0.183096
-0.168407
-0.25036
-0.250148
-0.245842
-0.23978
-0.234114
-0.229449
-0.22603
-0.223966
-0.223163
-0.223424
-0.224519
-0.22621
-0.228262
-0.230454
-0.232584
-0.234469
-0.235945
-0.236866
-0.237101
-0.236536
-0.235069
-0.232612
-0.229087
-0.22443
-0.218583
-0.211503
-0.203152
-0.193506
-0.182546
-0.170266
-0.156668
-0.141792
-0.125646
-0.255336
-0.254801
-0.247967
-0.238851
-0.230568
-0.223706
-0.218467
-0.214914
-0.212861
-0.212019
-0.212097
-0.21281
-0.213886
-0.21508
-0.216176
-0.21698
-0.217324
-0.217061
-0.216063
-0.214218
-0.21143
-0.207616
-0.202707
-0.196643
-0.189377
-0.18087
-0.171095
-0.160032
-0.14767
-0.134007
-0.119051
-0.102847
-0.0854085
-0.263729
-0.262345
-0.251394
-0.237944
-0.226298
-0.2168
-0.209539
-0.20447
-0.201229
-0.199393
-0.19859
-0.198474
-0.198732
-0.199089
-0.199312
-0.199199
-0.198577
-0.197299
-0.195239
-0.192289
-0.188359
-0.183371
-0.177262
-0.169981
-0.161487
-0.151748
-0.140742
-0.128456
-0.114885
-0.10003
-0.0839042
-0.0665547
-0.0480016
-0.278246
-0.274327
-0.256255
-0.236694
-0.220867
-0.208268
-0.198815
-0.192264
-0.187946
-0.185261
-0.183745
-0.182983
-0.182609
-0.182321
-0.181867
-0.181036
-0.179652
-0.177565
-0.174653
-0.17081
-0.165951
-0.160006
-0.152917
-0.144638
-0.135134
-0.124381
-0.112361
-0.0990668
-0.0844967
-0.0686566
-0.0515621
-0.0332593
-0.0137733
-0.305226
-0.293791
-0.2622
-0.233702
-0.212815
-0.196773
-0.185185
-0.177412
-0.172297
-0.169032
-0.167069
-0.165918
-0.16516
-0.164463
-0.163563
-0.162242
-0.160322
-0.157654
-0.154118
-0.149614
-0.144062
-0.137396
-0.129565
-0.120528
-0.110256
-0.0987285
-0.0859343
-0.0718689
-0.0565351
-0.0399419
-0.0221065
-0.00307259
0.0171272
-0.357231
-0.328646
-0.272441
-0.229693
-0.200928
-0.180018
-0.166195
-0.157663
-0.152334
-0.149152
-0.147461
-0.146633
-0.146151
-0.145648
-0.144848
-0.143527
-0.141509
-0.13865
-0.13484
-0.129988
-0.124024
-0.116892
-0.10855
-0.0989673
-0.0881219
-0.0760012
-0.0626
-0.0479199
-0.0319686
-0.0147591
0.00368908
0.0233368
0.0441519
-0.437876
-0.374464
-0.288677
-0.233177
-0.191792
-0.160364
-0.141147
-0.129837
-0.122627
-0.118395
-0.116437
-0.115841
-0.115863
-0.116018
-0.115955
-0.115394
-0.11411
-0.111935
-0.108742
-0.104432
-0.0989312
-0.0921844
-0.0841517
-0.0748068
-0.0641332
-0.0521246
-0.0387813
-0.0241116
-0.00812826
0.00914963
0.0276988
0.0474825
0.0684619
-0.586339
-0.352372
-0.221658
-0.206308
-0.188876
-0.168058
-0.158029
-0.152654
-0.147324
-0.142492
-0.138656
-0.135405
-0.132329
-0.129234
-0.125961
-0.122324
-0.118146
-0.113284
-0.107616
-0.10104
-0.0934726
-0.0848433
-0.0750982
-0.0641956
-0.0521051
-0.0388063
-0.024288
-0.00854649
0.00841427
0.0265842
0.0459461
0.0664745
0.0881343
-1.54155
-0.317658
0.273967
0.355232
0.344684
0.310497
0.259427
0.208577
0.163586
0.123379
0.0876779
0.0569732
0.0312041
0.00988887
-0.00743392
-0.0211209
-0.031486
-0.0388187
-0.0433717
-0.0453573
-0.0449552
-0.0423188
-0.0375804
-0.0308547
-0.022242
-0.0118317
0.000295707
0.0140667
0.0294136
0.0462739
0.06459
0.0843131
0.105401
-5.30979
-3.10623
-2.07379
-1.43561
-1.00636
-0.752675
-0.586411
-0.458216
-0.36013
-0.289229
-0.238262
-0.200557
-0.172125
-0.150481
-0.133656
-0.120069
-0.108553
-0.0982714
-0.0885994
-0.0790603
-0.0692915
-0.059021
-0.0480445
-0.0362093
-0.0234025
-0.0095428
0.00542613
0.0215406
0.0388206
0.0572728
0.0768932
0.0976642
0.119588
8.60435
4.51232
2.38979
1.61943
1.18416
0.824743
0.562847
0.391555
0.273427
0.184397
0.116588
0.0661766
0.0288948
0.0010899
-0.0195514
-0.0344538
-0.044654
-0.0509573
-0.0539615
-0.0540979
-0.0516866
-0.0469738
-0.0401525
-0.0313753
-0.0207666
-0.00842972
0.00554541
0.0210795
0.0380988
0.0565356
0.0763194
0.0973991
0.119683
-2.11943
-2.00534
-2.36514
-2.6313
-2.64082
-2.50922
-2.3221
-2.1265
-1.97048
-1.89845
-1.93734
-2.09202
-2.34794
-2.67751
-3.04756
-3.42559
-3.78326
-4.0976
-4.35067
-4.52865
-4.62058
-4.61719
-4.51026
-4.29275
-3.95984
-3.51029
-2.94793
-2.28466
-1.54555
-0.779356
-0.0559065
0.567936
1.08595
1.54185
1.98001
2.41425
2.83787
3.23932
3.60884
3.93993
4.22915
4.4756
4.68035
4.84598
4.97605
5.07466
5.14605
5.19425
5.22276
5.23447
5.23157
5.21568
5.18806
5.14977
5.10186
5.04536
4.98135
4.91086
4.83482
4.75405
4.66926
4.58099
4.48971
4.39577
4.29944
4.20093
4.10042
3.99804
3.89389
3.78806
3.68064
3.57169
3.46127
3.34945
3.23628
3.12181
3.0061
2.88917
2.77108
2.65186
2.53154
2.41014
2.28769
2.16419
2.03967
1.9141
1.78751
1.65987
1.53119
1.40146
1.27064
1.1388
1.00582
0.872034
0.736892
0.601839
0.46444
0.330518
0.189802
0.0636871
-2.03904
-2.1583
-2.4073
-2.54633
-2.50488
-2.3724
-2.2093
-2.04606
-1.9183
-1.86218
-1.90066
-2.03881
-2.26547
-2.55782
-2.88713
-3.22398
-3.5417
-3.81797
-4.03493
-4.17869
-4.23841
-4.20542
-4.07266
-3.83458
-3.48745
-3.03023
-2.46698
-1.81078
-1.08765
-0.343943
0.354015
0.949357
1.43478
1.85502
2.25646
2.65506
3.04599
3.41876
3.76391
4.07477
4.3474
4.5803
4.77385
4.92993
5.05143
5.14191
5.2052
5.24512
5.26517
5.26842
5.25735
5.23392
5.19963
5.15574
5.10333
5.04338
4.97685
4.90462
4.82747
4.7461
4.66109
4.5729
4.48192
4.38843
4.29268
4.19483
4.09502
3.99336
3.88994
3.78483
3.67811
3.56982
3.46003
3.34879
3.23616
3.12218
3.0069
2.89036
2.77261
2.65368
2.5336
2.41241
2.29013
2.16677
2.04236
1.91688
1.79036
1.66279
1.53417
1.40449
1.27374
1.14197
1.00906
0.875363
0.740277
0.605289
0.467807
0.33381
0.192421
0.0657988
-1.9182
-2.04408
-2.1805
-2.28434
-2.29027
-2.21975
-2.11169
-1.99489
-1.90061
-1.86036
-1.89539
-2.01209
-2.20305
-2.45045
-2.73056
-3.01797
-3.28871
-3.52198
-3.70056
-3.81068
-3.84145
-3.78417
-3.63183
-3.37898
-3.02221
-2.56155
-2.00264
-1.35904
-0.655371
0.0645031
0.736484
1.30444
1.76107
2.15077
2.52033
2.8874
3.24897
3.59564
3.91834
4.21032
4.4673
4.68728
4.87005
5.01687
5.13003
5.21255
5.26787
5.29957
5.31113
5.30578
5.28628
5.25495
5.2136
5.16368
5.10636
5.04259
4.97323
4.899
4.82056
4.73844
4.6531
4.56492
4.47419
4.38113
4.28594
4.18874
4.08963
3.98871
3.88603
3.78166
3.67564
3.56803
3.45888
3.34824
3.23615
3.12266
3.00782
2.89168
2.77427
2.65563
2.53581
2.41482
2.29271
2.16949
2.04519
1.9198
1.79336
1.66585
1.53728
1.40766
1.27697
1.14527
1.01243
0.878806
0.743771
0.608826
0.471257
0.337118
0.195033
0.067824
-1.81093
-1.9376
-2.05517
-2.15407
-2.17683
-2.12583
-2.03757
-1.94241
-1.86656
-1.83509
-1.86554
-1.96374
-2.12411
-2.33229
-2.56841
-2.81058
-3.03748
-3.23004
-3.37201
-3.45005
-3.45336
-3.37325
-3.20284
-2.93717
-2.57369
-2.11326
-1.5619
-0.932903
-0.24973
0.445789
1.09157
1.63278
2.06276
2.42494
2.76567
3.104
3.43865
3.7613
4.06327
4.33779
4.5803
4.78835
4.96123
5.0996
5.20521
5.28056
5.32868
5.35291
5.35667
5.34329
5.3158
5.27685
5.22855
5.17261
5.11029
5.04258
4.97025
4.8939
4.81403
4.73107
4.64534
4.55711
4.46659
4.37394
4.27928
4.18271
4.0843
3.9841
3.88215
3.7785
3.67319
3.56625
3.45773
3.34767
3.23612
3.12311
3.00871
2.89295
2.77587
2.65752
2.53795
2.41717
2.29522
2.17214
2.04795
1.92265
1.79628
1.66884
1.54032
1.41076
1.28013
1.14849
1.01571
0.882155
0.747159
0.612229
0.474553
0.340215
0.197402
0.0695422
-1.71529
-1.83378
-1.93464
-2.01271
-2.0349
-2.0012
-1.9381
-1.86944
-1.81522
-1.79503
-1.82354
-1.90634
-2.03968
-2.21225
-2.40775
-2.60752
-2.79285
-2.94646
-3.05325
-3.10047
-3.07766
-2.97636
-2.79003
-2.51408
-2.14641
-1.68834
-1.14617
-0.532941
0.128917
0.799603
1.41949
1.93568
2.34201
2.68011
2.99524
3.30762
3.61769
3.91822
4.20102
4.45931
4.68835
4.88531
5.04901
5.17958
5.27825
5.34704
5.38858
5.40593
5.40243
5.38147
5.34631
5.29991
5.24472
5.18268
5.11525
5.04342
4.96794
4.88931
4.80789
4.72396
4.63775
4.5494
4.45904
4.36677
4.27263
4.17668
4.07895
3.97946
3.87824
3.77531
3.6707
3.56442
3.45653
3.34705
3.23603
3.12351
3.00954
2.89416
2.77742
2.65936
2.54002
2.41945
2.29768
2.17473
2.05065
1.92544
1.79915
1.67177
1.54331
1.41381
1.28323
1.15165
1.01893
0.885431
0.750466
0.615528
0.477731
0.343141
0.199591
0.0710062
-1.62626
-1.73247
-1.81982
-1.88482
-1.90969
-1.89204
-1.84876
-1.79875
-1.75881
-1.74504
-1.76966
-1.83772
-1.94661
-2.08727
-2.24619
-2.40744
-2.5546
-2.67213
-2.7461
-2.76455
-2.71748
-2.5968
-2.39628
-2.11174
-1.74149
-1.28726
-0.755535
-0.159061
0.480699
1.12601
1.72031
2.21334
2.59918
2.91682
3.20974
3.49908
3.78692
4.06723
4.33233
4.57558
4.79209
4.97872
5.13387
5.25723
5.34952
5.41229
5.4478
5.45882
5.44855
5.42043
5.3779
5.32421
5.26216
5.19396
5.12126
5.04515
4.96633
4.88522
4.80209
4.71709
4.63029
4.54175
4.4515
4.35955
4.26591
4.17056
4.0735
3.97473
3.87423
3.77202
3.6681
3.5625
3.45523
3.34634
3.23585
3.12382
3.01028
2.89528
2.77887
2.6611
2.54201
2.42164
2.30004
2.17724
2.05327
1.92816
1.80194
1.67463
1.54623
1.41679
1.28626
1.15475
1.02209
0.888634
0.753693
0.618728
0.480801
0.345911
0.201644
0.0722428
-1.54217
-1.6357
-1.71204
-1.7679
-1.79329
-1.78576
-1.75656
-1.72063
-1.69184
-1.68301
-1.70397
-1.75904
-1.84635
-1.95867
-2.08476
-2.21109
-2.32331
-2.40756
-2.45113
-2.44288
-2.37341
-2.23505
-2.02197
-1.73038
-1.35901
-0.909947
-0.389791
0.189046
0.80602
1.42553
1.99457
2.46614
2.83438
3.13495
3.40898
3.67813
3.9461
4.20803
4.45689
4.68625
4.89113
5.06816
5.21539
5.3321
5.41855
5.47586
5.50591
5.51116
5.49466
5.45984
5.41031
5.34956
5.28074
5.20636
5.12828
5.04771
4.96538
4.88163
4.79663
4.71041
4.62292
4.5341
4.4439
4.35225
4.25906
4.1643
4.0679
3.96983
3.87005
3.76856
3.66534
3.5604
3.45377
3.34545
3.23551
3.12396
3.01085
2.89624
2.78018
2.6627
2.54386
2.4237
2.30227
2.17962
2.05577
1.93076
1.80462
1.67738
1.54905
1.41967
1.28921
1.15775
1.02515
0.891738
0.756819
0.621807
0.483749
0.348513
0.203572
0.0732502
-1.46185
-1.54353
-1.6102
-1.65874
-1.68337
-1.68249
-1.66373
-1.6385
-1.6179
-1.61209
-1.62894
-1.67202
-1.73998
-1.82694
-1.92358
-2.01834
-2.09879
-2.15257
-2.16819
-2.13539
-2.04542
-1.89112
-1.66711
-1.37
-0.998925
-0.556265
-0.0486961
0.511732
1.1054
1.69889
2.24317
2.69488
3.04805
3.3346
3.59284
3.84459
4.09494
4.3403
4.57433
4.79089
4.98501
5.15314
5.29305
5.40364
5.48478
5.53718
5.56233
5.56241
5.54026
5.49927
5.44316
5.37567
5.30026
5.21974
5.13623
5.05108
4.96506
4.87851
4.79148
4.7039
4.61561
4.52643
4.43621
4.34479
4.25203
4.15783
4.06207
3.96469
3.86563
3.76485
3.66233
3.55806
3.45206
3.34434
3.23493
3.12387
3.01121
2.89699
2.78126
2.66408
2.5455
2.42556
2.30432
2.18182
2.0581
1.93319
1.80715
1.67999
1.55173
1.42241
1.29202
1.16063
1.02809
0.894715
0.759816
0.624744
0.486558
0.350934
0.205382
0.0740241
-1.38452
-1.45542
-1.51337
-1.55564
-1.5788
-1.58202
-1.57054
-1.55291
-1.53786
-1.53343
-1.54577
-1.57777
-1.62833
-1.69264
-1.76288
-1.82923
-1.8809
-1.90697
-1.89709
-1.84193
-1.73343
-1.56498
-1.33167
-1.03055
-0.661134
-0.226055
0.268004
0.809387
1.37943
1.947
2.46723
2.9006
3.2409
3.51611
3.76141
3.99836
4.23328
4.46379
4.68434
4.88915
5.07333
5.23322
5.36636
5.47134
5.54766
5.59567
5.61648
5.61198
5.58479
5.53821
5.47604
5.40221
5.32045
5.23392
5.14498
5.05518
4.96535
4.87584
4.78663
4.69755
4.60834
4.5187
4.42839
4.33715
4.24477
4.15109
4.05596
3.95926
3.86091
3.76084
3.65901
3.55541
3.45004
3.34291
3.23404
3.12348
3.01127
2.89745
2.78207
2.6652
2.54688
2.42717
2.30613
2.18379
2.0602
1.93542
1.80947
1.6824
1.55423
1.42499
1.29467
1.16335
1.03087
0.897537
0.76266
0.627516
0.489211
0.353162
0.207085
0.0745624
-1.30956
-1.37074
-1.42077
-1.45742
-1.47858
-1.48391
-1.4771
-1.46448
-1.45281
-1.44835
-1.45584
-1.47749
-1.51233
-1.55635
-1.60298
-1.64385
-1.6696
-1.67063
-1.63771
-1.5624
-1.43735
-1.25656
-1.01562
-0.711993
-0.345549
0.0808603
0.560608
1.08248
1.62881
2.17084
2.66794
3.08442
3.41376
3.67995
3.91485
4.13942
4.36097
4.57828
4.78664
4.98068
5.15569
5.30795
5.43484
5.53467
5.60664
5.65075
5.66776
5.65927
5.62766
5.57613
5.50847
5.42878
5.34104
5.2487
5.15441
5.05993
4.9662
4.87359
4.78207
4.69136
4.6011
4.5109
4.4204
4.32928
4.23724
4.14405
4.04951
3.95348
3.85582
3.75645
3.65532
3.55238
3.44765
3.34111
3.23279
3.12273
3.01097
2.89756
2.78254
2.66599
2.54795
2.42848
2.30763
2.18547
2.06204
1.93739
1.81155
1.68458
1.5565
1.42735
1.29711
1.16587
1.03346
0.900172
0.765323
0.6301
0.491691
0.355188
0.208687
0.0748635
-1.23653
-1.28896
-1.33176
-1.36318
-1.3819
-1.38782
-1.38359
-1.37385
-1.36377
-1.35809
-1.36042
-1.37233
-1.39291
-1.41875
-1.4443
-1.46239
-1.46494
-1.44353
-1.38999
-1.29674
-1.15716
-0.965859
-0.71892
-0.414253
-0.0520328
0.364724
0.829501
1.33157
1.85435
2.37148
2.84654
3.24751
3.56753
3.82668
4.05341
4.26779
4.47788
4.68356
4.88094
5.06516
5.23171
5.37691
5.498
5.5931
5.66114
5.7018
5.71554
5.70364
5.66826
5.61243
5.53993
5.45494
5.36166
5.26382
5.16435
5.06523
4.96756
4.87176
4.77779
4.68532
4.59389
4.50302
4.41226
4.32117
4.22941
4.13666
4.04269
3.94729
3.85031
3.75163
3.65118
3.54891
3.44481
3.33886
3.2311
3.12155
3.01025
2.89725
2.78261
2.66638
2.54863
2.42941
2.30879
2.18682
2.06355
1.93904
1.81334
1.68649
1.55851
1.42946
1.29931
1.16815
1.03583
0.902589
0.767775
0.632473
0.493981
0.357
0.210193
0.0749275
-1.16507
-1.20963
-1.2458
-1.27227
-1.28817
-1.29351
-1.29022
-1.28165
-1.27166
-1.2638
-1.2607
-1.26341
-1.27102
-1.28057
-1.28732
-1.28515
-1.26707
-1.22574
-1.15393
-1.04492
-0.892817
-0.692815
-0.441505
-0.1372
0.219637
0.625881
1.07519
1.55737
2.05696
2.55005
3.00427
3.39104
3.70313
3.95691
4.17741
4.38357
4.58396
4.77945
4.96699
5.14226
5.30102
5.43967
5.55538
5.64613
5.7106
5.74823
5.75918
5.74444
5.70594
5.64651
5.56985
5.48021
5.38193
5.279
5.1746
5.07096
4.96936
4.87032
4.7738
4.67944
4.58673
4.49508
4.40394
4.31282
4.22126
4.12891
4.03546
3.94066
3.84433
3.74633
3.64655
3.54494
3.44147
3.33612
3.22891
3.11987
3.00904
2.89647
2.78221
2.66632
2.54887
2.42992
2.30953
2.18776
2.06468
1.94033
1.81478
1.68806
1.5602
1.43127
1.30123
1.17017
1.03793
0.904752
0.769987
0.634606
0.49606
0.358587
0.211605
0.0747548
-1.09497
-1.13241
-1.16247
-1.18419
-1.19697
-1.20086
-1.19721
-1.18844
-1.17735
-1.16653
-1.15782
-1.15183
-1.14761
-1.14257
-1.13263
-1.11253
-1.07623
-1.01736
-0.929575
-0.806952
-0.64428
-0.437345
-0.183221
0.119398
0.469803
0.864815
1.29831
1.76069
2.23767
2.70774
3.14236
3.51612
3.82146
4.07127
4.2872
4.48687
4.67916
4.86581
5.04458
5.21171
5.3633
5.49586
5.60656
5.69327
5.75452
5.78948
5.79808
5.78105
5.74005
5.67773
5.59766
5.50407
5.40143
5.2939
5.18492
5.07697
4.97152
4.86923
4.77009
4.67376
4.57964
4.4871
4.39549
4.30423
4.21281
4.12079
4.0278
3.93357
3.83786
3.74051
3.64139
3.54043
3.43758
3.33282
3.22617
3.11764
3.00729
2.89515
2.78128
2.66575
2.54861
2.42994
2.3098
2.18826
2.06538
1.94121
1.81582
1.68924
1.56153
1.43273
1.30282
1.17187
1.03974
0.906626
0.771923
0.636473
0.497905
0.359937
0.21292
0.0743488
-1.02609
-1.05706
-1.08145
-1.09859
-1.10803
-1.10978
-1.10479
-1.09475
-1.08164
-1.06727
-1.05286
-1.03865
-1.02365
-1.00557
-0.980844
-0.944964
-0.892717
-0.818567
-0.716992
-0.582808
-0.411454
-0.199278
0.0561884
0.355903
0.698953
1.08216
1.49966
1.94249
2.39758
2.84573
3.26199
3.62384
3.9234
4.17038
4.38316
4.57787
4.76351
4.94254
5.11352
5.27328
5.41825
5.54514
5.65117
5.73412
5.79241
5.82503
5.83169
5.81287
5.76999
5.70548
5.62276
5.526
5.41969
5.30815
5.19504
5.08307
4.97394
4.86844
4.76666
4.66827
4.57265
4.4791
4.38692
4.29543
4.20406
4.11229
4.01972
3.92601
3.83088
3.73415
3.63566
3.53533
3.43309
3.32891
3.22281
3.11481
3.00493
2.89323
2.77977
2.6646
2.54779
2.42942
2.30955
2.18824
2.06558
1.94161
1.8164
1.69
1.56245
1.43379
1.30402
1.1732
1.0412
0.908169
0.773548
0.638043
0.499492
0.361036
0.214133
0.0737138
-0.958366
-0.983413
-1.00254
-1.01524
-1.02117
-1.02029
-1.01322
-1.0011
-0.985267
-0.966927
-0.946805
-0.924859
-0.900062
-0.870331
-0.832583
-0.782907
-0.716812
-0.62951
-0.516212
-0.372414
-0.194167
0.0216592
0.277104
0.572817
0.907726
1.27869
1.68017
2.10384
2.53784
2.96523
3.36431
3.7152
4.00977
4.25485
4.46567
4.65678
4.83705
5.0096
5.17371
5.32678
5.46566
5.58726
5.68888
5.76831
5.82387
5.85442
5.85949
5.83935
5.79517
5.72917
5.64458
5.54543
5.43622
5.32135
5.20465
5.08905
4.97648
4.86788
4.76349
4.66299
4.56579
4.47115
4.37828
4.28647
4.19505
4.10346
4.01123
3.91797
3.82338
3.72723
3.62934
3.52961
3.42796
3.32436
3.21881
3.11132
3.00192
2.89066
2.77761
2.66282
2.54635
2.42829
2.30871
2.18766
2.06523
1.94148
1.81648
1.69027
1.5629
1.43441
1.3048
1.17413
1.04227
0.909341
0.774823
0.639283
0.500793
0.361867
0.215233
0.0728584
-0.891768
-0.911374
-0.925563
-0.933969
-0.936289
-0.93242
-0.922725
-0.907931
-0.888889
-0.866322
-0.840575
-0.81138
-0.777691
-0.737612
-0.688441
-0.626792
-0.548791
-0.45031
-0.327216
-0.175626
0.00784862
0.225855
0.480043
0.770791
1.09691
1.45534
1.84087
2.24588
2.65967
3.06742
3.45042
3.79115
4.08133
4.32523
4.5351
4.72378
4.89987
5.06698
5.22505
5.3721
5.50535
5.62199
5.71945
5.79556
5.84857
5.87729
5.88107
5.86001
5.81508
5.74825
5.66255
5.56184
5.45054
5.33307
5.2134
5.09465
4.97896
4.86747
4.76053
4.65794
4.5591
4.46326
4.36962
4.27737
4.18582
4.09431
4.00235
3.90948
3.81536
3.71974
3.62242
3.52326
3.42218
3.31913
3.21411
3.10713
2.99821
2.8874
2.77476
2.66036
2.54425
2.42651
2.30723
2.18646
2.06429
1.94078
1.81599
1.68999
1.56282
1.43453
1.30511
1.1746
1.0429
0.910097
0.775708
0.640159
0.501778
0.362415
0.216207
0.071793
-0.826309
-0.840886
-0.850436
-0.854682
-0.85334
-0.846244
-0.833556
-0.815685
-0.793108
-0.766188
-0.734976
-0.699036
-0.657315
-0.608082
-0.548956
-0.476999
-0.388873
-0.281027
-0.149914
0.00779012
0.194965
0.413818
0.665651
0.950609
1.26742
1.61315
1.98294
2.36984
2.76432
3.15351
3.52137
3.85256
4.13878
4.38203
4.5918
4.77909
4.95207
5.11469
5.26753
5.40915
5.53722
5.64922
5.74273
5.81566
5.86629
5.89334
5.89609
5.87447
5.82927
5.76223
5.67615
5.57469
5.46213
5.34286
5.22091
5.09958
4.98117
4.86705
4.75772
4.65307
4.55258
4.4555
4.36098
4.26821
4.17641
4.08491
3.99311
3.90055
3.80685
3.7117
3.61489
3.51626
3.41572
3.31321
3.2087
3.10221
2.99377
2.88341
2.77119
2.65717
2.54142
2.42403
2.30506
2.18458
2.06269
1.93943
1.81489
1.68913
1.56218
1.4341
1.30488
1.17457
1.04305
0.910395
0.776162
0.640635
0.502415
0.362663
0.217037
0.070533
-0.762021
-0.771925
-0.777101
-0.777325
-0.772318
-0.761854
-0.745938
-0.724738
-0.698451
-0.667165
-0.630715
-0.588545
-0.539609
-0.482323
-0.414582
-0.333835
-0.237205
-0.121648
0.0158655
0.178161
0.367658
0.586171
0.834693
1.11317
1.4203
1.75326
2.10759
2.47699
2.85304
3.22465
3.57818
3.90027
4.18275
4.42572
4.63604
4.82288
4.99374
5.15279
5.30114
5.43792
5.56124
5.66888
5.75863
5.82852
5.87686
5.90239
5.9043
5.88243
5.83738
5.7707
5.68492
5.5835
5.47051
5.35026
5.22679
5.1035
4.98288
4.86647
4.75496
4.64836
4.54624
4.44787
4.35242
4.25904
4.1669
4.07529
3.98358
3.89124
3.79787
3.70312
3.60677
3.50863
3.40858
3.30657
3.20256
3.09655
2.98856
2.87864
2.76684
2.65322
2.53784
2.4208
2.30215
2.18199
2.06038
1.93741
1.81313
1.68762
1.56092
1.43307
1.30408
1.17398
1.04267
0.910188
0.776141
0.640676
0.502671
0.362591
0.217701
0.069096
-0.698946
-0.704493
-0.705534
-0.70188
-0.693246
-0.679352
-0.660084
-0.635429
-0.605372
-0.569802
-0.528395
-0.480516
-0.42514
-0.360816
-0.285682
-0.197519
-0.0938503
0.0279249
0.170382
0.335901
0.526497
0.743632
0.988031
1.25948
1.55665
1.87689
2.2161
2.56864
2.9271
3.282
3.62184
3.93508
4.21384
4.45667
4.66806
4.85526
5.02494
5.1813
5.32592
5.45844
5.57742
5.68099
5.76716
5.83412
5.88027
5.90437
5.90559
5.8837
5.83916
5.77333
5.68849
5.58783
5.47523
5.35482
5.23061
5.10605
4.98378
4.86551
4.7521
4.64373
4.54005
4.44041
4.34397
4.24989
4.15733
4.06552
3.97379
3.88159
3.78846
3.69405
3.59808
3.50036
3.40077
3.29922
3.19567
3.09011
2.98257
2.87308
2.7617
2.64847
2.53347
2.41678
2.29848
2.17863
2.05733
1.93465
1.81066
1.68542
1.55899
1.43139
1.30265
1.17279
1.04172
0.909433
0.775606
0.640245
0.502513
0.362181
0.218175
0.0675055
-0.637137
-0.638605
-0.635733
-0.628351
-0.616161
-0.598842
-0.576187
-0.548047
-0.514256
-0.474555
-0.428514
-0.375448
-0.314366
-0.243942
-0.162524
-0.068183
0.0412089
0.167868
0.313969
0.481505
0.672128
0.886995
1.1266
1.3906
1.67766
1.9853
2.30979
2.64609
2.98775
3.32671