/*--------------------------------*- C++ -*----------------------------------*\
| =========                 |                                                 |
| \\      /  F ield         | OpenFOAM: The Open Source CFD Toolbox           |
|  \\    /   O peration     | Version:  4.1                                   |
|   \\  /    A nd           | Web:      www.OpenFOAM.org                      |
|    \\/     M anipulation  |                                                 |
\*---------------------------------------------------------------------------*/
FoamFile
{
    version     2.0;
    format      ascii;
    class       surfaceScalarField;
    location    "200";
    object      phi;
}
// * * * * * * * * * * * * * * * * * * * * * * * * * * * * * * * * * * * * * //

dimensions      [0 3 -1 0 0 0 0];

internalField   nonuniform List<scalar> 
13452
(
6.28706e-05
-2.60212e-06
6.37415e-05
-8.70944e-07
6.46322e-05
-8.90687e-07
6.41129e-05
5.19265e-07
6.29037e-05
1.20925e-06
6.15663e-05
1.33741e-06
6.03041e-05
1.26222e-06
5.91574e-05
1.14666e-06
5.81264e-05
1.03101e-06
5.72029e-05
9.23539e-07
5.63756e-05
8.27285e-07
5.56327e-05
7.42844e-07
5.49638e-05
6.68953e-07
5.436e-05
6.03778e-07
5.38143e-05
5.45723e-07
5.33208e-05
4.9353e-07
5.28746e-05
4.46173e-07
5.24718e-05
4.0278e-07
5.21092e-05
3.62611e-07
5.17842e-05
3.25028e-07
5.14947e-05
2.8946e-07
5.12393e-05
2.55378e-07
5.10171e-05
2.22266e-07
5.08275e-05
1.89601e-07
5.06706e-05
1.56835e-07
5.05473e-05
1.23356e-07
5.04586e-05
8.86527e-08
5.04066e-05
5.20624e-08
5.03912e-05
1.53039e-08
5.04134e-05
-2.2111e-08
5.04771e-05
-6.37848e-08
5.0615e-05
-1.37878e-07
-2.30333e-07
5.08454e-05
6.30684e-05
-3.68021e-06
6.28007e-05
-6.03206e-07
6.21259e-05
-2.15912e-07
6.234e-05
3.05187e-07
6.27998e-05
7.49432e-07
6.32023e-05
9.34931e-07
6.34746e-05
9.89958e-07
6.36243e-05
9.96906e-07
6.36773e-05
9.77967e-07
6.36596e-05
9.41299e-07
6.35919e-05
8.94936e-07
6.34898e-05
8.44927e-07
6.33645e-05
7.94293e-07
6.3224e-05
7.44266e-07
6.30743e-05
6.95429e-07
6.29198e-05
6.48076e-07
6.27637e-05
6.02272e-07
6.26085e-05
5.57917e-07
6.24563e-05
5.14822e-07
6.23086e-05
4.72741e-07
6.21667e-05
4.31382e-07
6.20317e-05
3.90407e-07
6.19045e-05
3.49427e-07
6.17861e-05
3.07988e-07
6.16774e-05
2.65552e-07
6.15793e-05
2.21464e-07
6.1493e-05
1.74923e-07
6.14203e-05
1.24774e-07
6.13666e-05
6.90076e-08
6.13406e-05
3.93185e-09
6.13509e-05
-7.40794e-08
6.1398e-05
-1.85027e-07
-3.17391e-07
6.14851e-05
6.23309e-05
-2.24966e-06
6.26633e-05
-9.35652e-07
6.28133e-05
-3.6594e-07
6.31015e-05
1.70473e-08
6.34342e-05
4.16754e-07
6.37266e-05
6.42511e-07
6.3971e-05
7.4553e-07
6.41709e-05
7.9701e-07
6.43297e-05
8.19169e-07
6.44527e-05
8.18251e-07
6.45463e-05
8.01422e-07
6.4616e-05
7.75233e-07
6.46667e-05
7.43575e-07
6.47024e-05
7.08488e-07
6.47266e-05
6.71244e-07
6.4742e-05
6.32709e-07
6.47509e-05
5.93401e-07
6.47552e-05
5.53574e-07
6.47567e-05
5.13306e-07
6.47569e-05
4.72551e-07
6.47571e-05
4.31163e-07
6.47586e-05
3.88899e-07
6.47627e-05
3.45421e-07
6.47704e-05
3.00282e-07
6.4783e-05
2.52904e-07
6.48019e-05
2.02525e-07
6.48287e-05
1.48121e-07
6.48653e-05
8.81964e-08
6.49138e-05
2.05666e-08
6.49766e-05
-5.89438e-08
6.50575e-05
-1.54962e-07
6.5152e-05
-2.79536e-07
-4.28365e-07
6.5263e-05
6.47769e-05
-1.44354e-06
6.47362e-05
-8.94944e-07
6.47883e-05
-4.18052e-07
6.48996e-05
-9.41829e-08
6.50674e-05
2.48902e-07
6.52369e-05
4.73008e-07
6.53942e-05
5.88254e-07
6.55383e-05
6.52955e-07
6.56679e-05
6.89511e-07
6.57828e-05
7.0333e-07
6.5884e-05
7.0028e-07
6.5973e-05
6.86264e-07
6.60515e-05
6.65021e-07
6.61214e-05
6.38642e-07
6.61841e-05
6.08509e-07
6.62412e-05
5.75613e-07
6.6294e-05
5.40601e-07
6.63437e-05
5.03841e-07
6.63915e-05
4.65508e-07
6.64384e-05
4.2563e-07
6.64855e-05
3.84109e-07
6.65337e-05
3.40733e-07
6.65839e-05
2.95169e-07
6.66372e-05
2.46952e-07
6.66947e-05
1.95457e-07
6.67574e-05
1.39847e-07
6.68265e-05
7.8984e-08
6.69034e-05
1.12693e-08
6.69896e-05
-6.55794e-08
6.70858e-05
-1.55199e-07
6.71924e-05
-2.61525e-07
6.73046e-05
-3.91762e-07
-5.44714e-07
6.7421e-05
6.70082e-05
-9.94945e-07
6.68603e-05
-7.47085e-07
6.68349e-05
-3.92664e-07
6.68644e-05
-1.23667e-07
6.6953e-05
1.60363e-07
6.70618e-05
3.64211e-07
6.71704e-05
4.79638e-07
6.72751e-05
5.48268e-07
6.73747e-05
5.8993e-07
6.7468e-05
6.09939e-07
6.75549e-05
6.13375e-07
6.76358e-05
6.05423e-07
6.77113e-05
5.89522e-07
6.77822e-05
5.67687e-07
6.78495e-05
5.41281e-07
6.79138e-05
5.11293e-07
6.7976e-05
4.78385e-07
6.80369e-05
4.4295e-07
6.80972e-05
4.05183e-07
6.81577e-05
3.65128e-07
6.82191e-05
3.22697e-07
6.82822e-05
2.77672e-07
6.83477e-05
2.29711e-07
6.84163e-05
1.78325e-07
6.84889e-05
1.2286e-07
6.85663e-05
6.2443e-08
6.86494e-05
-4.08297e-09
6.87389e-05
-7.82879e-08
6.88356e-05
-1.62254e-07
6.89392e-05
-2.58854e-07
6.90488e-05
-3.71102e-07
6.91603e-05
-5.03203e-07
-6.54923e-07
6.92705e-05
6.90837e-05
-6.9462e-07
6.89349e-05
-5.98293e-07
6.889e-05
-3.47737e-07
6.88934e-05
-1.27063e-07
6.89451e-05
1.08613e-07
6.90203e-05
2.89009e-07
6.91001e-05
3.99871e-07
6.91796e-05
4.68751e-07
6.92578e-05
5.11729e-07
6.93336e-05
5.34114e-07
6.94065e-05
5.40513e-07
6.94765e-05
5.35474e-07
6.95438e-05
5.22136e-07
6.96091e-05
5.02429e-07
6.96727e-05
4.7768e-07
6.97352e-05
4.48841e-07
6.9797e-05
4.16556e-07
6.98587e-05
3.8121e-07
6.99209e-05
3.42997e-07
6.99841e-05
3.01956e-07
7.00488e-05
2.5799e-07
7.01156e-05
2.10874e-07
7.0185e-05
1.60253e-07
7.02577e-05
1.05631e-07
7.03342e-05
4.6348e-08
7.04151e-05
-1.84545e-08
7.05009e-05
-8.98789e-08
7.0592e-05
-1.69339e-07
7.06883e-05
-2.58589e-07
7.07893e-05
-3.59787e-07
7.08932e-05
-4.75055e-07
7.09967e-05
-6.06731e-07
-7.54616e-07
7.10964e-05
7.11513e-05
-4.79563e-07
7.1022e-05
-4.69003e-07
7.09715e-05
-2.97275e-07
7.09631e-05
-1.18618e-07
7.09947e-05
7.70415e-08
7.10492e-05
2.34449e-07
7.11111e-05
3.38006e-07
7.11749e-05
4.0488e-07
7.12394e-05
4.47259e-07
7.13034e-05
4.70144e-07
7.13662e-05
4.77728e-07
7.14277e-05
4.73986e-07
7.1488e-05
4.6176e-07
7.15476e-05
4.42891e-07
7.16066e-05
4.18657e-07
7.16655e-05
3.89974e-07
7.17246e-05
3.57458e-07
7.17843e-05
3.21483e-07
7.18451e-05
2.82232e-07
7.19073e-05
2.39739e-07
7.19714e-05
1.93901e-07
7.20377e-05
1.44489e-07
7.21069e-05
9.11483e-08
7.21791e-05
3.33928e-08
7.22548e-05
-2.94114e-08
7.23345e-05
-9.80638e-08
7.24181e-05
-1.73553e-07
7.25059e-05
-2.57076e-07
7.25973e-05
-3.50018e-07
7.26914e-05
-4.53914e-07
7.27865e-05
-5.70131e-07
7.28796e-05
-6.99819e-07
-8.42516e-07
7.29675e-05
7.32513e-05
-3.25607e-07
7.31412e-05
-3.58836e-07
7.30888e-05
-2.4494e-07
7.30734e-05
-1.03173e-07
7.30924e-05
5.7971e-08
7.31333e-05
1.93567e-07
7.31832e-05
2.88092e-07
7.32368e-05
3.51293e-07
7.32922e-05
3.91846e-07
7.33483e-05
4.1413e-07
7.34041e-05
4.21868e-07
7.34596e-05
4.18503e-07
7.35148e-05
4.06584e-07
7.35698e-05
3.87843e-07
7.3625e-05
3.63503e-07
7.36805e-05
3.34437e-07
7.37367e-05
3.01235e-07
7.3794e-05
2.64257e-07
7.38525e-05
2.23682e-07
7.39127e-05
1.79538e-07
7.39749e-05
1.31724e-07
7.40394e-05
8.00179e-08
7.41064e-05
2.40811e-08
7.41764e-05
-3.65438e-08
7.42494e-05
-1.02436e-07
7.43256e-05
-1.74306e-07
7.44051e-05
-2.52989e-07
7.44874e-05
-3.39446e-07
7.45721e-05
-4.34703e-07
7.4658e-05
-5.39776e-07
7.47433e-05
-6.55436e-07
7.48255e-05
-7.82075e-07
-9.1895e-07
7.4902e-05
7.53936e-05
-2.16781e-07
7.53013e-05
-2.66467e-07
7.52498e-05
-1.93514e-07
7.52302e-05
-8.35561e-08
7.52408e-05
4.73782e-08
7.52719e-05
1.62508e-07
7.5313e-05
2.46927e-07
7.53592e-05
3.05162e-07
7.54081e-05
3.42941e-07
7.54584e-05
3.63821e-07
7.55093e-05
3.70988e-07
7.55604e-05
3.6738e-07
7.56117e-05
3.55253e-07
7.56634e-05
3.36207e-07
7.57155e-05
3.11398e-07
7.57682e-05
2.81652e-07
7.5822e-05
2.47532e-07
7.58768e-05
2.09384e-07
7.59331e-05
1.67384e-07
7.59911e-05
1.21562e-07
7.6051e-05
7.1826e-08
7.6113e-05
1.79709e-08
7.61774e-05
-4.03128e-08
7.62443e-05
-1.03435e-07
7.63138e-05
-1.71901e-07
7.63858e-05
-2.46309e-07
7.64601e-05
-3.27332e-07
7.65364e-05
-4.15691e-07
7.66138e-05
-5.12094e-07
7.66911e-05
-6.17142e-07
7.67669e-05
-7.31161e-07
7.68388e-05
-8.54059e-07
-9.8488e-07
7.69048e-05
7.75837e-05
-1.40922e-07
7.75083e-05
-1.91069e-07
7.74604e-05
-1.45544e-07
7.74387e-05
-6.19409e-08
7.74434e-05
4.27604e-08
7.7467e-05
1.38902e-07
7.75013e-05
2.12629e-07
7.75415e-05
2.64917e-07
7.75853e-05
2.99135e-07
7.76312e-05
3.17946e-07
7.76782e-05
3.23957e-07
7.7726e-05
3.19623e-07
7.77743e-05
3.06906e-07
7.78233e-05
2.87256e-07
7.78729e-05
2.61746e-07
7.79234e-05
2.31149e-07
7.7975e-05
1.96e-07
7.80277e-05
1.56631e-07
7.80819e-05
1.13215e-07
7.81377e-05
6.5791e-08
7.81952e-05
1.42811e-08
7.82547e-05
-4.14926e-08
7.83161e-05
-1.01799e-07
7.83797e-05
-1.66987e-07
7.84453e-05
-2.37479e-07
7.85127e-05
-3.13749e-07
7.85817e-05
-3.96309e-07
7.86517e-05
-4.85662e-07
7.87218e-05
-5.82242e-07
7.8791e-05
-6.86336e-07
7.88578e-05
-7.97945e-07
7.89204e-05
-9.16679e-07
-1.04144e-06
7.8977e-05
7.98263e-05
-8.88941e-08
7.97666e-05
-1.31386e-07
7.97241e-05
-1.02992e-07
7.97023e-05
-4.02367e-08
7.97029e-05
4.21699e-08
7.97208e-05
1.21005e-07
7.97496e-05
1.83893e-07
7.97849e-05
2.2956e-07
7.98245e-05
2.5958e-07
7.98667e-05
2.75757e-07
7.99105e-05
2.80114e-07
7.99555e-05
2.74649e-07
8.00014e-05
2.61029e-07
8.00481e-05
2.40545e-07
8.00957e-05
2.1417e-07
8.01442e-05
1.82621e-07
8.01938e-05
1.46398e-07
8.02446e-05
1.05823e-07
8.02967e-05
6.10652e-08
8.03504e-05
1.21744e-08
8.04055e-05
-4.09054e-08
8.04624e-05
-9.83188e-08
8.05209e-05
-1.60286e-07
8.0581e-05
-2.27089e-07
8.06425e-05
-2.99058e-07
8.07053e-05
-3.76551e-07
8.0769e-05
-4.59921e-07
8.08328e-05
-5.49485e-07
8.0896e-05
-6.45457e-07
8.09575e-05
-7.47886e-07
8.10162e-05
-8.56555e-07
8.10704e-05
-9.70891e-07
-1.08972e-06
8.11186e-05
8.21254e-05
-5.38696e-08
8.20796e-05
-8.56107e-08
8.20437e-05
-6.70611e-08
8.20236e-05
-2.00858e-08
8.20218e-05
4.3899e-08
8.20355e-05
1.07339e-07
8.20597e-05
1.59654e-07
8.2091e-05
1.9834e-07
8.21268e-05
2.23696e-07
8.21658e-05
2.36776e-07
8.22069e-05
2.39058e-07
8.22494e-05
2.32114e-07
8.22931e-05
2.17328e-07
8.23378e-05
1.95819e-07
8.23836e-05
1.68457e-07
8.24303e-05
1.35895e-07
8.24781e-05
9.85969e-08
8.2527e-05
5.6868e-08
8.25772e-05
1.08799e-08
8.26287e-05
-3.93062e-08
8.26815e-05
-9.3721e-08
8.27357e-05
-1.52471e-07
8.27911e-05
-2.15724e-07
8.28477e-05
-2.83693e-07
8.29053e-05
-3.56617e-07
8.29635e-05
-4.34739e-07
8.30218e-05
-5.1828e-07
8.30797e-05
-6.07395e-07
8.31364e-05
-7.02131e-07
8.31909e-05
-8.02364e-07
8.32421e-05
-9.07734e-07
8.32887e-05
-1.01757e-06
-1.13064e-06
8.33297e-05
8.44847e-05
-3.0775e-08
8.44507e-05
-5.16355e-08
8.44218e-05
-3.81873e-08
8.44045e-05
-2.73144e-09
8.44019e-05
4.64622e-08
8.44127e-05
9.65718e-08
8.44334e-05
1.38946e-07
8.44611e-05
1.70596e-07
8.44938e-05
1.91011e-07
8.45299e-05
2.00652e-07
8.45685e-05
2.00522e-07
8.46088e-05
1.9181e-07
8.46505e-05
1.75636e-07
8.46933e-05
1.52948e-07
8.47373e-05
1.24507e-07
8.47823e-05
9.08987e-08
8.48283e-05
5.25492e-08
8.48755e-05
9.74668e-09
8.49237e-05
-3.73368e-08
8.4973e-05
-8.86262e-08
8.50234e-05
-1.44125e-07
8.50748e-05
-2.03901e-07
8.51272e-05
-2.68068e-07
8.51802e-05
-3.36768e-07
8.52338e-05
-4.10158e-07
8.52874e-05
-4.88378e-07
8.53407e-05
-5.71533e-07
8.53929e-05
-6.59652e-07
8.54435e-05
-7.52652e-07
8.54914e-05
-8.50295e-07
8.55358e-05
-9.52134e-07
8.55757e-05
-1.05744e-06
-1.16498e-06
8.561e-05
8.69073e-05
-1.59033e-08
8.6883e-05
-2.72997e-08
8.68609e-05
-1.61679e-08
8.68471e-05
1.10704e-08
8.68449e-05
4.86701e-08
8.6854e-05
8.75344e-08
8.6872e-05
1.20868e-07
8.68969e-05
1.45704e-07
8.69268e-05
1.61099e-07
8.69604e-05
1.67093e-07
8.69966e-05
1.64305e-07
8.70348e-05
1.53602e-07
8.70746e-05
1.35864e-07
8.71157e-05
1.11876e-07
8.71579e-05
8.22925e-08
8.72012e-05
4.76294e-08
8.72454e-05
8.27354e-09
8.72907e-05
-3.55041e-08
8.73369e-05
-8.35318e-08
8.7384e-05
-1.3572e-07
8.74319e-05
-1.92046e-07
8.74805e-05
-2.52537e-07
8.75297e-05
-3.17255e-07
8.75792e-05
-3.86279e-07
8.76288e-05
-4.59686e-07
8.76779e-05
-5.37532e-07
8.77262e-05
-6.19823e-07
8.7773e-05
-7.06493e-07
8.78178e-05
-7.97367e-07
8.78596e-05
-8.92132e-07
8.78977e-05
-9.9029e-07
8.79314e-05
-1.09109e-06
-1.19333e-06
8.79598e-05
8.93962e-05
-6.60549e-09
8.93795e-05
-1.05755e-08
8.93637e-05
-3.49255e-10
8.93537e-05
2.10438e-08
8.93527e-05
4.96901e-08
8.9361e-05
7.92674e-08
8.93772e-05
1.04615e-07
8.93999e-05
1.23076e-07
8.94274e-05
1.33553e-07
8.94587e-05
1.35829e-07
8.94927e-05
1.30241e-07
8.95289e-05
1.17396e-07
8.95668e-05
9.79699e-08
8.96061e-05
7.25998e-08
8.96466e-05
4.18379e-08
8.96881e-05
6.13427e-09
8.97305e-05
-3.41635e-08
8.97738e-05
-7.88024e-08
8.98179e-05
-1.27611e-07
8.98626e-05
-1.80487e-07
8.9908e-05
-2.37382e-07
8.99537e-05
-2.98284e-07
8.99997e-05
-3.63207e-07
9.00456e-05
-4.32173e-07
9.00911e-05
-5.05193e-07
9.01358e-05
-5.82248e-07
9.01792e-05
-6.6327e-07
9.02209e-05
-7.48119e-07
9.02601e-05
-8.3656e-07
9.02962e-05
-9.28234e-07
9.03285e-05
-1.02263e-06
9.03564e-05
-1.11898e-06
-1.21614e-06
9.03792e-05
9.19543e-05
-1.02697e-09
9.19434e-05
3.22763e-10
9.19329e-05
1.01755e-08
9.19266e-05
2.73114e-08
9.19272e-05
4.90609e-08
9.19354e-05
7.10714e-08
9.19505e-05
8.95209e-08
9.19714e-05
1.02186e-07
9.1997e-05
1.07995e-07
9.20262e-05
1.06612e-07
9.20582e-05
9.81834e-08
9.20925e-05
8.31225e-08
9.21285e-05
6.194e-08
9.2166e-05
3.51467e-08
9.22046e-05
3.20316e-09
9.22443e-05
-3.35019e-08
9.22848e-05
-7.46584e-08
9.2326e-05
-1.2003e-07
9.23678e-05
-1.69448e-07
9.24101e-05
-2.22797e-07
9.24527e-05
-2.80003e-07
9.24955e-05
-3.41022e-07
9.25381e-05
-4.05826e-07
9.25803e-05
-4.74383e-07
9.26218e-05
-5.4665e-07
9.26621e-05
-6.22549e-07
9.27008e-05
-7.01956e-07
9.27373e-05
-7.84681e-07
9.27712e-05
-8.70449e-07
9.28019e-05
-9.5888e-07
9.28287e-05
-1.04945e-06
9.28511e-05
-1.14144e-06
-1.2337e-06
9.28687e-05
9.4584e-05
2.10808e-09
9.45775e-05
6.89296e-09
9.45712e-05
1.64046e-08
9.45683e-05
3.0279e-08
9.45707e-05
4.66539e-08
9.45792e-05
6.25239e-08
9.45936e-05
7.51018e-08
9.46132e-05
8.2611e-08
9.46371e-05
8.41069e-08
9.46645e-05
7.92259e-08
9.46947e-05
6.80082e-08
9.4727e-05
5.07326e-08
9.47612e-05
2.77844e-08
9.47968e-05
-4.28478e-10
9.48335e-05
-3.3523e-08
9.48712e-05
-7.11649e-08
9.49096e-05
-1.13077e-07
9.49486e-05
-1.59041e-07
9.4988e-05
-2.08887e-07
9.50277e-05
-2.62491e-07
9.50675e-05
-3.19757e-07
9.51071e-05
-3.80612e-07
9.51462e-05
-4.44989e-07
9.51847e-05
-5.12817e-07
9.5222e-05
-5.84005e-07
9.52579e-05
-6.58432e-07
9.52919e-05
-7.35932e-07
9.53235e-05
-8.16282e-07
9.53522e-05
-8.99188e-07
9.53776e-05
-9.84263e-07
9.53992e-05
-1.071e-06
9.54164e-05
-1.15869e-06
-1.24623e-06
9.54289e-05
9.7288e-05
3.66625e-09
9.72845e-05
1.03481e-08
9.72816e-05
1.93165e-08
9.72814e-05
3.05201e-08
9.72854e-05
4.26048e-08
9.72945e-05
5.34627e-08
9.73085e-05
6.10733e-08
9.7327e-05
6.40621e-08
9.73495e-05
6.16508e-08
9.73752e-05
5.35089e-08
9.74036e-05
3.96291e-08
9.74341e-05
2.02069e-08
9.74664e-05
-4.46132e-09
9.75e-05
-3.4046e-08
9.75347e-05
-6.82267e-08
9.75702e-05
-1.06714e-07
9.76064e-05
-1.49261e-07
9.7643e-05
-1.95662e-07
9.76799e-05
-2.4575e-07
9.77168e-05
-2.9939e-07
9.77535e-05
-3.56471e-07
9.77898e-05
-4.16894e-07
9.78254e-05
-4.8056e-07
9.78599e-05
-5.47365e-07
9.78931e-05
-6.17183e-07
9.79245e-05
-6.89862e-07
9.79538e-05
-7.65209e-07
9.79805e-05
-8.4298e-07
9.80042e-05
-9.22875e-07
9.80244e-05
-1.00451e-06
9.80408e-05
-1.0874e-06
9.8053e-05
-1.17087e-06
-1.25386e-06
9.80606e-05
0.000100069
4.23182e-09
0.000100067
1.16469e-08
0.000100067
1.98064e-08
0.000100069
2.86829e-08
0.000100074
3.72348e-08
0.000100083
4.39449e-08
0.000100097
4.73462e-08
0.000100115
4.63996e-08
0.000100136
4.04973e-08
0.00010016
2.93725e-08
0.000100187
1.30113e-08
0.000100215
-8.43592e-09
0.000100246
-3.47304e-08
0.000100277
-6.55989e-08
0.00010031
-1.00768e-07
0.000100343
-1.39986e-07
0.000100377
-1.83027e-07
0.000100411
-2.29699e-07
0.000100445
-2.79836e-07
0.000100479
-3.33297e-07
0.000100512
-3.89955e-07
0.000100545
-4.49691e-07
0.000100577
-5.12382e-07
0.000100607
-5.77899e-07
0.000100636
-6.46091e-07
0.000100663
-7.16783e-07
0.000100688
-7.89766e-07
0.00010071
-8.64791e-07
0.000100728
-9.41556e-07
0.000100744
-1.0197e-06
0.000100755
-1.09874e-06
0.000100762
-1.17805e-06
-1.25662e-06
0.000100765
0.000102928
4.19969e-09
0.000102928
1.15379e-08
0.000102929
1.86619e-08
0.000102933
2.5427e-08
0.000102939
3.09806e-08
0.000102949
3.41958e-08
0.000102962
3.40026e-08
0.000102979
2.9632e-08
0.000102999
2.06339e-08
0.000103021
6.81726e-09
0.000103046
-1.1814e-08
0.000103073
-3.5127e-08
0.000103101
-6.29169e-08
0.00010313
-9.4948e-08
0.00010316
-1.30981e-07
0.000103191
-1.70791e-07
0.000103222
-2.14171e-07
0.000103254
-2.60939e-07
0.000103285
-3.1093e-07
0.000103315
-3.63998e-07
0.000103345
-4.20005e-07
0.000103375
-4.78814e-07
0.000103402
-5.40289e-07
0.000103429
-6.04278e-07
0.000103453
-6.70617e-07
0.000103476
-7.39116e-07
0.000103496
-8.0956e-07
0.000103512
-8.81698e-07
0.000103526
-9.55241e-07
0.000103536
-1.02984e-06
0.000103543
-1.10506e-06
0.000103545
-1.18028e-06
-1.25455e-06
0.000103543
0.000105869
3.84066e-09
0.00010587
1.0607e-08
0.000105872
1.65641e-08
0.000105876
2.13893e-08
0.000105883
2.43422e-08
0.000105892
2.45609e-08
0.000105905
2.12651e-08
0.000105921
1.39032e-08
0.000105939
2.16508e-09
0.00010596
-1.40613e-08
0.000105983
-3.47407e-08
0.000106008
-5.97397e-08
0.000106034
-8.88699e-08
0.000106061
-1.21919e-07
0.000106088
-1.58671e-07
0.000106117
-1.98919e-07
0.000106145
-2.42472e-07
0.000106173
-2.89155e-07
0.000106201
-3.38805e-07
0.000106228
-3.91272e-07
0.000106255
-4.46409e-07
0.00010628
-5.04071e-07
0.000106304
-5.64107e-07
0.000106326
-6.26355e-07
0.000106346
-6.90641e-07
0.000106363
-7.56771e-07
0.000106378
-8.24527e-07
0.00010639
-8.93667e-07
0.000106399
-9.63915e-07
0.000106404
-1.03494e-06
0.000106405
-1.10634e-06
0.000106403
-1.17753e-06
-1.24761e-06
0.000106396
0.000108894
3.34784e-09
0.000108895
9.32335e-09
0.000108898
1.41068e-08
0.000108902
1.71748e-08
0.000108908
1.78531e-08
0.000108917
1.54704e-08
0.000108929
9.46742e-09
0.000108944
-5.26693e-10
0.000108961
-1.46956e-08
0.00010898
-3.30732e-08
0.000109
-5.55847e-08
0.000109023
-8.2085e-08
0.000109046
-1.1239e-07
0.000109071
-1.46299e-07
0.000109096
-1.83613e-07
0.000109121
-2.24138e-07
0.000109146
-2.67694e-07
0.000109171
-3.1411e-07
0.000109195
-3.63228e-07
0.000109219
-4.14894e-07
0.000109242
-4.68958e-07
0.000109263
-5.25268e-07
0.000109282
-5.83666e-07
0.0001093
-6.43985e-07
0.000109315
-7.06046e-07
0.000109328
-7.69655e-07
0.000109338
-8.34602e-07
0.000109345
-9.00654e-07
0.000109349
-9.67552e-07
0.000109349
-1.03499e-06
0.000109345
-1.10259e-06
0.000109338
-1.16981e-06
-1.23579e-06
0.000109326
0.000112005
2.86861e-09
0.000112006
8.08176e-09
0.000112008
1.18259e-08
0.000112012
1.33675e-08
0.000112018
1.2072e-08
0.000112026
7.41947e-09
0.000112037
-9.66636e-10
0.000112049
-1.3297e-08
0.000112064
-2.9636e-08
0.000112081
-4.9939e-08
0.0001121
-7.40863e-08
0.000112119
-1.01912e-07
0.00011214
-1.3323e-07
0.000112162
-1.67843e-07
0.000112184
-2.05562e-07
0.000112206
-2.46203e-07
0.000112228
-2.89592e-07
0.000112249
-3.35568e-07
0.00011227
-3.83972e-07
0.00011229
-4.34652e-07
0.000112308
-4.87457e-07
0.000112325
-5.42231e-07
0.00011234
-5.98815e-07
0.000112353
-6.57041e-07
0.000112364
-7.1673e-07
0.000112372
-7.77695e-07
0.000112377
-8.39733e-07
0.000112379
-9.02626e-07
0.000112378
-9.66135e-07
0.000112373
-1.02998e-06
0.000112364
-1.0938e-06
0.000112351
-1.1571e-06
-1.21907e-06
0.000112335
0.000115205
2.52905e-09
0.000115206
7.24432e-09
0.000115207
1.02389e-08
0.00011521
1.05575e-08
0.000115215
7.59485e-09
0.000115221
9.68367e-10
0.00011523
-9.5298e-09
0.00011524
-2.39558e-08
0.000115253
-4.22543e-08
0.000115267
-6.42978e-08
0.000115283
-8.99157e-08
0.0001153
-1.18916e-07
0.000115318
-1.51101e-07
0.000115336
-1.86277e-07
0.000115355
-2.24256e-07
0.000115374
-2.64864e-07
0.000115392
-3.07934e-07
0.00011541
-3.53308e-07
0.000115427
-4.00834e-07
0.000115442
-4.50362e-07
0.000115457
-5.01742e-07
0.000115469
-5.5482e-07
0.00011548
-6.09438e-07
0.000115488
-6.65431e-07
0.000115494
-7.22628e-07
0.000115497
-7.80847e-07
0.000115497
-8.39899e-07
0.000115494
-8.99583e-07
0.000115488
-9.59677e-07
0.000115478
-1.01993e-06
0.000115464
-1.08001e-06
0.000115446
-1.13944e-06
-1.19748e-06
0.000115425
0.000118496
2.45375e-09
0.000118496
7.18399e-09
0.000118496
9.89459e-09
0.000118498
9.38583e-09
0.0001185
5.08684e-09
0.000118504
-3.23871e-09
0.00011851
-1.56233e-08
0.000118518
-3.19596e-08
0.000118528
-5.20628e-08
0.00011854
-7.57137e-08
0.000118552
-1.02683e-07
0.000118566
-1.32747e-07
0.000118581
-1.6569e-07
0.000118596
-2.01315e-07
0.000118611
-2.39438e-07
0.000118626
-2.79889e-07
0.000118641
-3.22509e-07
0.000118654
-3.67146e-07
0.000118667
-4.13654e-07
0.000118679
-4.61888e-07
0.000118689
-5.11703e-07
0.000118697
-5.6295e-07
0.000118703
-6.15476e-07
0.000118707
-6.69125e-07
0.000118708
-7.23731e-07
0.000118706
-7.79127e-07
0.000118701
-8.35137e-07
0.000118693
-8.91576e-07
0.000118682
-9.48245e-07
0.000118667
-1.00491e-06
0.000118648
-1.06128e-06
0.000118625
-1.11691e-06
-1.1711e-06
0.000118599
0.000121881
2.78772e-09
0.00012188
8.33911e-09
0.000121878
1.14409e-08
0.000121877
1.06105e-08
0.000121877
5.33741e-09
0.000121878
-4.43405e-09
0.000121881
-1.85324e-08
0.000121886
-3.66621e-08
0.000121892
-5.84883e-08
0.0001219
-8.36855e-08
0.000121909
-1.11955e-07
0.00012192
-1.43031e-07
0.000121931
-1.76677e-07
0.000121942
-2.12689e-07
0.000121953
-2.50882e-07
0.000121965
-2.91092e-07
0.000121975
-3.33168e-07
0.000121985
-3.76966e-07
0.000121994
-4.22347e-07
0.000122001
-4.69176e-07
0.000122007
-5.17315e-07
0.00012201
-5.66625e-07
0.000122012
-6.16961e-07
0.000122011
-6.68176e-07
0.000122007
-7.20119e-07
0.000122001
-7.72634e-07
0.000121991
-8.25562e-07
0.000121978
-8.78736e-07
0.000121962
-9.31978e-07
0.000121942
-9.8508e-07
0.000121919
-1.03777e-06
0.000121891
-1.08966e-06
-1.14008e-06
0.00012186
0.000125363
3.72527e-09
0.00012536
1.12914e-08
0.000125355
1.57236e-08
0.000125351
1.5203e-08
0.000125347
9.3421e-09
0.000125344
-1.66607e-09
0.000125343
-1.73899e-08
0.000125343
-3.72992e-08
0.000125346
-6.08759e-08
0.00012535
-8.76649e-08
0.000125355
-1.17282e-07
0.000125361
-1.49409e-07
0.000125369
-1.83784e-07
0.000125376
-2.20189e-07
0.000125384
-2.58441e-07
0.000125391
-2.9838e-07
0.000125398
-3.39864e-07
0.000125403
-3.82761e-07
0.000125408
-4.26945e-07
0.000125411
-4.72291e-07
0.000125413
-5.18675e-07
0.000125412
-5.65967e-07
0.000125409
-6.14039e-07
0.000125404
-6.62756e-07
0.000125395
-7.11981e-07
0.000125384
-7.61575e-07
0.00012537
-8.11395e-07
0.000125353
-8.61294e-07
0.000125332
-9.11116e-07
0.000125307
-9.60677e-07
0.000125279
-1.00974e-06
0.000125248
-1.05794e-06
-1.10466e-06
0.000125212
0.000128943
5.55951e-09
0.000128938
1.6892e-08
0.000128929
2.3939e-08
0.00012892
2.44924e-08
0.000128911
1.84187e-08
0.000128903
6.28048e-09
0.000128897
-1.11334e-08
0.000128893
-3.29811e-08
0.00012889
-5.85084e-08
0.00012889
-8.70969e-08
0.000128891
-1.18256e-07
0.000128893
-1.51601e-07
0.000128896
-1.86838e-07
0.000128899
-2.23736e-07
0.000128903
-2.6211e-07
0.000128906
-3.01812e-07
0.000128909
-3.42711e-07
0.000128911
-3.84692e-07
0.000128912
-4.27645e-07
0.000128911
-4.71463e-07
0.000128909
-5.16038e-07
0.000128904
-5.61259e-07
0.000128897
-6.07012e-07
0.000128887
-6.53182e-07
0.000128875
-6.99648e-07
0.00012886
-7.46289e-07
0.000128841
-7.92983e-07
0.000128819
-8.39601e-07
0.000128794
-8.8601e-07
0.000128766
-9.3205e-07
0.000128734
-9.77513e-07
0.000128698
-1.02207e-06
-1.06517e-06
0.000128658
0.000132626
8.77411e-09
0.000132616
2.64807e-08
0.000132602
3.78785e-08
0.000132586
4.03772e-08
0.00013257
3.43618e-08
0.000132556
2.09721e-08
0.000132543
1.5189e-09
0.000132533
-2.27187e-08
0.000132525
-5.06706e-08
0.000132519
-8.15084e-08
0.000132516
-1.14608e-07
0.000132514
-1.4951e-07
0.000132513
-1.8588e-07
0.000132513
-2.23477e-07
0.000132513
-2.62125e-07
0.000132512
-3.01689e-07
0.000132512
-3.42062e-07
0.00013251
-3.83151e-07
0.000132507
-4.24871e-07
0.000132503
-4.67138e-07
0.000132497
-5.09869e-07
0.000132489
-5.52974e-07
0.000132478
-5.96364e-07
0.000132465
-6.39942e-07
0.000132449
-6.83611e-07
0.00013243
-7.27269e-07
0.000132408
-7.70814e-07
0.000132382
-8.14141e-07
0.000132353
-8.57137e-07
0.000132321
-8.99669e-07
0.000132285
-9.41559e-07
0.000132245
-9.82522e-07
-1.02205e-06
0.000132202
0.000136413
1.42288e-08
0.000136397
4.2282e-08
0.000136375
6.03261e-08
0.000136349
6.56286e-08
0.000136324
5.96237e-08
0.000136301
4.43858e-08
0.00013628
2.20274e-08
0.000136263
-5.53413e-09
0.000136249
-3.68006e-08
0.000136238
-7.06787e-08
0.00013623
-1.06387e-07
0.000136224
-1.43386e-07
0.000136219
-1.81311e-07
0.000136216
-2.19925e-07
0.000136213
-2.59073e-07
0.00013621
-2.98652e-07
0.000136206
-3.3859e-07
0.000136202
-3.7883e-07
0.000136196
-4.19324e-07
0.000136189
-4.60022e-07
0.00013618
-5.00871e-07
0.000136169
-5.41814e-07
0.000136156
-5.82786e-07
0.000136139
-6.23719e-07
0.00013612
-6.64539e-07
0.000136098
-7.05169e-07
0.000136073
-7.45529e-07
0.000136044
-7.85537e-07
0.000136012
-8.25102e-07
0.000135977
-8.6412e-07
0.000135938
-9.02441e-07
0.000135895
-9.39825e-07
-9.75816e-07
0.000135849
0.000140306
2.35465e-08
0.000140281
6.81382e-08
0.000140245
9.56928e-08
0.000140207
1.04289e-07
0.000140169
9.7467e-08
0.000140134
7.88513e-08
0.000140104
5.18311e-08
0.00014008
1.92661e-08
0.00014006
-1.67858e-08
0.000140044
-5.49255e-08
0.000140032
-9.42151e-08
0.000140022
-1.34055e-07
0.000140015
-1.74087e-07
0.000140009
-2.14111e-07
0.000140004
-2.54024e-07
0.000139999
-2.93782e-07
0.000139994
-3.33372e-07
0.000139988
-3.72792e-07
0.000139981
-4.12044e-07
0.000139972
-4.51127e-07
0.000139961
-4.90028e-07
0.000139948
-5.28728e-07
0.000139932
-5.67198e-07
0.000139914
-6.054e-07
0.000139893
-6.43289e-07
0.000139869
-6.80815e-07
0.000139841
-7.17923e-07
0.00013981
-7.54554e-07
0.000139776
-7.90642e-07
0.000139737
-8.26108e-07
0.000139696
-8.60838e-07
0.000139651
-8.94633e-07
-9.27095e-07
0.000139602
0.000144308
3.99796e-08
0.000144265
1.10856e-07
0.00014421
1.50962e-07
0.000144152
1.62091e-07
0.000144098
1.51929e-07
0.00014405
1.26697e-07
0.00014401
9.18409e-08
0.000143978
5.15584e-08
0.000143952
8.54717e-09
0.000143933
-3.55242e-08
0.000143918
-7.96291e-08
0.000143908
-1.23189e-07
0.000143899
-1.65929e-07
0.000143893
-2.0775e-07
0.000143888
-2.48657e-07
0.000143883
-2.88703e-07
0.000143877
-3.27967e-07
0.000143871
-3.66526e-07
0.000143863
-4.04454e-07
0.000143854
-4.41807e-07
0.000143843
-4.7863e-07
0.000143829
-5.14947e-07
0.000143812
-5.50772e-07
0.000143793
-5.86103e-07
0.000143771
-6.20927e-07
0.000143745
-6.55224e-07
0.000143716
-6.88965e-07
0.000143684
-7.22117e-07
0.000143648
-7.54638e-07
0.000143608
-7.86475e-07
0.000143565
-8.17548e-07
0.000143518
-8.47705e-07
-8.76608e-07
0.000143467
0.000148417
7.04638e-08
0.000148346
1.82628e-07
0.00014826
2.36881e-07
0.000148175
2.46575e-07
0.0001481
2.27232e-07
0.000148037
1.8931e-07
0.000147988
1.4146e-07
0.00014795
8.95516e-08
0.000147922
3.67563e-08
0.000147901
-1.52228e-08
0.000147887
-6.54688e-08
0.000147878
-1.13594e-07
0.000147871
-1.59539e-07
0.000147867
-2.03413e-07
0.000147864
-2.45397e-07
0.000147861
-2.85697e-07
0.000147857
-3.24518e-07
0.000147853
-3.62046e-07
0.000147847
-3.98443e-07
0.000147839
-4.33842e-07
0.000147828
-4.68351e-07
0.000147815
-5.0205e-07
0.0001478
-5.34999e-07
0.000147781
-5.67236e-07
0.000147759
-5.98786e-07
0.000147733
-6.29658e-07
0.000147704
-6.59853e-07
0.000147671
-6.89361e-07
0.000147635
-7.18167e-07
0.000147595
-7.46243e-07
0.000147551
-7.73541e-07
0.000147503
-7.99957e-07
-8.2522e-07
0.000147451
0.00015263
1.30067e-07
0.000152507
3.05527e-07
0.000152374
3.69229e-07
0.000152255
3.66212e-07
0.000152156
3.25986e-07
0.00015208
2.6522e-07
0.000152024
1.97001e-07
0.000151985
1.2863e-07
0.000151959
6.29686e-08
0.000151943
1.17664e-09
0.000151934
-5.63058e-08
0.00015193
-1.09545e-07
0.000151929
-1.58891e-07
0.00015193
-2.04783e-07
0.000151933
-2.47661e-07
0.000151935
-2.87935e-07
0.000151936
-3.25975e-07
0.000151936
-3.62101e-07
0.000151934
-3.9658e-07
0.00015193
-4.29636e-07
0.000151923
-4.61447e-07
0.000151913
-4.92156e-07
0.0001519
-5.21872e-07
0.000151884
-5.5068e-07
0.000151864
-5.78639e-07
0.00015184
-6.05793e-07
0.000151812
-6.3217e-07
0.00015178
-6.57788e-07
0.000151745
-6.82652e-07
0.000151705
-7.06761e-07
0.000151662
-7.30097e-07
0.000151615
-7.52602e-07
-7.74076e-07
0.000151564
0.000156932
2.49311e-07
0.000156718
5.20179e-07
0.000156516
5.70335e-07
0.000156355
5.28103e-07
0.000156235
4.45722e-07
0.000156153
3.46953e-07
0.000156101
2.49391e-07
0.00015607
1.5975e-07
0.000156054
7.86725e-08
0.000156049
5.82473e-09
0.000156052
-5.93216e-08
0.00015606
-1.17606e-07
0.000156071
-1.69999e-07
0.000156084
-2.17393e-07
0.000156097
-2.60556e-07
0.000156109
-3.00148e-07
0.00015612
-3.36732e-07
0.000156129
-3.70781e-07
0.000156135
-4.02684e-07
0.000156138
-4.32758e-07
0.000156138
-4.61262e-07
0.000156134
-4.88401e-07
0.000156126
-5.14339e-07
0.000156115
-5.39205e-07
0.000156099
-5.63097e-07
0.00015608
-5.86091e-07
0.000156056
-6.08244e-07
0.000156027
-6.29595e-07
0.000155995
-6.50175e-07
0.000155958
-6.70002e-07
0.000155917
-6.89083e-07
0.000155872
-7.07402e-07
-7.24839e-07
0.000155823
0.000161289
4.98685e-07
0.000160914
8.95597e-07
0.00016062
8.64016e-07
0.000160415
7.32684e-07
0.000160287
5.74323e-07
0.000160216
4.1731e-07
0.000160184
2.81438e-07
0.000160177
1.67134e-07
0.000160186
6.93831e-08
0.000160207
-1.46551e-08
0.000160234
-8.68815e-08
0.000160266
-1.49225e-07
0.000160299
-2.03486e-07
0.000160333
-2.51114e-07
0.000160366
-2.93258e-07
0.000160397
-3.30864e-07
0.000160425
-3.64718e-07
0.000160449
-3.95461e-07
0.00016047
-4.23613e-07
0.000160487
-4.49595e-07
0.000160499
-4.73745e-07
0.000160507
-4.96336e-07
0.000160511
-5.17585e-07
0.000160509
-5.37662e-07
0.000160503
-5.56703e-07
0.000160491
-5.74814e-07
0.000160475
-5.92076e-07
0.000160454
-6.08552e-07
0.000160428
-6.24289e-07
0.000160398
-6.39322e-07
0.000160362
-6.53677e-07
0.000160322
-6.6737e-07
-6.80345e-07
0.000160278
0.000165508
1.14434e-06
0.000164891
1.51251e-06
0.000164537
1.21852e-06
0.000164332
9.37207e-07
0.00016424
6.66302e-07
0.000164222
4.34934e-07
0.000164245
2.58894e-07
0.000164291