/*--------------------------------*- C++ -*----------------------------------*\
| =========                 |                                                 |
| \\      /  F ield         | OpenFOAM: The Open Source CFD Toolbox           |
|  \\    /   O peration     | Version:  4.1                                   |
|   \\  /    A nd           | Web:      www.OpenFOAM.org                      |
|    \\/     M anipulation  |                                                 |
\*---------------------------------------------------------------------------*/
FoamFile
{
    version     2.0;
    format      ascii;
    class       volVectorField;
    location    "200";
    object      U;
}
// * * * * * * * * * * * * * * * * * * * * * * * * * * * * * * * * * * * * * //

dimensions      [0 1 -1 0 0 0 0];

internalField   nonuniform List<vector> 
6820
(
(7.12052 -2.89959 0)
(7.72191 -2.2784 0)
(7.93553 -1.28315 0)
(7.88026 -0.658656 0)
(7.7336 -0.320876 0)
(7.57185 -0.148612 0)
(7.4133 -0.0620063 0)
(7.26553 -0.0180527 0)
(7.13237 0.00433851 0)
(7.01366 0.015464 0)
(6.90754 0.0205793 0)
(6.81231 0.0224669 0)
(6.72662 0.0226192 0)
(6.64938 0.0218446 0)
(6.57961 0.0205897 0)
(6.51651 0.0191049 0)
(6.45944 0.0175295 0)
(6.40788 0.015938 0)
(6.36137 0.0143667 0)
(6.31959 0.0128293 0)
(6.28224 0.0113258 0)
(6.24911 0.0098469 0)
(6.22005 0.00837662 0)
(6.19498 0.00689344 0)
(6.17388 0.00537082 0)
(6.15677 0.00377485 0)
(6.14381 0.0020757 0)
(6.13512 0.00022186 0)
(6.13112 -0.0016962 0)
(6.13134 -0.00364879 0)
(6.13648 -0.00552276 0)
(6.14534 -0.00882751 0)
(6.17057 -0.0130097 0)
(7.59884 0.654112 0)
(7.43311 0.777541 0)
(7.36137 0.527606 0)
(7.34971 0.34256 0)
(7.39594 0.234083 0)
(7.4539 0.16626 0)
(7.49646 0.12283 0)
(7.52072 0.0953392 0)
(7.53163 0.0775689 0)
(7.53313 0.0655047 0)
(7.5277 0.056927 0)
(7.51732 0.0506009 0)
(7.50359 0.0457599 0)
(7.48768 0.041901 0)
(7.47038 0.0386982 0)
(7.45228 0.035941 0)
(7.43382 0.0334886 0)
(7.41535 0.031242 0)
(7.39712 0.0291291 0)
(7.37934 0.0270947 0)
(7.36217 0.0250939 0)
(7.34575 0.0230868 0)
(7.33022 0.021035 0)
(7.31566 0.0188984 0)
(7.3022 0.0166328 0)
(7.28993 0.0141858 0)
(7.27898 0.0115016 0)
(7.26952 0.00850411 0)
(7.26177 0.00518013 0)
(7.2567 0.00138823 0)
(7.2556 -0.00308488 0)
(7.25858 -0.010054 0)
(7.26778 -0.0177699 0)
(7.25567 -0.0497566 0)
(7.16465 -0.0747266 0)
(7.20157 -0.0873682 0)
(7.24089 -0.057497 0)
(7.27565 -0.0220876 0)
(7.31222 0.00136707 0)
(7.34446 0.0158675 0)
(7.36999 0.0254995 0)
(7.39021 0.0317948 0)
(7.40625 0.0355304 0)
(7.41861 0.0374698 0)
(7.42786 0.03824 0)
(7.43466 0.0382429 0)
(7.43953 0.0377204 0)
(7.4429 0.0368307 0)
(7.44511 0.0356815 0)
(7.44644 0.0343421 0)
(7.44715 0.0328537 0)
(7.44745 0.0312384 0)
(7.44751 0.0295043 0)
(7.44749 0.0276493 0)
(7.44756 0.0256616 0)
(7.44784 0.0235204 0)
(7.44848 0.0211957 0)
(7.44961 0.0186464 0)
(7.45139 0.0158175 0)
(7.45397 0.0126345 0)
(7.45754 0.00899359 0)
(7.46237 0.00471224 0)
(7.46863 -0.000569825 0)
(7.47688 -0.00725431 0)
(7.48701 -0.0165427 0)
(7.49976 -0.0285421 0)
(7.29107 -0.0915452 0)
(7.22282 -0.0640809 0)
(7.23498 -0.0297492 0)
(7.25135 -0.00434682 0)
(7.26533 0.0150167 0)
(7.28415 0.0262165 0)
(7.30344 0.0319143 0)
(7.32043 0.0351253 0)
(7.33556 0.0369726 0)
(7.34921 0.0377855 0)
(7.3613 0.0378646 0)
(7.3719 0.0374807 0)
(7.38121 0.0367911 0)
(7.38946 0.0358735 0)
(7.39684 0.0347739 0)
(7.4035 0.0335236 0)
(7.40961 0.0321394 0)
(7.41531 0.0306267 0)
(7.42074 0.0289821 0)
(7.42601 0.0271956 0)
(7.43123 0.0252504 0)
(7.43653 0.0231229 0)
(7.44201 0.0207815 0)
(7.44777 0.0181846 0)
(7.45393 0.0152781 0)
(7.46061 0.0119906 0)
(7.46795 0.0082261 0)
(7.47607 0.0038464 0)
(7.48515 -0.00134751 0)
(7.49532 -0.00768381 0)
(7.50674 -0.0155516 0)
(7.51915 -0.0258011 0)
(7.53256 -0.0385932 0)
(7.31214 -0.0523052 0)
(7.26652 -0.033667 0)
(7.2635 -0.0152073 0)
(7.26675 -0.00320792 0)
(7.27231 0.00935323 0)
(7.28339 0.0185455 0)
(7.29599 0.0239664 0)
(7.30772 0.0274503 0)
(7.31874 0.0298473 0)
(7.32924 0.0313285 0)
(7.33907 0.0320694 0)
(7.34818 0.0322767 0)
(7.35665 0.0320883 0)
(7.36459 0.0315808 0)
(7.37209 0.0308053 0)
(7.37922 0.0297986 0)
(7.38607 0.0285839 0)
(7.39275 0.0271719 0)
(7.39932 0.0255632 0)
(7.40586 0.0237503 0)
(7.41247 0.0217175 0)
(7.41922 0.0194405 0)
(7.42618 0.0168854 0)
(7.43345 0.014007 0)
(7.4411 0.0107456 0)
(7.44923 0.00702252 0)
(7.45793 0.00273259 0)
(7.46729 -0.00226852 0)
(7.47741 -0.00818014 0)
(7.48832 -0.0152959 0)
(7.50002 -0.0239607 0)
(7.51222 -0.0347271 0)
(7.52467 -0.0477669 0)
(7.32016 -0.0321136 0)
(7.28766 -0.0254859 0)
(7.28094 -0.0145487 0)
(7.28028 -0.00524846 0)
(7.28284 0.00554302 0)
(7.28996 0.0140827 0)
(7.2987 0.0195322 0)
(7.30722 0.0231823 0)
(7.31552 0.0257372 0)
(7.32368 0.0273725 0)
(7.33156 0.028259 0)
(7.33911 0.0285891 0)
(7.34635 0.028495 0)
(7.35335 0.0280537 0)
(7.36015 0.0273159 0)
(7.3668 0.0263174 0)
(7.37335 0.0250796 0)
(7.37987 0.0236115 0)
(7.3864 0.0219118 0)
(7.39301 0.0199706 0)
(7.39976 0.0177692 0)
(7.40669 0.0152798 0)
(7.41388 0.0124648 0)
(7.42137 0.00927435 0)
(7.42924 0.00564412 0)
(7.43755 0.00149083 0)
(7.44634 -0.00329362 0)
(7.45569 -0.00885145 0)
(7.46561 -0.0153673 0)
(7.47608 -0.0230847 0)
(7.48701 -0.0322759 0)
(7.49814 -0.0432908 0)
(7.50914 -0.0562553 0)
(7.32442 -0.0222502 0)
(7.30063 -0.0211348 0)
(7.29337 -0.0133764 0)
(7.29126 -0.00536107 0)
(7.29231 0.00381311 0)
(7.29709 0.0113598 0)
(7.30346 0.0164823 0)
(7.31001 0.0200124 0)
(7.3166 0.0224912 0)
(7.32322 0.0240961 0)
(7.32975 0.0249864 0)
(7.33614 0.0253283 0)
(7.3424 0.0252388 0)
(7.34855 0.0247889 0)
(7.35463 0.0240258 0)
(7.36068 0.0229812 0)
(7.36673 0.0216733 0)
(7.37282 0.0201086 0)
(7.379 0.0182834 0)
(7.38531 0.0161851 0)
(7.39179 0.0137927 0)
(7.39848 0.0110756 0)
(7.40543 0.00799354 0)
(7.41268 0.00449426 0)
(7.42028 0.000511604 0)
(7.42825 -0.00403786 0)
(7.43664 -0.00925887 0)
(7.44546 -0.0152826 0)
(7.45469 -0.0222695 0)
(7.46428 -0.030413 0)
(7.47409 -0.0399166 0)
(7.48389 -0.0509971 0)
(7.49337 -0.0637284 0)
(7.32736 -0.015497 0)
(7.30986 -0.016617 0)
(7.30274 -0.0112565 0)
(7.2999 -0.00475209 0)
(7.30005 0.0028286 0)
(7.30333 0.00934732 0)
(7.30816 0.0140357 0)
(7.31341 0.0173629 0)
(7.31888 0.0197128 0)
(7.32447 0.021244 0)
(7.33007 0.0220965 0)
(7.33563 0.0224104 0)
(7.34116 0.0222874 0)
(7.34666 0.0217929 0)
(7.35216 0.0209701 0)
(7.35768 0.0198477 0)
(7.36325 0.0184413 0)
(7.36891 0.016755 0)
(7.37469 0.0147834 0)
(7.38061 0.0125121 0)
(7.38671 0.00991811 0)
(7.39303 0.00696958 0)
(7.3996 0.00362475 0)
(7.40643 -0.000169038 0)
(7.41357 -0.00447712 0)
(7.42103 -0.00937947 0)
(7.42881 -0.0149729 0)
(7.43691 -0.0213732 0)
(7.44528 -0.0287138 0)
(7.45386 -0.0371433 0)
(7.46249 -0.0468061 0)
(7.47095 -0.0578312 0)
(7.47901 -0.0702469 0)
(7.3294 -0.0104452 0)
(7.31664 -0.0124872 0)
(7.31001 -0.00903737 0)
(7.30686 -0.00396303 0)
(7.30642 0.00222391 0)
(7.30868 0.00779269 0)
(7.31241 0.012009 0)
(7.31674 0.0150869 0)
(7.32138 0.0172751 0)
(7.32622 0.0187022 0)
(7.33115 0.0194864 0)
(7.33611 0.0197438 0)
(7.34109 0.0195623 0)
(7.34608 0.0190008 0)
(7.35112 0.0180987 0)
(7.3562 0.0168816 0)
(7.36137 0.0153626 0)
(7.36664 0.0135442 0)
(7.37203 0.0114193 0)
(7.37757 0.00897237 0)
(7.38329 0.00617948 0)
(7.3892 0.0030081 0)
(7.39534 -0.000583387 0)
(7.40171 -0.00464641 0)
(7.40834 -0.00924318 0)
(7.41521 -0.0144477 0)
(7.42233 -0.0203462 0)
(7.42966 -0.027037 0)
(7.43716 -0.0346274 0)
(7.44472 -0.0432273 0)
(7.45222 -0.0529345 0)
(7.45947 -0.0638195 0)
(7.46626 -0.0758765 0)
(7.33075 -0.00684987 0)
(7.3216 -0.00907845 0)
(7.31575 -0.00695313 0)
(7.31259 -0.00307363 0)
(7.3118 0.00191276 0)
(7.31332 0.0066042 0)
(7.31623 0.010322 0)
(7.31983 0.0131079 0)
(7.32383 0.0151016 0)
(7.32809 0.016396 0)
(7.33249 0.0170857 0)
(7.33697 0.0172647 0)
(7.34151 0.0170068 0)
(7.34611 0.0163639 0)
(7.35076 0.0153712 0)
(7.35548 0.0140508 0)
(7.36029 0.0124138 0)
(7.36521 0.0104608 0)
(7.37026 0.00818372 0)
(7.37544 0.00556638 0)
(7.38079 0.00258451 0)
(7.38631 -0.000794055 0)
(7.39202 -0.0046096 0)
(7.39792 -0.00891087 0)
(7.40402 -0.0137554 0)
(7.41031 -0.0192094 0)
(7.41677 -0.0253474 0)
(7.42335 -0.0322505 0)
(7.43 -0.0400018 0)
(7.43662 -0.04868 0)
(7.44309 -0.058347 0)
(7.44926 -0.069035 0)
(7.45496 -0.0807136 0)
(7.33162 -0.00437704 0)
(7.3252 -0.00636322 0)
(7.32031 -0.0050681 0)
(7.31736 -0.0021416 0)
(7.3164 0.0018169 0)
(7.31738 0.00570298 0)
(7.31965 0.0089111 0)
(7.32267 0.0113726 0)
(7.32614 0.0131432 0)
(7.32992 0.0142801 0)
(7.33389 0.0148531 0)
(7.33797 0.0149353 0)
(7.34215 0.0145872 0)
(7.3464 0.0138526 0)
(7.35072 0.012762 0)
(7.35513 0.0113342 0)
(7.35963 0.00957778 0)
(7.36424 0.00749219 0)
(7.36896 0.00506853 0)
(7.37381 0.00229026 0)
(7.37881 -0.000866457 0)
(7.38395 -0.00443259 0)
(7.38924 -0.00844616 0)
(7.39469 -0.0129522 0)
(7.40028 -0.0180024 0)
(7.406 -0.0236546 0)
(7.41182 -0.0299713 0)
(7.41769 -0.0370174 0)
(7.42355 -0.0448554 0)
(7.42931 -0.0535392 0)
(7.43487 -0.0631044 0)
(7.44009 -0.0735576 0)
(7.44485 -0.0848515 0)
(7.33217 -0.00270327 0)
(7.32777 -0.00425317 0)
(7.32387 -0.00343728 0)
(7.3213 -0.00124151 0)
(7.32031 0.00185736 0)
(7.32093 0.00501959 0)
(7.32272 0.00772514 0)
(7.32526 0.0098431 0)
(7.3283 0.0113689 0)
(7.33166 0.0123273 0)
(7.33525 0.0127646 0)
(7.33899 0.0127346 0)
(7.34285 0.0122844 0)
(7.34679 0.0114499 0)
(7.35083 0.0102563 0)
(7.35495 0.00871912 0)
(7.35917 0.00684463 0)
(7.36349 0.00463098 0)
(7.36791 0.00206875 0)
(7.37244 -0.000858411 0)
(7.3771 -0.00417344 0)
(7.38187 -0.00790547 0)
(7.38677 -0.0120896 0)
(7.39177 -0.0167663 0)
(7.39687 -0.0219811 0)
(7.40205 -0.0277831 0)
(7.40727 -0.0342237 0)
(7.41248 -0.041353 0)
(7.41761 -0.0492166 0)
(7.42261 -0.0578492 0)
(7.42736 -0.0672676 0)
(7.43176 -0.0774615 0)
(7.43571 -0.0883724 0)
(7.33252 -0.00158918 0)
(7.32957 -0.00266278 0)
(7.3266 -0.00209573 0)
(7.3245 -0.000437884 0)
(7.3236 0.00196353 0)
(7.32401 0.0044922 0)
(7.32545 0.00671941 0)
(7.32761 0.00848832 0)
(7.33026 0.00975541 0)
(7.33328 0.0105193 0)
(7.33653 0.0108053 0)
(7.33996 0.0106497 0)
(7.34353 0.0100875 0)
(7.3472 0.00914645 0)
(7.35097 0.0078465 0)
(7.35482 0.00619956 0)
(7.35877 0.00420981 0)
(7.36282 0.00187424 0)
(7.36695 -0.000816862 0)
(7.37118 -0.00387937 0)
(7.37551 -0.00733485 0)
(7.37993 -0.0112102 0)
(7.38444 -0.015537 0)
(7.38902 -0.020351 0)
(7.39365 -0.0256914 0)
(7.39831 -0.0315989 0)
(7.40297 -0.0381144 0)
(7.40756 -0.045276 0)
(7.41205 -0.0531151 0)
(7.41634 -0.0616524 0)
(7.42038 -0.0708913 0)
(7.42406 -0.0808104 0)
(7.42731 -0.0913441 0)
(7.33273 -0.000863657 0)
(7.3308 -0.00150495 0)
(7.32865 -0.00104792 0)
(7.32704 0.000225977 0)
(7.32632 0.00207658 0)
(7.32664 0.00406519 0)
(7.32783 0.00585194 0)
(7.32969 0.00727918 0)
(7.33203 0.00828237 0)
(7.33473 0.00884141 0)
(7.33769 0.00896438 0)
(7.34084 0.00867292 0)
(7.34413 0.00799074 0)
(7.34755 0.00693808 0)
(7.35106 0.00552963 0)
(7.35467 0.00377389 0)
(7.35836 0.00167295 0)
(7.36214 -0.000777213 0)
(7.366 -0.0035864 0)
(7.36994 -0.00676972 0)
(7.37395 -0.0103471 0)
(7.37802 -0.0143429 0)
(7.38215 -0.018785 0)
(7.38632 -0.0237044 0)
(7.39051 -0.0291338 0)
(7.39468 -0.0351065 0)
(7.39881 -0.0416541 0)
(7.40284 -0.0488046 0)
(7.40672 -0.0565785 0)
(7.41039 -0.064986 0)
(7.41379 -0.0740213 0)
(7.41684 -0.0836559 0)
(7.41948 -0.09382 0)
(7.33285 -0.00040369 0)
(7.33163 -0.000693976 0)
(7.33015 -0.000274056 0)
(7.329 0.000728791 0)
(7.32851 0.00215228 0)
(7.32882 0.00369088 0)
(7.32985 0.00508381 0)
(7.33148 0.00618759 0)
(7.33356 0.00693025 0)
(7.33599 0.00728037 0)
(7.33869 0.00723332 0)
(7.34158 0.00679884 0)
(7.34463 0.00599116 0)
(7.3478 0.00482359 0)
(7.35107 0.00330601 0)
(7.35443 0.00144366 0)
(7.35788 -0.000763286 0)
(7.36139 -0.00331971 0)
(7.36498 -0.00623534 0)
(7.36862 -0.00952431 0)
(7.37232 -0.0132048 0)
(7.37606 -0.0172983 0)
(7.37983 -0.0218291 0)
(7.3836 -0.0268234 0)
(7.38736 -0.0323082 0)
(7.39107 -0.0383098 0)
(7.3947 -0.0448521 0)
(7.39821 -0.0519547 0)
(7.40154 -0.0596301 0)
(7.40464 -0.0678805 0)
(7.40747 -0.0766943 0)
(7.40996 -0.0860383 0)
(7.41205 -0.0958407 0)
(7.33292 -0.000122117 0)
(7.33219 -0.00015199 0)
(7.33123 0.000260198 0)
(7.33048 0.00106849 0)
(7.33022 0.00216274 0)
(7.33057 0.00333217 0)
(7.33152 0.00438125 0)
(7.33297 0.00518742 0)
(7.33484 0.00568041 0)
(7.33705 0.00582372 0)
(7.3395 0.00560447 0)
(7.34216 0.00502354 0)
(7.34497 0.00408751 0)
(7.3479 0.00280384 0)
(7.35094 0.00117812 0)
(7.35406 -0.000787289 0)
(7.35726 -0.00309392 0)
(7.36052 -0.00574733 0)
(7.36384 -0.00875701 0)
(7.36719 -0.012136 0)
(7.37058 -0.0159006 0)
(7.37399 -0.0200695 0)
(7.3774 -0.0246635 0)
(7.38079 -0.0297042 0)
(7.38414 -0.0352134 0)
(7.38741 -0.0412113 0)
(7.39057 -0.0477156 0)
(7.39358 -0.0547391 0)
(7.39641 -0.0622881 0)
(7.399 -0.0703597 0)
(7.4013 -0.0789381 0)
(7.40328 -0.0879876 0)
(7.40489 -0.0974357 0)
(7.33296 4.14866e-05 0)
(7.33255 0.000187592 0)
(7.33198 0.00059576 0)
(7.33156 0.00125757 0)
(7.33151 0.00209583 0)
(7.33193 0.00296423 0)
(7.33283 0.00371793 0)
(7.33416 0.00425639 0)
(7.33586 0.00451609 0)
(7.33786 0.00446012 0)
(7.3401 0.00407113 0)
(7.34254 0.00334405 0)
(7.34512 0.0022798 0)
(7.34783 0.000881138 0)
(7.35064 -0.000849886 0)
(7.35353 -0.00291334 0)
(7.35648 -0.00531213 0)
(7.35948 -0.00805232 0)
(7.36253 -0.011143 0)
(7.3656 -0.0145961 0)
(7.36868 -0.0184258 0)
(7.37177 -0.0226484 0)
(7.37482 -0.027281 0)
(7.37784 -0.0323414 0)
(7.38079 -0.0378465 0)
(7.38364 -0.0438117 0)
(7.38636 -0.0502491 0)
(7.38891 -0.0571667 0)
(7.39126 -0.0645662 0)
(7.39337 -0.072441 0)
(7.3952 -0.0807729 0)
(7.39672 -0.089525 0)
(7.39789 -0.098625 0)
(7.33299 0.000128329 0)
(7.33278 0.000379374 0)
(7.33249 0.000774454 0)
(7.33233 0.00131794 0)
(7.33244 0.00195256 0)
(7.33293 0.00257451 0)
(7.3338 0.00307644 0)
(7.33504 0.00337778 0)
(7.3366 0.00342385 0)
(7.33842 0.00318021 0)
(7.34047 0.00262798 0)
(7.3427 0.00175862 0)
(7.34507 0.000569202 0)
(7.34756 -0.000940954 0)
(7.35014 -0.0027725 0)
(7.35279 -0.00492739 0)
(7.3555 -0.0074096 0)
(7.35825 -0.0102254 0)
(7.36102 -0.0133834 0)
(7.3638 -0.0168943 0)
(7.36658 -0.0207704 0)
(7.36934 -0.0250254 0)
(7.37205 -0.0296734 0)
(7.3747 -0.0347284 0)
(7.37727 -0.0402034 0)
(7.37971 -0.0461095 0)
(7.38201 -0.0524548 0)
(7.38413 -0.0592433 0)
(7.38604 -0.0664734 0)
(7.3877 -0.0741363 0)
(7.3891 -0.0822123 0)
(7.39018 -0.0906643 0)
(7.39094 -0.0994211 0)
(7.333 0.000166233 0)
(7.33292 0.000466871 0)
(7.33282 0.000835509 0)
(7.33284 0.00127634 0)
(7.33308 0.0017437 0)
(7.33362 0.00216124 0)
(7.33447 0.00244852 0)
(7.33563 0.00254163 0)
(7.33706 0.00239487 0)
(7.33873 0.00197776 0)
(7.3406 0.00127186 0)
(7.34263 0.000267096 0)
(7.34479 -0.00104171 0)
(7.34706 -0.00265753 0)
(7.34942 -0.00458288 0)
(7.35183 -0.00682104 0)
(7.35429 -0.00937664 0)
(7.35678 -0.012256 0)
(7.35928 -0.015467 0)
(7.36178 -0.0190192 0)
(7.36425 -0.0229231 0)
(7.36669 -0.0271899 0)
(7.36906 -0.0318311 0)
(7.37135 -0.0368573 0)
(7.37354 -0.0422783 0)
(7.37559 -0.0481017 0)
(7.37749 -0.0543323 0)
(7.3792 -0.0609713 0)
(7.38069 -0.0680149 0)
(7.38194 -0.0754527 0)
(7.38292 -0.0832647 0)
(7.38361 -0.0914137 0)
(7.38398 -0.0998304 0)
(7.333 0.000173942 0)
(7.333 0.000484152 0)
(7.33302 0.000813869 0)
(7.33316 0.00116098 0)
(7.33349 0.00148633 0)
(7.33405 0.00173129 0)
(7.33487 0.00183438 0)
(7.33595 0.00174502 0)
(7.33726 0.00142576 0)
(7.33877 0.000850533 0)
(7.34047 2.55358e-06 0)
(7.34231 -0.00112841 0)
(7.34427 -0.00254856 0)
(7.34633 -0.00426213 0)
(7.34845 -0.00627277 0)
(7.35063 -0.00858453 0)
(7.35284 -0.0112023 0)
(7.35507 -0.0141323 0)
(7.35729 -0.0173816 0)
(7.3595 -0.0209585 0)
(7.36167 -0.0248717 0)
(7.36378 -0.0291305 0)
(7.36582 -0.0337436 0)
(7.36776 -0.0387192 0)
(7.36958 -0.0440642 0)
(7.37126 -0.0497834 0)
(7.37277 -0.0558792 0)
(7.37409 -0.0623506 0)
(7.37518 -0.0691924 0)
(7.37604 -0.0763935 0)
(7.37663 -0.0839338 0)
(7.37694 -0.0917768 0)
(7.37695 -0.0998552 0)
(7.33301 0.000164185 0)
(7.33305 0.000457754 0)
(7.33314 0.000739824 0)
(7.33333 0.000999528 0)
(7.33369 0.00120121 0)
(7.33425 0.00129778 0)
(7.33502 0.0012413 0)
(7.33601 0.000991722 0)
(7.3372 0.000518757 0)
(7.33857 -0.00019917 0)
(7.34009 -0.0011766 0)
(7.34174 -0.00242303 0)
(7.3435 -0.00394477 0)
(7.34534 -0.00574652 0)
(7.34724 -0.00783244 0)
(7.34917 -0.0102068 0)
(7.35113 -0.0128747 0)
(7.3531 -0.0158416 0)
(7.35504 -0.019114 0)
(7.35696 -0.0226988 0)
(7.35882 -0.0266034 0)
(7.36062 -0.0308349 0)
(7.36232 -0.0354 0)
(7.36392 -0.0403046 0)
(7.36538 -0.0455533 0)
(7.3667 -0.0511488 0)
(7.36783 -0.0570915 0)
(7.36877 -0.0633791 0)
(7.3695 -0.0700055 0)
(7.36998 -0.0769593 0)
(7.37021 -0.0842206 0)
(7.37016 -0.0917542 0)
(7.36983 -0.0994947 0)
(7.33301 0.000145835 0)
(7.33306 0.000408604 0)
(7.33318 0.000639522 0)
(7.33339 0.000818286 0)
(7.33374 0.000910914 0)
(7.33426 0.000878217 0)
(7.33497 0.000682201 0)
(7.33585 0.000291299 0)
(7.33691 -0.000318465 0)
(7.33812 -0.00116439 0)
(7.33947 -0.00225845 0)
(7.34093 -0.00360882 0)
(7.34247 -0.00522133 0)
(7.34409 -0.00710053 0)
(7.34576 -0.00925059 0)
(7.34745 -0.0116758 0)
(7.34916 -0.0143807 0)
(7.35085 -0.0173704 0)
(7.35252 -0.0206505 0)
(7.35414 -0.0242268 0)
(7.3557 -0.0281051 0)
(7.35718 -0.0322908 0)
(7.35856 -0.036789 0)
(7.35982 -0.0416036 0)
(7.36093 -0.0467373 0)
(7.36189 -0.0521913 0)
(7.36267 -0.0579645 0)
(7.36325 -0.0640538 0)
(7.36362 -0.0704525 0)
(7.36375 -0.0771492 0)
(7.36363 -0.0841247 0)
(7.36325 -0.0913449 0)
(7.36259 -0.098747 0)
(7.33301 0.000125414 0)
(7.33306 0.000353804 0)
(7.33317 0.000536014 0)
(7.33336 0.000642233 0)
(7.33366 0.000639085 0)
(7.33411 0.000493198 0)
(7.33472 0.000174386 0)
(7.33548 -0.000341709 0)
(7.33639 -0.00107335 0)
(7.33743 -0.00203369 0)
(7.33859 -0.00323196 0)
(7.33985 -0.00467466 0)
(7.34119 -0.00636666 0)
(7.34258 -0.00831201 0)
(7.34401 -0.0105145 0)
(7.34546 -0.012978 0)
(7.3469 -0.0157067 0)
(7.34832 -0.018705 0)
(7.34971 -0.0219776 0)
(7.35104 -0.0255291 0)
(7.3523 -0.0293641 0)
(7.35347 -0.0334867 0)
(7.35452 -0.0379002 0)
(7.35545 -0.0426071 0)
(7.35623 -0.0476088 0)
(7.35685 -0.052905 0)
(7.35729 -0.0584939 0)
(7.35753 -0.0643716 0)
(7.35755 -0.0705313 0)
(7.35735 -0.076962 0)
(7.3569 -0.083645 0)
(7.3562 -0.0905479 0)
(7.35524 -0.0976103 0)
(7.333 0.000108175 0)
(7.33304 0.000308302 0)
(7.33311 0.000450694 0)
(7.33324 0.000495876 0)
(7.33347 0.000410493 0)
(7.33381 0.000165996 0)
(7.33429 -0.000261064 0)
(7.3349 -0.000888451 0)
(7.33564 -0.00172894 0)
(7.3365 -0.00279152 0)
(7.33747 -0.00408248 0)
(7.33852 -0.0056064 0)
(7.33963 -0.00736688 0)
(7.34079 -0.00936713 0)
(7.34198 -0.0116103 0)
(7.34317 -0.0140998 0)
(7.34436 -0.0168392 0)
(7.34551 -0.0198321 0)
(7.34661 -0.0230823 0)
(7.34766 -0.0265936 0)
(7.34862 -0.0303693 0)
(7.34948 -0.0344122 0)
(7.35022 -0.0387246 0)
(7.35083 -0.0433077 0)
(7.35129 -0.0481617 0)
(7.35159 -0.0532856 0)
(7.3517 -0.0586768 0)
(7.35161 -0.064331 0)
(7.35131 -0.0702416 0)
(7.35079 -0.0763979 0)
(7.35003 -0.0827824 0)
(7.34904 -0.0893638 0)
(7.34779 -0.0960848 0)
(7.333 9.89358e-05 0)
(7.33301 0.000286572 0)
(7.33301 0.000405106 0)
(7.33305 0.000404753 0)
(7.33316 0.000252002 0)
(7.33336 -7.70352e-05 0)
(7.33367 -0.000599299 0)
(7.33411 -0.00132597 0)
(7.33466 -0.00226417 0)
(7.33532 -0.00341852 0)
(7.33608 -0.00479212 0)
(7.3369 -0.00638731 0)
(7.33779 -0.00820619 0)
(7.33871 -0.0102509 0)
(7.33965 -0.0125239 0)
(7.34059 -0.0150277 0)
(7.34151 -0.0177653 0)
(7.34239 -0.0207396 0)
(7.34322 -0.0239537 0)
(7.34398 -0.0274102 0)
(7.34465 -0.0311117 0)
(7.34522 -0.0350601 0)
(7.34566 -0.0392564 0)
(7.34597 -0.043701 0)
(7.34612 -0.0483934 0)
(7.3461 -0.0533317 0)
(7.34591 -0.0585132 0)
(7.34552 -0.0639335 0)
(7.34492 -0.0695858 0)
(7.34411 -0.0754603 0)
(7.34306 -0.0815404 0)
(7.34179 -0.0877966 0)
(7.34028 -0.0941742 0)
(7.333 0.000102868 0)
(7.33296 0.000304507 0)
(7.33287 0.00042329 0)
(7.33277 0.00039771 0)
(7.33272 0.000194419 0)
(7.33274 -0.000205175 0)
(7.33286 -0.000810946 0)
(7.33309 -0.0016269 0)
(7.33342 -0.00265397 0)
(7.33386 -0.00389192 0)
(7.33438 -0.00534029 0)
(7.33498 -0.00699884 0)
(7.33562 -0.0088679 0)
(7.3363 -0.0109483 0)
(7.33699 -0.0132416 0)
(7.33767 -0.0157496 0)
(7.33834 -0.0184744 0)
(7.33896 -0.0214184 0)
(7.33952 -0.0245839 0)
(7.34001 -0.0279729 0)
(7.3404 -0.0315869 0)
(7.34068 -0.0354272 0)
(7.34084 -0.0394941 0)
(7.34086 -0.0437873 0)
(7.34073 -0.0483056 0)
(7.34043 -0.053047 0)
(7.33995 -0.0580082 0)
(7.33928 -0.063185 0)
(7.33841 -0.0685711 0)
(7.33733 -0.0741571 0)
(7.33603 -0.0799276 0)
(7.3345 -0.0858549 0)
(7.33275 -0.0918874 0)
(7.333 0.000126443 0)
(7.33289 0.000381951 0)
(7.33266 0.000535066 0)
(7.33239 0.000510226 0)
(7.33212 0.00027539 0)
(7.33192 -0.000181121 0)
(7.3318 -0.000860675 0)
(7.33178 -0.00175881 0)
(7.33187 -0.00286924 0)
(7.33206 -0.00418609 0)
(7.33234 -0.00570474 0)
(7.33268 -0.00742197 0)
(7.33308 -0.00933596 0)
(7.33351 -0.0114461 0)
(7.33396 -0.0137528 0)
(7.3344 -0.016257 0)
(7.33481 -0.0189604 0)
(7.33518 -0.0218645 0)
(7.33549 -0.0249709 0)
(7.33572 -0.0282813 0)
(7.33586 -0.0317965 0)
(7.33588 -0.0355171 0)
(7.33578 -0.039443 0)
(7.33554 -0.0435735 0)
(7.33515 -0.047907 0)
(7.33459 -0.0524413 0)
(7.33386 -0.0571731 0)
(7.33294 -0.0620983 0)
(7.33182 -0.067211 0)
(7.3305 -0.0725026 0)
(7.32897 -0.0779588 0)
(7.32722 -0.083554 0)
(7.32525 -0.0892397 0)
(7.33299 0.000178876 0)
(7.33279 0.000546556 0)
(7.33238 0.000780951 0)
(7.33186 0.000789306 0)
(7.33132 0.000543612 0)
(7.33082 4.21559e-05 0)
(7.33041 -0.000705265 0)
(7.33011 -0.00168344 0)
(7.32992 -0.00287715 0)
(7.32984 -0.00427371 0)
(7.32985 -0.00586344 0)
(7.32995 -0.00763955 0)
(7.3301 -0.0095977 0)
(7.33029 -0.0117356 0)
(7.3305 -0.0140524 0)
(7.33071 -0.0165483 0)
(7.3309 -0.0192242 0)
(7.33104 -0.0220813 0)
(7.33112 -0.0251207 0)
(7.33112 -0.0283436 0)
(7.33102 -0.0317506 0)
(7.33082 -0.0353419 0)
(7.33049 -0.0391171 0)
(7.33002 -0.0430752 0)
(7.3294 -0.0472147 0)
(7.32862 -0.0515331 0)
(7.32767 -0.0560274 0)
(7.32653 -0.0606937 0)
(7.3252 -0.0655267 0)
(7.32368 -0.0705186 0)
(7.32195 -0.0756564 0)
(7.32001 -0.0809164 0)
(7.31787 -0.0862536 0)
(7.33298 0.000274697 0)
(7.33264 0.000840273 0)
(7.33196 0.00121995 0)
(7.3311 0.00130078 0)
(7.3302 0.00106468 0)
(7.32934 0.000525303 0)
(7.32857 -0.000291773 0)
(7.32793 -0.00135676 0)
(7.32743 -0.00264278 0)
(7.32707 -0.00412855 0)
(7.32682 -0.00579816 0)
(7.32666 -0.00764045 0)
(7.32658 -0.00964817 0)
(7.32656 -0.0118171 0)
(7.32655 -0.0141452 0)
(7.32656 -0.016632 0)
(7.32654 -0.0192779 0)
(7.32649 -0.0220838 0)
(7.32637 -0.0250506 0)
(7.32618 -0.0281794 0)
(7.3259 -0.0314707 0)
(7.3255 -0.0349247 0)
(7.32498 -0.0385409 0)
(7.32432 -0.0423184 0)
(7.32352 -0.0462557 0)
(7.32255 -0.0503505 0)
(7.32142 -0.0546001 0)
(7.3201 -0.0590011 0)
(7.3186 -0.0635485 0)
(7.31691 -0.0682356 0)
(7.31503 -0.0730508 0)
(7.31294 -0.0779728 0)
(7.31065 -0.0829599 0)
(7.33297 0.000438679 0)
(7.33241 0.00133074 0)
(7.33134 0.00194214 0)
(7.33 0.00214008 0)
(7.32861 0.00192868 0)
(7.32728 0.00134646 0)
(7.32609 0.000442845 0)
(7.32507 -0.000731396 0)
(7.32424 -0.00213361 0)
(7.32358 -0.00373136 0)
(7.32307 -0.00550101 0)
(7.32269 -0.00742628 0)
(7.32241 -0.00949673 0)
(7.3222 -0.0117063 0)
(7.32203 -0.014052 0)
(7.32187 -0.0165329 0)
(7.3217 -0.0191493 0)
(7.3215 -0.0219023 0)
(7.32124 -0.024793 0)
(7.32091 -0.0278228 0)
(7.32048 -0.0309923 0)
(7.31994 -0.0343021 0)
(7.31928 -0.0377519 0)
(7.31848 -0.0413413 0)
(7.31754 -0.0450688 0)
(7.31643 -0.0489327 0)
(7.31516 -0.0529307 0)
(7.31372 -0.0570597 0)
(7.31209 -0.0613158 0)
(7.31027 -0.0656929 0)
(7.30827 -0.0701812 0)
(7.30607 -0.0747617 0)
(7.30367 -0.0793966 0)
(7.33294 0.000715979 0)
(7.33203 0.00213168 0)
(7.33035 0.00308848 0)
(7.32833 0.00344706 0)
(7.32628 0.00325848 0)
(7.32437 0.00260285 0)
(7.32268 0.00156778 0)
(7.32125 0.000235606 0)
(7.32008 -0.00132933 0)
(7.31915 -0.00308046 0)
(7.31843 -0.00498504 0)
(7.31788 -0.00702131 0)
(7.31746 -0.00917601 0)
(7.31712 -0.0114419 0)
(7.31685 -0.0138157 0)
(7.3166 -0.016297 0)
(7.31634 -0.0188866 0)
(7.31605 -0.0215865 0)
(7.31571 -0.0243985 0)
(7.31529 -0.0273247 0)
(7.31478 -0.0303667 0)
(7.31416 -0.0335254 0)
(7.31342 -0.0368015 0)
(7.31253 -0.0401949 0)
(7.3115 -0.0437049 0)
(7.31031 -0.0473302 0)
(7.30896 -0.0510691 0)
(7.30743 -0.0549193 0)
(7.30572 -0.0588774 0)
(7.30383 -0.0629387 0)
(7.30175 -0.0670949 0)
(7.29948 -0.0713299 0)
(7.29702 -0.0756096 0)
(7.33288 0.00119615 0)
(7.33137 0.00344245 0)
(7.32873 0.00488144 0)
(7.32572 0.00542248 0)
(7.32281 0.00521292 0)
(7.32018 0.00440318 0)
(7.31794 0.00314391 0)
(7.31611 0.00156528 0)
(7.31466 -0.000239816 0)
(7.31353 -0.00220852 0)
(7.31268 -0.00429891 0)
(7.31205 -0.00648495 0)
(7.31158 -0.00875224 0)
(7.31122 -0.0110941 0)
(7.31093 -0.0135088 0)
(7.31067 -0.0159975 0)
(7.31041 -0.018563 0)
(7.31012 -0.0212087 0)
(7.30978 -0.0239384 0)
(7.30935 -0.0267555 0)
(7.30883 -0.0296627 0)
(7.3082 -0.0326623 0)
(7.30743 -0.0357559 0)
(7.30653 -0.0389442 0)
(7.30547 -0.0422274 0)
(7.30426 -0.045605 0)
(7.30288 -0.0490761 0)
(7.30132 -0.0526391 0)
(7.29958 -0.0562915 0)
(7.29766 -0.0600297 0)
(7.29556 -0.0638473 0)
(7.29326 -0.067731 0)
(7.29078 -0.0716513 0)
(7.33276 0.0020687 0)
(7.33013 0.00563122 0)
(7.32596 0.00768129 0)
(7.32156 0.0083474 0)
(7.31754 0.00797522 0)
(7.31412 0.00683675 0)
(7.31135 0.00518567 0)
(7.3092 0.00321932 0)
(7.30759 0.00106212 0)
(7.30641 -0.00120942 0)
(7.30558 -0.00354812 0)
(7.30501 -0.00592802 0)
(7.30463 -0.00833772 0)
(7.30438 -0.0107745 0)
(7.3042 -0.0132407 0)
(7.30406 -0.0157411 0)
(7.30391 -0.018282 0)
(7.30372 -0.0208697 0)
(7.30346 -0.0235106 0)
(7.30312 -0.02621 0)
(7.30268 -0.0289726 0)
(7.30211 -0.0318024 0)
(7.30141 -0.0347021 0)
(7.30055 -0.0376738 0)
(7.29954 -0.0407188 0)
(7.29837 -0.0438375 0)
(7.29702 -0.0470298 0)
(7.29549 -0.0502951 0)
(7.29378 -0.0536318 0)
(7.29189 -0.0570375 0)
(7.28981 -0.0605077 0)
(7.28754 -0.0640322 0)
(7.28509 -0.0675862 0)
(7.33248 0.0036982 0)
(7.32772 0.00935484 0)
(7.32109 0.0120803 0)
(7.31479 0.0126333 0)
(7.3095 0.0117552 0)
(7.30532 0.00994387 0)
(7.3022 0.00762132 0)
(7.29997 0.00506288 0)
(7.29844 0.00241004 0)
(7.29745 -0.0002617 0)
(7.29686 -0.00291148 0)
(7.29657 -0.00552295 0)
(7.29647 -0.00809522 0)
(7.2965 -0.010635 0)
(7.2966 -0.0131522 0)
(7.29672 -0.0156582 0)
(7.29682 -0.0181644 0)
(7.29686 -0.0206815 0)
(7.29682 -0.0232191 0)
(7.29668 -0.0257856 0)
(7.29642 -0.028388 0)
(7.29602 -0.0310321 0)
(7.29547 -0.0337225 0)
(7.29476 -0.0364626 0)
(7.29388 -0.0392549 0)
(7.29283 -0.0421009 0)
(7.29159 -0.0450016 0)
(7.29017 -0.0479571 0)
(7.28856 -0.0509669 0)
(7.28676 -0.0540298 0)
(7.28477 -0.0571429 0)
(7.28259 -0.0602995 0)
(7.28022 -0.0634799 0)
(7.33191 0.00670593 0)
(7.323 0.0154682 0)
(7.31243 0.0186698 0)
(7.30372 0.0186183 0)
(7.2972 0.0166508 0)
(7.29258 0.0136268 0)
(7.28954 0.0102346 0)
(7.28767 0.00681586 0)
(7.28664 0.00348509 0)
(7.2862 0.000289215 0)
(7.2862 -0.0027524 0)
(7.28648 -0.00564481 0)
(7.28695 -0.00840662 0)
(7.28752 -0.01106 0)
(7.28813 -0.0136269 0)
(7.28872 -0.016128 0)
(7.28927 -0.0185822 0)
(7.28973 -0.0210064 0)
(7.29008 -0.023415 0)
(7.2903 -0.0258202 0)
(7.29037 -0.0282325 0)
(7.29029 -0.0306602 0)
(7.29002 -0.0331101 0)
(7.28958 -0.0355876 0)
(7.28895 -0.0380968 0)
(7.28813 -0.0406406 0)
(7.28712 -0.043221 0)
(7.2859 -0.0458394 0)
(7.28449 -0.0484963 0)
(7.28287 -0.0511916 0)
(7.28106 -0.053924 0)
(7.27904 -0.0566901 0)
(7.27683 -0.0594759 0)
(7.33065 0.0136484 0)
(7.31327 0.0258156 0)
(7.29687 0.0275275 0)
(7.28567 0.0257216 0)
(7.2784 0.0220974 0)
(7.27405 0.0175943 0)
(7.27189 0.0130857 0)
(7.27113 0.00886852 0)
(7.27125 0.00494355 0)
(7.27197 0.00129199 0)
(7.2731 -0.00209987 0)
(7.27447 -0.00525775 0)
(7.27597 -0.00821602 0)
(7.27751 -0.0110073 0)
(7.27904 -0.0136601 0)
(7.28048 -0.0162003 0)
(7.28183 -0.0186509 0)
(7.28303 -0.0210323 0)
(7.28407 -0.0233618 0)
(7.28493 -0.0256543 0)
(7.2856 -0.0279225 0)
(7.28606 -0.0301768 0)
(7.28632 -0.0324259 0)
(7.28636 -0.0346771 0)
(7.28618 -0.0369358 0)
(7.28578 -0.0392067 0)
(7.28516 -0.0414932 0)
(7.28432 -0.0437977 0)
(7.28325 -0.0461221 0)
(7.28197 -0.0484675 0)
(7.28047 -0.0508341 0)
(7.27876 -0.0532212 0)
(7.27683 -0.0556209 0)
(7.32446 0.035134 0)
(7.28895 0.0480194 0)
(7.26621 0.0388814 0)
(7.25544 0.028156 0)
(7.24981 0.0184778 0)
(7.24757 0.0102526 0)
(7.24787 0.00371416 0)
(7.24956 -0.00147818 0)
(7.25198 -0.0057254 0)
(7.25489 -0.00925675 0)
(7.25812 -0.0122378 0)
(7.26148 -0.0148123 0)
(7.26487 -0.0170938 0)
(7.26818 -0.0191637 0)
(7.27137 -0.0210806 0)
(7.27438 -0.0228889 0)
(7.27718 -0.0246225 0)
(7.27974 -0.0263078 0)
(7.28205 -0.0279644 0)
(7.28409 -0.0296077 0)
(7.28585 -0.031249 0)
(7.28734 -0.0328973 0)
(7.28855 -0.0345591 0)
(7.28948 -0.0362391 0)
(7.29014 -0.0379409 0)
(7.29051 -0.0396666 0)
(7.29062 -0.0414177 0)
(7.29047 -0.043195 0)
(7.29005 -0.0449986 0)
(7.28938 -0.0468282 0)
(7.28846 -0.0486833 0)
(7.2873 -0.0505638 0)
(7.2859 -0.0524666 0)
(7.29541 0.0830644 0)
(7.21825 0.12777 0)
(7.18682 0.128503 0)
(7.18582 0.113214 0)
(7.19211 0.0931407 0)
(7.20066 0.0748522 0)
(7.21052 0.0595444 0)
(7.22059 0.0462945 0)
(7.23045 0.0346099 0)
(7.24003 0.0243864 0)
(7.24925 0.01554 0)
(7.25796 0.00791238 0)
(7.26611 0.00133167 0)
(7.27368 -0.00435576 0)
(7.28066 -0.00928669 0)
(7.28707 -0.0135841 0)
(7.29292 -0.0173559 0)
(7.29822 -0.0206937 0)
(7.30301 -0.0236749 0)
(7.30729 -0.0263638 0)
(7.3111 -0.0288143 0)
(7.31444 -0.031071 0)
(7.31735 -0.0331709 0)
(7.31985 -0.0351444 0)
(7.32194 -0.0370168 0)
(7.32365 -0.0388085 0)
(7.32499 -0.0405364 0)
(7.32599 -0.0422144 0)
(7.32665 -0.0438536 0)
(7.32699 -0.0454631 0)
(7.32703 -0.04705 0)
(7.32677 -0.0486202 0)
(7.32622 -0.0501799 0)
(7.32717 -0.156855 0)
(7.19685 -0.284262 0)
(7.13339 -0.280976 0)
(7.1127 -0.247679 0)
(7.1143 -0.215314 0)
(7.13464 -0.185285 0)
(7.16458 -0.158342 0)
(7.19678 -0.135599 0)
(7.22848 -0.117049 0)
(7.25852 -0.102015 0)
(7.28618 -0.0898344 0)
(7.31113 -0.0800075 0)
(7.33336 -0.0721259 0)
(7.35305 -0.0658317 0)
(7.37042 -0.0608234 0)
(7.38567 -0.0568579 0)
(7.39901 -0.0537413 0)
(7.41066 -0.0513176 0)
(7.42078 -0.049461 0)
(7.42955 -0.0480704 0)
(7.4371 -0.0470644 0)
(7.44356 -0.0463774 0)
(7.44905 -0.0459561 0)