/*--------------------------------*- C++ -*----------------------------------*\
| =========                 |                                                 |
| \\      /  F ield         | OpenFOAM: The Open Source CFD Toolbox           |
|  \\    /   O peration     | Version:  4.1                                   |
|   \\  /    A nd           | Web:      www.OpenFOAM.org                      |
|    \\/     M anipulation  |                                                 |
\*---------------------------------------------------------------------------*/
FoamFile
{
    version     2.0;
    format      ascii;
    class       volScalarField;
    location    "2000";
    object      p;
}
// * * * * * * * * * * * * * * * * * * * * * * * * * * * * * * * * * * * * * //

dimensions      [0 2 -2 0 0 0 0];

internalField   nonuniform List<scalar> 
6820
(
-8.24328
-8.50083
-8.59845
-8.61917
-8.65242
-8.69774
-8.73938
-8.77556
-8.8093
-8.84143
-8.87151
-8.89943
-8.92542
-8.94976
-8.97263
-8.99418
-9.01458
-9.03399
-9.05253
-9.07033
-9.08749
-9.10411
-9.12027
-9.13604
-9.15149
-9.16669
-9.1817
-9.19656
-9.21138
-9.22601
-9.24141
-9.25528
-9.28541
-8.35606
-8.52212
-8.60084
-8.62173
-8.64868
-8.68395
-8.71558
-8.74251
-8.76784
-8.79259
-8.81649
-8.83939
-8.86147
-8.88287
-8.90364
-8.92382
-8.94347
-8.96262
-8.98133
-8.99962
-9.01755
-9.03515
-9.05245
-9.06949
-9.08631
-9.10293
-9.11941
-9.13577
-9.15207
-9.1683
-9.18469
-9.20121
-9.21792
-8.41232
-8.51703
-8.59506
-8.62697
-8.65519
-8.6884
-8.71886
-8.7452
-8.76984
-8.79378
-8.8168
-8.83879
-8.85988
-8.88021
-8.89985
-8.91884
-8.93725
-8.95514
-8.97255
-8.98955
-9.00617
-9.02246
-9.03846
-9.05421
-9.06976
-9.08513
-9.10036
-9.1155
-9.1306
-9.14563
-9.16081
-9.1757
-9.19123
-8.4621
-8.5371
-8.60975
-8.64492
-8.6724
-8.70398
-8.73402
-8.76037
-8.78478
-8.80822
-8.83059
-8.85185
-8.87215
-8.89164
-8.91043
-8.92858
-8.94616
-8.96325
-8.97989
-8.99615
-9.01207
-9.0277
-9.04306
-9.0582
-9.07316
-9.08797
-9.10267
-9.11728
-9.13185
-9.1464
-9.16099
-9.17557
-9.19022
-8.50359
-8.55482
-8.61504
-8.6499
-8.67716
-8.70742
-8.73667
-8.7627
-8.78686
-8.81008
-8.83236
-8.85364
-8.87405
-8.89373
-8.91274
-8.93113
-8.94898
-8.96632
-8.98321
-8.9997
-9.01582
-9.03162
-9.04714
-9.0624
-9.07746
-9.09233
-9.10705
-9.12166
-9.1362
-9.15068
-9.16518
-9.17969
-9.19428
-8.53838
-8.57424
-8.62508
-8.66037
-8.68804
-8.7171
-8.74546
-8.77118
-8.79514
-8.81815
-8.84023
-8.86133
-8.88154
-8.901
-8.91977
-8.93791
-8.95548
-8.97254
-8.98914
-9.00534
-9.02117
-9.03668
-9.0519
-9.06688
-9.08164
-9.09623
-9.11066
-9.12498
-9.13922
-9.15341
-9.16759
-9.18182
-9.19615
-8.56823
-8.59379
-8.63568
-8.66886
-8.69534
-8.72245
-8.74935
-8.77429
-8.79767
-8.82014
-8.84177
-8.86253
-8.88249
-8.90176
-8.9204
-8.93847
-8.95601
-8.97307
-8.98971
-9.00595
-9.02184
-9.03741
-9.0527
-9.06773
-9.08254
-9.09716
-9.11161
-9.12592
-9.14014
-9.15427
-9.16837
-9.18246
-9.19661
-8.59416
-8.61274
-8.64716
-8.67801
-8.70374
-8.72963
-8.75554
-8.77995
-8.80297
-8.82512
-8.84649
-8.86706
-8.88687
-8.906
-8.92451
-8.94246
-8.95987
-8.97681
-8.99331
-9.0094
-9.02513
-9.04054
-9.05565
-9.07049
-9.0851
-9.0995
-9.11372
-9.12778
-9.14172
-9.15556
-9.16933
-9.18305
-9.19674
-8.61702
-8.63085
-8.65915
-8.68725
-8.71171
-8.73602
-8.76049
-8.78391
-8.80619
-8.8277
-8.84852
-8.86862
-8.88805
-8.90685
-8.92509
-8.9428
-8.96001
-8.97678
-8.99314
-9.00911
-9.02474
-9.04005
-9.05507
-9.06984
-9.08436
-9.09867
-9.11279
-9.12675
-9.14055
-9.15423
-9.1678
-9.18128
-9.19467
-8.63739
-8.64793
-8.67129
-8.6966
-8.71968
-8.74262
-8.76588
-8.78849
-8.8102
-8.83124
-8.85168
-8.87149
-8.89067
-8.90929
-8.92736
-8.94493
-8.96203
-8.97868
-8.99493
-9.0108
-9.02631
-9.0415
-9.05639
-9.07101
-9.08537
-9.0995
-9.11343
-9.12716
-9.14071
-9.1541
-9.16735
-9.18044
-9.19336
-8.65572
-8.66393
-8.68335
-8.70598
-8.72758
-8.74915
-8.77112
-8.79275
-8.81369
-8.83407
-8.85393
-8.87325
-8.89202
-8.91026
-8.92801
-8.94529
-8.96213
-8.97855
-8.99457
-9.01024
-9.02556
-9.04057
-9.05528
-9.06972
-9.08391
-9.09786
-9.11159
-9.12511
-9.13844
-9.15158
-9.16454
-9.17732
-9.1899
-8.67234
-8.67885
-8.69514
-8.71531
-8.73539
-8.75564
-8.77638
-8.79706
-8.81728
-8.83707
-8.85643
-8.87534
-8.89377
-8.91173
-8.92925
-8.94632
-8.96298
-8.97924
-8.99512
-9.01065
-9.02583
-9.0407
-9.05528
-9.06957
-9.08359
-9.09737
-9.1109
-9.1242
-9.13729
-9.15015
-9.1628
-9.17522
-9.18737
-8.68747
-8.69273
-8.70653
-8.72449
-8.74307
-8.76204
-8.78162
-8.80132
-8.82077
-8.8399
-8.85869
-8.8771
-8.8951
-8.91268
-8.92985
-8.94661
-8.96299
-8.97899
-8.99462
-9.00991
-9.02487
-9.03952
-9.05387
-9.06793
-9.08173
-9.09527
-9.10855
-9.1216
-9.1344
-9.14697
-9.15929
-9.17136
-9.18316
-8.7013
-8.70561
-8.71741
-8.73344
-8.75057
-8.76833
-8.78679
-8.80555
-8.82422
-8.8427
-8.86093
-8.87887
-8.89646
-8.91369
-8.93055
-8.94705
-8.96318
-8.97896
-8.9944
-9.0095
-9.02428
-9.03875
-9.05292
-9.0668
-9.08041
-9.09374
-9.10681
-9.11963
-9.13218
-9.14447
-9.15649
-9.16823
-9.17966
-8.71396
-8.71753
-8.72773
-8.74207
-8.75785
-8.77447
-8.79187
-8.8097
-8.82761
-8.84543
-8.86309
-8.88053
-8.89768
-8.91452
-8.93103
-8.9472
-8.96304
-8.97854
-8.99371
-9.00856
-9.02309
-9.03732
-9.05125
-9.06489
-9.07824
-9.09131
-9.10412
-9.11664
-9.1289
-9.14088
-9.15257
-9.16397
-9.17505
-8.72555
-8.72853
-8.73743
-8.75032
-8.76487
-8.7804
-8.79681
-8.81376
-8.83092
-8.84809
-8.86519
-8.88212
-8.89884
-8.91529
-8.93146
-8.94732
-8.96288
-8.97812
-8.99304
-9.00766
-9.02197
-9.03597
-9.04968
-9.0631
-9.07623
-9.08908
-9.10164
-9.11392
-9.12591
-9.13761
-9.14902
-9.16011
-9.17086
-8.73613
-8.73864
-8.74648
-8.75813
-8.77155
-8.78609
-8.80157
-8.81769
-8.83412
-8.85066
-8.8672
-8.88364
-8.89991
-8.91597
-8.93177
-8.94731
-8.96256
-8.97751
-8.99216
-9.00651
-9.02056
-9.03431
-9.04777
-9.06093
-9.0738
-9.08638
-9.09866
-9.11065
-9.12235
-9.13375
-9.14483
-9.1556
-9.16603
-8.74577
-8.74789
-8.75487
-8.76545
-8.77787
-8.79149
-8.80611
-8.82145
-8.83719
-8.85312
-8.86911
-8.88506
-8.9009
-8.91656
-8.93201
-8.94721
-8.96216
-8.97682
-8.99121
-9.0053
-9.0191
-9.0326
-9.04581
-9.05873
-9.07135
-9.08368
-9.09571
-9.10744
-9.11887
-9.12999
-9.14079
-9.15127
-9.1614
-8.75448
-8.7563
-8.76256
-8.77224
-8.78377
-8.79655
-8.81039
-8.82501
-8.84009
-8.85543
-8.8709
-8.88638
-8.90178
-8.91706
-8.93215
-8.94702
-8.96165
-8.97603
-8.99013
-9.00395
-9.01748
-9.03073
-9.04368
-9.05633
-9.06869
-9.08075
-9.09251
-9.10396
-9.1151
-9.12593
-9.13644
-9.14662
-9.15646
-8.76231
-8.76387
-8.76953
-8.77845
-8.7892
-8.80124
-8.81437
-8.82831
-8.84279
-8.85758
-8.87254
-8.88756
-8.90256
-8.91745
-8.93219
-8.94673
-8.96106
-8.97514
-8.98896
-9.00251
-9.01578
-9.02877
-9.04146
-9.05386
-9.06596
-9.07776
-9.08925
-9.10044
-9.11132
-9.12187
-9.13211
-9.14202
-9.15159
-8.76925
-8.7706
-8.77577
-8.78405
-8.79412
-8.8055
-8.81799
-8.83134
-8.84525
-8.85953
-8.87402
-8.88861
-8.9032
-8.91772
-8.93212
-8.94634
-8.96036
-8.97415
-8.98769
-9.00097
-9.01398
-9.0267
-9.03913
-9.05127
-9.06311
-9.07465
-9.08588
-9.0968
-9.1074
-9.11769
-9.12765
-9.13729
-9.14659
-8.77531
-8.77648
-8.78125
-8.78899
-8.7985
-8.8093
-8.82123
-8.83403
-8.84744
-8.86124
-8.8753
-8.88948
-8.9037
-8.91786
-8.93193
-8.94584
-8.95956
-8.97307
-8.98633
-8.99934
-9.01208
-9.02454
-9.03672
-9.0486
-9.06018
-9.07146
-9.08243
-9.09309
-9.10344
-9.11346
-9.12317
-9.13255
-9.1416
-8.78047
-8.7815
-8.78595
-8.79325
-8.80228
-8.8126
-8.82404
-8.83637
-8.84932
-8.8627
-8.87635
-8.89016
-8.90402
-8.91786
-8.9316
-8.94521
-8.95865
-8.97187
-8.98487
-8.99762
-9.0101
-9.0223
-9.03422
-9.04585
-9.05718
-9.06821
-9.07893
-9.08933
-9.09943
-9.1092
-9.11866
-9.12779
-9.1366
-8.78471
-8.78563
-8.78983
-8.79678
-8.80542
-8.81534
-8.82637
-8.83829
-8.85085
-8.86385
-8.87715
-8.89061
-8.90415
-8.91767
-8.93112
-8.94445
-8.9576
-8.97056
-8.98329
-8.99578
-9.00801
-9.01996
-9.03163
-9.043
-9.05408
-9.06486
-9.07533
-9.08548
-9.09533
-9.10486
-9.11407
-9.12296
-9.13153
-8.78798
-8.78883
-8.79284
-8.79953
-8.80788
-8.81747
-8.82817
-8.83976
-8.85199
-8.86467
-8.87765
-8.89081
-8.90405
-8.91729
-8.93046
-8.94352
-8.95641
-8.96912
-8.9816
-8.99384
-9.00582
-9.01753
-9.02896
-9.0401
-9.05094
-9.06148
-9.07171
-9.08163
-9.09125
-9.10055
-9.10953
-9.1182
-9.12655
-8.79024
-8.79104
-8.79492
-8.80144
-8.80957
-8.81893
-8.82938
-8.84071
-8.85267
-8.86508
-8.87779
-8.89069
-8.90367
-8.91665
-8.92957
-8.94238
-8.95502
-8.96748
-8.97972
-8.99171
-9.00345
-9.01492
-9.02611
-9.037
-9.0476
-9.0579
-9.06789
-9.07758
-9.08695
-9.09601
-9.10477
-9.11321
-9.12134
-8.79141
-8.79219
-8.796
-8.80242
-8.81044
-8.81965
-8.82993
-8.84107
-8.85283
-8.86503
-8.87753
-8.89021
-8.90297
-8.91573
-8.92842
-8.941
-8.95343
-8.96566
-8.97768
-8.98946
-9.00098
-9.01223
-9.0232
-9.03388
-9.04427
-9.05436
-9.06414
-9.07361
-9.08278
-9.09164
-9.10019
-9.10843
-9.11635
-8.79142
-8.79221
-8.79603
-8.80245
-8.81044
-8.8196
-8.8298
-8.84084
-8.85248
-8.86453
-8.87687
-8.88937
-8.90194
-8.9145
-8.92699
-8.93936
-8.95157
-8.96358
-8.97538
-8.98693
-8.99822
-9.00924
-9.01998
-9.03043
-9.04059
-9.05044
-9.05999
-9.06923
-9.07817
-9.08681
-9.09514
-9.10317
-9.1109
-8.79017
-8.79102
-8.79493
-8.80145
-8.80954
-8.81876
-8.82898
-8.84001
-8.8516
-8.86359
-8.87583
-8.88821
-8.90065
-8.91307
-8.92541
-8.93762
-8.94966
-8.9615
-8.97312
-8.9845
-8.99561
-9.00645
-9.01701
-9.02728
-9.03725
-9.04693
-9.05629
-9.06536
-9.07412
-9.08257
-9.09072
-9.09857
-9.1061
-8.78753
-8.78849
-8.79259
-8.79936
-8.80767
-8.81708
-8.82743
-8.83854
-8.85018
-8.86215
-8.87434
-8.88663
-8.89896
-8.91124
-8.92341
-8.93545
-8.9473
-8.95895
-8.97037
-8.98153
-8.99243
-9.00306
-9.0134
-9.02344
-9.03319
-9.04264
-9.05179
-9.06064
-9.06918
-9.07743
-9.08538
-9.09304
-9.10041
-8.78334
-8.78445
-8.78889
-8.79607
-8.80478
-8.81451
-8.82513
-8.83645
-8.84824
-8.86032
-8.87257
-8.88489
-8.8972
-8.90944
-8.92156
-8.93352
-8.94528
-8.95682
-8.96812
-8.97916
-8.98993
-9.00041
-9.01061
-9.02051
-9.03011
-9.03941
-9.04841
-9.0571
-9.06549
-9.07358
-9.08137
-9.08884
-9.096
-8.77734
-8.77871
-8.78367
-8.7915
-8.8008
-8.811
-8.822
-8.8336
-8.84558
-8.85776
-8.87005
-8.88235
-8.89461
-8.90675
-8.91875
-8.93057
-8.94217
-8.95354
-8.96465
-8.9755
-8.98608
-8.99637
-9.00636
-9.01606
-9.02546
-9.03456
-9.04336
-9.05186
-9.06005
-9.06796
-9.07557
-9.0829
-9.08996
-8.76922
-8.77097
-8.77674
-8.78552
-8.79567
-8.80659
-8.81821
-8.83036
-8.84278
-8.85531
-8.86785
-8.88034
-8.89271
-8.90493
-8.91695
-8.92876
-8.94033
-8.95164
-8.96268
-8.97344
-8.98391
-8.99409
-9.00397
-9.01354
-9.02281
-9.03178
-9.04044
-9.04879
-9.05684
-9.06459
-9.07204
-9.07917
-9.08599
-8.75852
-8.76087
-8.7679
-8.77805
-8.78923
-8.80087
-8.81304
-8.82562
-8.83835
-8.85106
-8.86371
-8.87625
-8.88863
-8.90081
-8.91277
-8.92448
-8.93593
-8.94712
-8.95802
-8.96863
-8.97894
-8.98896
-8.99867
-9.00808
-9.01718
-9.02598
-9.03448
-9.04267
-9.05057
-9.05818
-9.0655
-9.07255
-9.07934
-8.74451
-8.74783
-8.7569
-8.76924
-8.78217
-8.79522
-8.80861
-8.82216
-8.83558
-8.84879
-8.86179
-8.87457
-8.8871
-8.89935
-8.91133
-8.92303
-8.93444
-8.94555
-8.95636
-8.96687
-8.97707
-8.98696
-8.99653
-9.0058
-9.01476
-9.0234
-9.03174
-9.03977
-9.0475
-9.05493
-9.06205
-9.06886
-9.07536
-8.72612
-8.73121
-8.7433
-8.7578
-8.77175
-8.78562
-8.7999
-8.81421
-8.82817
-8.84176
-8.85505
-8.86804
-8.88069
-8.89301
-8.905
-8.91667
-8.92803
-8.93906
-8.94977
-8.96017
-8.97026
-8.98003
-8.98949
-8.99864
-9.00748
-9.01602
-9.02425
-9.03218
-9.03982
-9.04716
-9.05422
-9.06101
-9.06754
-8.70119
-8.71034
-8.72974
-8.74948
-8.76591
-8.7813
-8.79682
-8.81194
-8.82632
-8.84011
-8.85349
-8.86649
-8.8791
-8.89133
-8.90321
-8.91474
-8.92594
-8.9368
-8.94734
-8.95755
-8.96744
-8.977
-8.98625
-8.99518
-9.0038
-9.01211
-9.02011
-9.02781
-9.03522
-9.04233
-9.04914
-9.05567
-9.06189
-8.66625
-8.67991
-8.70554
-8.7288
-8.74775
-8.76577
-8.78341
-8.79986
-8.81507
-8.82945
-8.84321
-8.85641
-8.86909
-8.88132
-8.89314
-8.90459
-8.91569
-8.92645
-8.93689
-8.94701
-8.95682
-8.96632
-8.97552
-8.9844
-8.99299
-9.00128
-9.00927
-9.01697
-9.02437
-9.03147
-9.03827
-9.04476
-9.05092
-8.61886
-8.66651
-8.7059
-8.72617
-8.74244
-8.76079
-8.77875
-8.7947
-8.80925
-8.82318
-8.83661
-8.8495
-8.86187
-8.8738
-8.88535
-8.89654
-8.90738
-8.91788
-8.92807
-8.93795
-8.94753
-8.9568
-8.96578
-8.97447
-8.98288
-8.991
-8.99884
-9.00642
-9.01374
-9.02081
-9.02768
-9.03437
-9.04093
-8.48453
-8.60671
-8.68136
-8.70559
-8.72191
-8.74293
-8.76341
-8.78061
-8.79594
-8.81075
-8.82527
-8.83939
-8.85311
-8.86652
-8.87966
-8.89254
-8.90514
-8.91745
-8.92947
-8.94119
-8.95259
-8.96368
-8.97444
-8.98487
-8.99497
-9.00472
-9.01414
-9.02321
-9.03193
-9.0403
-9.04833
-9.05598
-9.06337
-9.33287
-9.48882
-9.70598
-9.81022
-9.92117
-10.0278
-10.1097
-10.1726
-10.2214
-10.2571
-10.2818
-10.2968
-10.3037
-10.3043
-10.3006
-10.2951
-10.289
-10.2803
-10.2757
-10.2792
-10.2916
-10.3123
-10.34
-10.3728
-10.4091
-10.447
-10.4854
-10.523
-10.5592
-10.5931
-10.6238
-10.6506
-10.6727
-10.6895
-10.7006
-10.7058
-10.7047
-10.6973
-10.6834
-10.6628
-10.6352
-10.6005
-10.5585
-10.509
-10.4519
-10.387
-10.314
-10.2329
-10.1435
-10.0455
-9.93863
-9.8228
-9.69774
-9.56327
-9.41924
-9.26556
-9.10214
-8.929
-8.74617
-8.55379
-8.35203
-8.14116
-7.92151
-7.6935
-7.45765
-7.21454
-6.96484
-6.70926
-6.4486
-6.18364
-5.91522
-5.64421
-5.37149
-5.09801
-4.82475
-4.55276
-4.28313
-4.01702
-3.75567
-3.50023
-3.25174
-3.01084
-2.77793
-2.55333
-2.33737
-2.13031
-1.93235
-1.74364
-1.56417
-1.3939
-1.23249
-1.07982
-0.93479
-0.797856
-0.665117
-0.541374
-0.410663
-0.3022
-0.144506
-0.0949712
-9.24823
-9.3008
-9.39284
-9.43887
-9.49247
-9.56048
-9.62714
-9.69042
-9.75056
-9.80536
-9.85338
-9.89415
-9.92776
-9.95472
-9.97642
-9.99527
-10.0139
-10.0289
-10.0448
-10.0656
-10.093
-10.1266
-10.1656
-10.2084
-10.2535
-10.2993
-10.3446
-10.3883
-10.4298
-10.4681
-10.5026
-10.5326
-10.5574
-10.5765
-10.5894
-10.5961
-10.5962
-10.5897
-10.5764
-10.5562
-10.529
-10.4945
-10.4526
-10.4033
-10.3462
-10.2813
-10.2085
-10.1275
-10.0382
-9.94036
-9.83383
-9.71838
-9.59382
-9.45997
-9.3167
-9.16393
-9.00159
-8.82968
-8.64828
-8.4575
-8.25754
-8.04865
-7.83117
-7.60553
-7.37221
-7.13182
-6.88499
-6.63243
-6.3749
-6.1132
-5.84812
-5.58053
-5.31128
-5.0413
-4.77156
-4.50307
-4.23688
-3.97414
-3.71602
-3.46362
-3.21794
-2.97961
-2.74906
-2.52661
-2.31258
-2.10726
-1.91083
-1.72343
-1.54507
-1.37571
-1.21504
-1.06294
-0.918334
-0.781727
-0.649252
-0.525876
-0.395744
-0.288578
-0.133528
-0.0881339
-9.20965
-9.231
-9.27545
-9.30293
-9.3264
-9.35927
-9.39478
-9.42952
-9.46428
-9.49864
-9.53176
-9.56315
-9.5925
-9.6199
-9.64612
-9.67281
-9.70144
-9.73127
-9.76255
-9.7979
-9.8387
-9.88486
-9.93546
-9.98914
-10.0443
-10.0996
-10.1535
-10.2053
-10.2539
-10.2988
-10.3391
-10.3742
-10.4036
-10.4267
-10.4432
-10.453
-10.4559
-10.4518
-10.4406
-10.4223
-10.3967
-10.3636
-10.3231
-10.2749
-10.219
-10.1553
-10.0835
-10.0036
-9.91543
-9.81877
-9.71347
-9.59933
-9.47617
-9.34385
-9.20223
-9.05124
-8.89082
-8.721
-8.54183
-8.35345
-8.15605
-7.94988
-7.73529
-7.5127
-7.28258
-7.04552
-6.80215
-6.55316
-6.29929
-6.04131
-5.78001
-5.51623
-5.2508
-4.98464
-4.71869
-4.45392
-4.19139
-3.93217
-3.67739
-3.42813
-3.18532
-2.9496
-2.72141
-2.5011
-2.28899
-2.08535
-1.89038
-1.70423
-1.52689
-1.35836
-1.19833
-1.04671
-0.902432
-0.76606
-0.633792
-0.510702
-0.381201
-0.275188
-0.123176
-0.081162
-9.20753
-9.23056
-9.26683
-9.29494
-9.31392
-9.33462
-9.35515
-9.37246
-9.3876
-9.40153
-9.41432
-9.42614
-9.43742
-9.44881
-9.46135
-9.47653
-9.49582
-9.51984
-9.5478
-9.58115
-9.62098
-9.66712
-9.71859
-9.77401
-9.83178
-9.8903
-9.94818
-10.0042
-10.0574
-10.1068
-10.1517
-10.1913
-10.225
-10.2523
-10.2727
-10.2862
-10.2926
-10.2916
-10.2834
-10.2678
-10.2448
-10.2141
-10.1759
-10.1299
-10.0761
-10.0143
-9.94455
-9.86664
-9.78044
-9.6858
-9.58255
-9.47052
-9.34956
-9.21951
-9.08028
-8.93179
-8.77399
-8.60692
-8.43064
-8.24529
-8.05105
-7.8482
-7.63706
-7.41804
-7.19163
-6.95838
-6.7189
-6.47389
-6.22404
-5.97012
-5.7129
-5.45318
-5.19181
-4.92966
-4.66764
-4.40673
-4.14793
-3.89229
-3.64089
-3.39477
-3.15482
-2.92169
-2.69583
-2.47759
-2.26731
-2.06526
-1.87165
-1.68662
-1.5102
-1.34237
-1.18285
-1.03158
-0.887522
-0.751265
-0.619126
-0.496209
-0.367372
-0.262311
-0.113679
-0.0742024
-9.21188
-9.23392
-9.26165
-9.28526
-9.30214
-9.31907
-9.3362
-9.35097
-9.36334
-9.37382
-9.38232
-9.38884
-9.39378
-9.39786
-9.40214
-9.40809
-9.41728
-9.43067
-9.44855
-9.47197
-9.50186
-9.53826
-9.58049
-9.62747
-9.67784
-9.73018
-9.78316
-9.83553
-9.88619
-9.93414
-9.97843
-10.0182
-10.0527
-10.0812
-10.1034
-10.1188
-10.1273
-10.1287
-10.1227
-10.1095
-10.0887
-10.0604
-10.0244
-9.98062
-9.92904
-9.86953
-9.802
-9.72634
-9.64241
-9.55008
-9.4492
-9.33961
-9.22116
-9.09374
-8.95723
-8.81158
-8.65676
-8.49279
-8.31974
-8.13775
-7.94702
-7.74779
-7.5404
-7.32525
-7.1028
-6.87359
-6.63823
-6.39738
-6.15172
-5.902
-5.64896
-5.39341
-5.13615
-4.87804
-4.61999
-4.36293
-4.10784
-3.85574
-3.60766
-3.36461
-3.12743
-2.89679
-2.67314
-2.45686
-2.24828
-2.04769
-1.85529
-1.67124
-1.49557
-1.32829
-1.16913
-1.01805
-0.874065
-0.737782
-0.605665
-0.482789
-0.354603
-0.250286
-0.105225
-0.0675156
-9.21326
-9.23382
-9.25742
-9.27981
-9.29804
-9.31514
-9.3317
-9.34597
-9.35752
-9.36675
-9.37374
-9.37861
-9.38176
-9.38386
-9.38585
-9.38891
-9.39433
-9.40304
-9.41573
-9.43301
-9.45569
-9.48393
-9.51732
-9.55505
-9.5961
-9.63934
-9.68365
-9.72798
-9.77136
-9.81284
-9.85153
-9.88659
-9.91725
-9.94285
-9.96283
-9.97677
-9.98435
-9.98529
-9.9794
-9.96647
-9.94636
-9.91891
-9.88399
-9.84149
-9.7913
-9.73332
-9.66742
-9.5935
-9.51143
-9.42107
-9.32227
-9.21489
-9.09878
-8.97383
-8.83994
-8.69705
-8.54514
-8.38423
-8.21438
-8.03574
-7.84848
-7.65287
-7.44922
-7.23791
-7.0194
-6.79421
-6.56293
-6.32619
-6.08467
-5.83908
-5.59016
-5.33868
-5.08544
-4.83128
-4.57708
-4.32374
-4.07223
-3.82353
-3.57863
-3.33849
-3.10395
-2.87564
-2.65405
-2.43956
-2.23252
-2.0332
-1.84183
-1.65858
-1.48349
-1.31658
-1.15761
-1.00655
-0.862479
-0.72601
-0.593788
-0.470804
-0.34322
-0.239416
-0.0980016
-0.0613114
-9.2133
-9.23305
-9.25436
-9.27499
-9.29262
-9.30853
-9.32353
-9.33672
-9.34766
-9.35659
-9.36364
-9.36889
-9.37266
-9.37548
-9.37811
-9.38152
-9.38672
-9.39458
-9.40577
-9.42077
-9.44022
-9.46428
-9.49262
-9.5246
-9.55934
-9.59591
-9.63335
-9.67074
-9.70723
-9.742
-9.77427
-9.8033
-9.8284
-9.84895
-9.86446
-9.87449
-9.8787
-9.87681
-9.86857
-9.85376
-9.83218
-9.80366
-9.76803
-9.72513
-9.67484
-9.61702
-9.55153
-9.47824
-9.39702
-9.30771
-9.21016
-9.10423
-8.98977
-8.86666
-8.73481
-8.59415
-8.44465
-8.28634
-8.11928
-7.94359
-7.75945
-7.56711
-7.36686
-7.15909
-6.94423
-6.72278
-6.4953
-6.26241
-6.02477
-5.78307
-5.53802
-5.29038
-5.04094
-4.7905
-4.53993
-4.29011
-4.04196
-3.79645
-3.55452
-3.31709
-3.08498
-2.85881
-2.63909
-2.4262
-2.22049
-2.02226
-1.83174
-1.64909
-1.47439
-1.30765
-1.14868
-0.997461
-0.853134
-0.716309
-0.583842
-0.460586
-0.333521
-0.22999
-0.0921615
-0.0558065
-9.2127
-9.23141
-9.25093
-9.26989
-9.28696
-9.30252
-9.31711
-9.33022
-9.34139
-9.35068
-9.35819
-9.36402
-9.36846
-9.37199
-9.37529
-9.3792
-9.38457
-9.39217
-9.40262
-9.41642
-9.43402
-9.45554
-9.48072
-9.50901
-9.53966
-9.57182
-9.60465
-9.6373
-9.66897
-9.69891
-9.72637
-9.75068
-9.77121
-9.7874
-9.79878
-9.80494
-9.80557
-9.80039
-9.78916
-9.77167
-9.74771
-9.7171
-9.67969
-9.6353
-9.5838
-9.52503
-9.45887
-9.38516
-9.30376
-9.21451
-9.11727
-9.01188
-8.8982
-8.77611
-8.64551
-8.50633
-8.35854
-8.20216
-8.03724
-7.8639
-7.6823
-7.49268
-7.29533
-7.0906
-6.87891
-6.66075
-6.43665
-6.20722
-5.97308
-5.7349
-5.49338
-5.24926
-5.0033
-4.75629
-4.50906
-4.26248
-4.01744
-3.77486
-3.53567
-3.30073
-3.07083
-2.8466
-2.62854
-2.41705
-2.21248
-2.01515
-1.82527
-1.64304
-1.46853
-1.30178
-1.14263
-0.991063
-0.846305
-0.708954
-0.576095
-0.452401
-0.325744
-0.222239
-0.0878169
-0.0511744
-9.21024
-9.22815
-9.24645
-9.26427
-9.28077
-9.29591
-9.30993
-9.32256
-9.33349
-9.34274
-9.35041
-9.35666
-9.36176
-9.36614
-9.37037
-9.37515
-9.38118
-9.38913
-9.39954
-9.41286
-9.42941
-9.44931
-9.47235
-9.49803
-9.52573
-9.55469
-9.58415
-9.61333
-9.64148
-9.66788
-9.69185
-9.71273
-9.72992
-9.7429
-9.7512
-9.75444
-9.75229
-9.74448
-9.73077
-9.71095
-9.68483
-9.65224
-9.613
-9.56697
-9.514
-9.45396
-9.38671
-9.31211
-9.23001
-9.14027
-9.04274
-8.93728
-8.82376
-8.70204
-8.57205
-8.43372
-8.287
-8.13193
-7.96854
-7.79695
-7.61731
-7.42985
-7.23485
-7.03264
-6.82363
-6.60828
-6.38711
-6.1607
-5.92965
-5.6946
-5.45626
-5.21531
-4.9725
-4.72862
-4.48445
-4.24083
-3.99864
-3.75876
-3.52206
-3.28938
-3.06149
-2.83901
-2.62242
-2.41215
-2.20855
-2.01192
-1.82252
-1.64052
-1.46603
-1.2991
-1.13959
-0.987512
-0.842161
-0.704124
-0.570729
-0.446436
-0.320054
-0.216333
-0.0850266
-0.047546
-9.20818
-9.22524
-9.24245
-9.25925
-9.27499
-9.28959
-9.30313
-9.31548
-9.32641
-9.33589
-9.34401
-9.3509
-9.35678
-9.36203
-9.36715
-9.37269
-9.37929
-9.38751
-9.39783
-9.41065
-9.42623
-9.44469
-9.46583
-9.48924
-9.51437
-9.54056
-9.56711
-9.59331
-9.61847
-9.64191
-9.66298
-9.68105
-9.69555
-9.70597
-9.71185
-9.71281
-9.70853
-9.69872
-9.68313
-9.66155
-9.63379
-9.59967
-9.55902
-9.51169
-9.45754
-9.39644
-9.32824
-9.25281
-9.17003
-9.07974
-8.98182
-8.87613
-8.76255
-8.64096
-8.51129
-8.37347
-8.22749
-8.07334
-7.9111
-7.74086
-7.56279
-7.37709
-7.18403
-6.98394
-6.77722
-6.5643
-6.34569
-6.12194
-5.89364
-5.66142
-5.42593
-5.18786
-4.94794
-4.70691
-4.46556
-4.22468
-3.98512
-3.74772
-3.51332
-3.28273
-3.05668
-2.83577
-2.62051
-2.4113
-2.20851
-2.01245
-1.82337
-1.64146
-1.46684
-1.29958
-1.13957
-0.98683
-0.840745
-0.701879
-0.567816
-0.442775
-0.316523
-0.212352
-0.0837845
-0.0449876
-9.20435
-9.22073
-9.23711
-9.25311
-9.26825
-9.28239
-9.2956
-9.30771
-9.31859
-9.32818
-9.33656
-9.34385
-9.35029
-9.3562
-9.362
-9.36819
-9.37529
-9.3838
-9.39412
-9.40659
-9.42146
-9.43875
-9.45835
-9.47987
-9.50283
-9.52664
-9.5507
-9.57434
-9.59692
-9.61779
-9.63635
-9.652
-9.6642
-9.67244
-9.6763
-9.67537
-9.66934
-9.6579
-9.64082
-9.61787
-9.58883
-9.55354
-9.51183
-9.46353
-9.4085
-9.34661
-9.27771
-9.20169
-9.1184
-9.02772
-8.92952
-8.82368
-8.71008
-8.58862
-8.45924
-8.32188
-8.17652
-8.02318
-7.86193
-7.69287
-7.51616
-7.33201
-7.14067
-6.94248
-6.73781
-6.52709
-6.3108
-6.08949
-5.86371
-5.63408
-5.40124
-5.16586
-4.92863
-4.69028
-4.45156
-4.21325
-3.97616
-3.74109
-3.50886
-3.28022
-3.05588
-2.83644
-2.62239
-2.41413
-2.21205
-2.01644
-1.82757
-1.64564
-1.47077
-1.30307
-1.14243
-0.988919
-0.841983
-0.702171
-0.567325
-0.441405
-0.315132
-0.210292
-0.0840206
-0.0434991
-9.20118
-9.21688
-9.2325
-9.24775
-9.26232
-9.27601
-9.28882
-9.30067
-9.31145
-9.32111
-9.32974
-9.33744
-9.34442
-9.35095
-9.3574
-9.36418
-9.37174
-9.38047
-9.39075
-9.40286
-9.417
-9.43319
-9.45131
-9.47105
-9.49196
-9.51355
-9.53525
-9.55647
-9.57661
-9.59506
-9.61126
-9.62464
-9.63468
-9.6409
-9.64287
-9.64021
-9.63257
-9.61968
-9.60127
-9.57711
-9.54699
-9.51072
-9.46813
-9.41906
-9.36335
-9.30087
-9.23148
-9.15504
-9.07144
-8.98054
-8.88222
-8.77636
-8.66286
-8.54164
-8.41262
-8.27577
-8.13107
-7.97856
-7.81829
-7.65037
-7.47498
-7.2923
-7.10261
-6.90622
-6.7035
-6.49486
-6.28079
-6.06178
-5.83841
-5.61126
-5.38095
-5.14813
-4.91348
-4.67769
-4.44151
-4.20567
-3.97095
-3.73812
-3.50796
-3.2812
-3.05851
-2.84046
-2.62754
-2.42017
-2.21872
-2.0235
-1.83476
-1.65273
-1.47754
-1.3093
-1.14795
-0.993578
-0.845702
-0.704854
-0.569128
-0.442217
-0.315773
-0.210061
-0.0856047
-0.0430125
-9.1966
-9.21173
-9.22672
-9.24136
-9.25542
-9.26873
-9.28121
-9.29283
-9.30355
-9.3133
-9.32212
-9.33015
-9.33755
-9.34457
-9.3515
-9.35872
-9.36658
-9.37545
-9.38562
-9.39735
-9.41078
-9.42596
-9.44275
-9.46088
-9.47994
-9.4995
-9.51906
-9.53807
-9.55598
-9.57223
-9.58627
-9.59757
-9.60563
-9.61
-9.61025
-9.606
-9.59692
-9.58271
-9.56311
-9.53788
-9.5068
-9.46969
-9.42636
-9.37664
-9.32038
-9.25744
-9.18768
-9.11097
-9.02718
-8.93617
-8.83785
-8.73209
-8.61881
-8.49791
-8.36935
-8.23308
-8.08911
-7.93747
-7.77822
-7.61148
-7.43741
-7.25622
-7.06817
-6.87356
-6.67275
-6.46617
-6.25426
-6.03752
-5.81651
-5.59178
-5.36395
-5.13364
-4.90152
-4.66825
-4.43455
-4.20113
-3.96873
-3.73811
-3.50998
-3.28505
-3.06395
-2.84727
-2.63546
-2.42894
-2.22808
-2.0332
-1.84455
-1.66236
-1.48679
-1.31796
-1.15585
-1.00055
-0.851671
-0.709715
-0.573031
-0.445036
-0.318273
-0.211503
-0.0883627
-0.0434056
-9.19258
-9.20715
-9.22156
-9.23564
-9.2492
-9.26211
-9.27426
-9.28563
-9.29623
-9.30601
-9.31499
-9.32327
-9.33101
-9.33841
-9.34575
-9.35332
-9.36142
-9.37036
-9.3804
-9.39173
-9.40447
-9.41867
-9.43419
-9.45077
-9.46807
-9.4857
-9.50321
-9.52011
-9.53587
-9.54998
-9.56193
-9.57122
-9.57736
-9.57992
-9.57848
-9.57268
-9.56219
-9.5467
-9.52594
-9.49968
-9.46769
-9.42977
-9.38575
-9.33544
-9.2787
-9.21537
-9.14531
-9.06839
-8.98448
-8.89346
-8.79521
-8.68964
-8.57665
-8.45616
-8.32813
-8.19252
-8.04934
-7.89863
-7.74045
-7.57494
-7.40224
-7.22256
-7.03616
-6.84335
-6.64447
-6.43994
-6.23019
-6.01572
-5.79706
-5.57475
-5.34938
-5.12158
-4.89196
-4.6612
-4.42996
-4.19895
-3.96887
-3.74042
-3.51431
-3.29121
-3.07171
-2.85638
-2.64567
-2.43999
-2.23971
-2.04514
-1.85656
-1.67419
-1.49821
-1.32876
-1.16584
-1.00957
-0.85963
-0.716516
-0.578807
-0.449649
-0.322419
-0.214418
-0.0920978
-0.0445217
-9.18761
-9.20169
-9.21558
-9.22916
-9.24228
-9.25483
-9.26671
-9.27788
-9.28834
-9.2981
-9.3072
-9.31568
-9.32368
-9.33139
-9.33903
-9.34684
-9.35508
-9.364
-9.37383
-9.38472
-9.39676
-9.40999
-9.42428
-9.4394
-9.45505
-9.47087
-9.48646
-9.50136
-9.51511
-9.52722
-9.5372
-9.54458
-9.54891
-9.54976
-9.54674
-9.53948
-9.52765
-9.51095
-9.48911
-9.46189
-9.42905
-9.3904
-9.34575
-9.29491
-9.23774
-9.17408
-9.10378
-9.02671
-8.94275
-8.85177
-8.75366
-8.64833
-8.53569
-8.41567
-8.28822
-8.15332
-8.01099
-7.86125
-7.7042
-7.53994
-7.36865
-7.19052
-7.00581
-6.81482
-6.61789
-6.41543
-6.20786
-5.99567
-5.77936
-5.55948
-5.33659
-5.1113
-4.88421
-4.65596
-4.4272
-4.1986
-3.97084
-3.74458
-3.5205
-3.29923
-3.08134
-2.86737
-2.65777
-2.45294
-2.25324
-2.05899
-1.87047
-1.68791
-1.51149
-1.34139
-1.17763
-1.02036
-0.869331
-0.725016
-0.586224
-0.455832
-0.327987
-0.218595
-0.0966116
-0.0461934
-9.18298
-9.19659
-9.21002
-9.22315
-9.23586
-9.24806
-9.25968
-9.27066
-9.28098
-9.29068
-9.29981
-9.30842
-9.3166
-9.32452
-9.33235
-9.34031
-9.34861
-9.35745
-9.36702
-9.37744
-9.3888
-9.40107
-9.41417
-9.42789
-9.44196
-9.45605
-9.4698
-9.4828
-9.4946
-9.50477
-9.51283
-9.51836
-9.52092
-9.52009
-9.5155
-9.50679
-9.49363
-9.47573
-9.4528
-9.42461
-9.39093
-9.35155
-9.30627
-9.25491
-9.19732
-9.13334
-9.06282
-8.98562
-8.90163
-8.81072
-8.71279
-8.60774
-8.49549
-8.37597
-8.24915
-8.115
-7.97355
-7.82483
-7.66893
-7.50597
-7.33611
-7.15956
-6.97656
-6.78742
-6.59247
-6.3921
-6.18673
-5.97684
-5.76291
-5.54547
-5.32509
-5.10232
-4.87778
-4.65206
-4.4258
-4.19964
-3.97421
-3.75017
-3.52814
-3.30872
-3.09247
-2.87989
-2.67142
-2.46746
-2.26836
-2.07444
-1.88597
-1.70322
-1.52637
-1.3556
-1.19099
-1.03269
-0.880546
-0.734998
-0.595065
-0.463376
-0.334765
-0.223833
-0.101724
-0.0482683
-9.17781
-9.19099
-9.20397
-9.21668
-9.22901
-9.24088
-9.25224
-9.26303
-9.27324
-9.28287
-9.29197
-9.30063
-9.30893
-9.31698
-9.32494
-9.33297
-9.34124
-9.34993
-9.35919
-9.36911
-9.37975
-9.39107
-9.40301
-9.41538
-9.42794
-9.44039
-9.45239
-9.46358
-9.47353
-9.48184
-9.48808
-9.49184
-9.49269
-9.49025
-9.48416
-9.47405
-9.45961
-9.44054
-9.41657
-9.38746
-9.35296
-9.31288
-9.267
-9.21516
-9.15718
-9.0929
-9.02219
-8.9449
-8.86091
-8.7701
-8.67237
-8.56763
-8.45579
-8.33681
-8.21064
-8.07727
-7.93672
-7.78905
-7.63433
-7.47268
-7.30428
-7.12932
-6.94806
-6.76078
-6.56782
-6.36956
-6.16642
-5.95884
-5.74731
-5.53234
-5.31448
-5.09427
-4.87229
-4.64913
-4.4254
-4.2017
-3.97865
-3.75685
-3.5369
-3.31936
-3.10478
-2.89362
-2.68632
-2.48325
-2.28478
-2.09121
-1.90282
-1.71988
-1.5426
-1.37117
-1.2057
-1.04637
-0.893076
-0.746268
-0.605143
-0.4721
-0.342572
-0.229962
-0.107292
-0.0506335
-9.17281
-9.18558
-9.19817
-9.21049
-9.22247
-9.23404
-9.24514
-9.25574
-9.26582
-9.27538
-9.28444
-9.29309
-9.30142
-9.30953
-9.31753
-9.32555
-9.33372
-9.34219
-9.35108
-9.36046
-9.37036
-9.38075
-9.39157
-9.40266
-9.41378
-9.42466
-9.435
-9.44444
-9.45262
-9.45915
-9.46362
-9.46565
-9.46484
-9.46082
-9.45323
-9.44174
-9.42602
-9.40579
-9.38077
-9.35072
-9.3154
-9.2746
-9.22812
-9.17578
-9.1174
-9.05282
-8.98191
-8.90453
-8.82054
-8.72983
-8.63231
-8.52788
-8.41647
-8.29803
-8.17253
-8.03995
-7.90032
-7.7537
-7.60017
-7.43986
-7.27292
-7.09957
-6.92005
-6.73465
-6.54369
-6.34756
-6.14664
-5.94139
-5.73228
-5.5198
-5.30447
-5.08684
-4.86745
-4.64688
-4.4257
-4.20449
-3.98384
-3.76431
-3.54648
-3.33087
-3.11799
-2.90829
-2.70219
-2.50006
-2.30224
-2.10905
-1.92076
-1.73766
-1.55995
-1.38787
-1.22154
-1.06117
-0.906728
-0.758643
-0.616281
-0.481832
-0.351242
-0.236838
-0.113201
-0.0532159
-9.16754
-9.17993
-9.19213
-9.20408
-9.21572
-9.22699
-9.23784
-9.24824
-9.25817
-9.26762
-9.27663
-9.28524
-9.29352
-9.3016
-9.30955
-9.31749
-9.32551
-9.33372
-9.3422
-9.351
-9.36016
-9.36966
-9.37941
-9.38926
-9.399
-9.40838
-9.41712
-9.4249
-9.43138
-9.43619
-9.43897
-9.43933
-9.43692
-9.43136
-9.42233
-9.40949
-9.39252
-9.37116
-9.34512
-9.31415
-9.27802
-9.23652
-9.18945
-9.13661
-9.07784
-9.01299
-8.94189
-8.86441
-8.78044
-8.68985
-8.59254
-8.48844
-8.37746
-8.25957
-8.13474
-8.00296
-7.86426
-7.7187
-7.56636
-7.40738
-7.24191
-7.07017
-6.89239
-6.70887
-6.51991
-6.3259
-6.12722
-5.92431
-5.71762
-5.50763
-5.29486
-5.07982
-4.86304
-4.64508
-4.42647
-4.20778
-3.98955
-3.77233
-3.55665
-3.343
-3.13186
-2.92366
-2.7188
-2.51763
-2.3205
-2.12771
-1.93955
-1.7563
-1.57819
-1.40547
-1.23829
-1.07689
-0.921287
-0.771918
-0.628283
-0.49239
-0.360606
-0.244314
-0.119344
-0.0559649
-9.16234
-9.17437
-9.18622
-9.19783
-9.20915
-9.22014
-9.23074
-9.24094
-9.2507
-9.26004
-9.26896
-9.2775
-9.28571
-9.29368
-9.3015
-9.30928
-9.31706
-9.32494
-9.33298
-9.34122
-9.34967
-9.3583
-9.36702
-9.37568
-9.3841
-9.39205
-9.39927
-9.40546
-9.4103
-9.41347
-9.4146
-9.41335
-9.40937
-9.40232
-9.39186
-9.37769
-9.35949
-9.33699
-9.30992