/*--------------------------------*- C++ -*----------------------------------*\
| =========                 |                                                 |
| \\      /  F ield         | OpenFOAM: The Open Source CFD Toolbox           |
|  \\    /   O peration     | Version:  4.1                                   |
|   \\  /    A nd           | Web:      www.OpenFOAM.org                      |
|    \\/     M anipulation  |                                                 |
\*---------------------------------------------------------------------------*/
FoamFile
{
    version     2.0;
    format      ascii;
    class       surfaceScalarField;
    location    "2000";
    object      phi;
}
// * * * * * * * * * * * * * * * * * * * * * * * * * * * * * * * * * * * * * //

dimensions      [0 3 -1 0 0 0 0];

internalField   nonuniform List<scalar> 
13452
(
5.95313e-05
7.37189e-07
5.86592e-05
8.72055e-07
5.78162e-05
8.43023e-07
5.69811e-05
8.35093e-07
5.61551e-05
8.26045e-07
5.53509e-05
8.04137e-07
5.4576e-05
7.74946e-07
5.38328e-05
7.43204e-07
5.31224e-05
7.10328e-07
5.24455e-05
6.76897e-07
5.1802e-05
6.43566e-07
5.11911e-05
6.10909e-07
5.06118e-05
5.79288e-07
5.00629e-05
5.4889e-07
4.95431e-05
5.19807e-07
4.9051e-05
4.9207e-07
4.85853e-05
4.65672e-07
4.81448e-05
4.40578e-07
4.7728e-05
4.16737e-07
4.73339e-05
3.9409e-07
4.69614e-05
3.72576e-07
4.66092e-05
3.52129e-07
4.62765e-05
3.32689e-07
4.59624e-05
3.14194e-07
4.56658e-05
2.96587e-07
4.5386e-05
2.79814e-07
4.51221e-05
2.63811e-07
4.48736e-05
2.48583e-07
4.46397e-05
2.33879e-07
4.44193e-05
2.20425e-07
4.42137e-05
2.05572e-07
4.40179e-05
1.95781e-07
1.67979e-07
4.38499e-05
6.23701e-05
3.5739e-07
6.26549e-05
5.87255e-07
6.28762e-05
6.21723e-07
6.30527e-05
6.58587e-07
6.31874e-05
6.91411e-07
6.32837e-05
7.07861e-07
6.33451e-05
7.1353e-07
6.33748e-05
7.13499e-07
6.33761e-05
7.09032e-07
6.33524e-05
7.00535e-07
6.33073e-05
6.88731e-07
6.32438e-05
6.74417e-07
6.31648e-05
6.58229e-07
6.30731e-05
6.40652e-07
6.29708e-05
6.22079e-07
6.286e-05
6.02837e-07
6.27425e-05
5.83187e-07
6.26197e-05
5.63339e-07
6.2493e-05
5.43454e-07
6.23635e-05
5.2366e-07
6.2232e-05
5.04059e-07
6.20994e-05
4.84726e-07
6.19663e-05
4.65719e-07
6.18335e-05
4.47079e-07
6.17012e-05
4.28834e-07
6.157e-05
4.11007e-07
6.14402e-05
3.93597e-07
6.13122e-05
3.76642e-07
6.1186e-05
3.60023e-07
6.10624e-05
3.44072e-07
6.09402e-05
3.27722e-07
6.08228e-05
3.13238e-07
2.97025e-07
6.06937e-05
6.38365e-05
2.82304e-07
6.38978e-05
5.25936e-07
6.39331e-05
5.86407e-07
6.39614e-05
6.30299e-07
6.39849e-05
6.67943e-07
6.40043e-05
6.88445e-07
6.40213e-05
6.96576e-07
6.40366e-05
6.98201e-07
6.40503e-05
6.95271e-07
6.40624e-05
6.88412e-07
6.40728e-05
6.78395e-07
6.40812e-05
6.66034e-07
6.40874e-05
6.51949e-07
6.40915e-05
6.36591e-07
6.40933e-05
6.20312e-07
6.40927e-05
6.03398e-07
6.40898e-05
5.86079e-07
6.40846e-05
5.68532e-07
6.40772e-05
5.50893e-07
6.40676e-05
5.3327e-07
6.40559e-05
5.15746e-07
6.40422e-05
4.98382e-07
6.40267e-05
4.81227e-07
6.40095e-05
4.64314e-07
6.39907e-05
4.47665e-07
6.39704e-05
4.31297e-07
6.39487e-05
4.1521e-07
6.3926e-05
3.99423e-07
6.39021e-05
3.83882e-07
6.38775e-05
3.68681e-07
6.38516e-05
3.53582e-07
6.3826e-05
3.38865e-07
3.24566e-07
6.37985e-05
6.5644e-05
2.21346e-07
6.57108e-05
4.59203e-07
6.57547e-05
5.4244e-07
6.57894e-05
5.95593e-07
6.5819e-05
6.38406e-07
6.58438e-05
6.63646e-07
6.5865e-05
6.75383e-07
6.58836e-05
6.79618e-07
6.59001e-05
6.78756e-07
6.59148e-05
6.73631e-07
6.59282e-05
6.6509e-07
6.59402e-05
6.53995e-07
6.59511e-05
6.41013e-07
6.59611e-05
6.26629e-07
6.59702e-05
6.11221e-07
6.59785e-05
5.95097e-07
6.59861e-05
5.78499e-07
6.5993e-05
5.61617e-07
6.59993e-05
5.44595e-07
6.6005e-05
5.27547e-07
6.60102e-05
5.10558e-07
6.60149e-05
4.93691e-07
6.60191e-05
4.76994e-07
6.60229e-05
4.605e-07
6.60264e-05
4.44231e-07
6.60295e-05
4.28199e-07
6.60323e-05
4.12406e-07
6.60348e-05
3.96857e-07
6.60372e-05
3.81523e-07
6.60394e-05
3.6644e-07
6.60415e-05
3.51512e-07
6.60435e-05
3.36845e-07
3.22798e-07
6.60453e-05
6.75014e-05
1.7669e-07
6.75606e-05
4.00047e-07
6.7606e-05
4.97072e-07
6.76451e-05
5.56441e-07
6.76814e-05
6.02161e-07
6.77143e-05
6.30727e-07
6.77441e-05
6.45523e-07
6.77716e-05
6.52145e-07
6.77972e-05
6.5321e-07
6.7821e-05
6.49744e-07
6.78435e-05
6.42667e-07
6.78646e-05
6.32877e-07
6.78845e-05
6.21069e-07
6.79034e-05
6.07748e-07
6.79213e-05
5.9331e-07
6.79383e-05
5.7807e-07
6.79546e-05
5.62281e-07
6.797e-05
5.46137e-07
6.79849e-05
5.29789e-07
6.7999e-05
5.13354e-07
6.80127e-05
4.9692e-07
6.80258e-05
4.80554e-07
6.80385e-05
4.64306e-07
6.80508e-05
4.48209e-07
6.80627e-05
4.32287e-07
6.80744e-05
4.16553e-07
6.80858e-05
4.01009e-07
6.8097e-05
3.85655e-07
6.8108e-05
3.70475e-07
6.8119e-05
3.55471e-07
6.81299e-05
3.40613e-07
6.81408e-05
3.2591e-07
3.11527e-07
6.81521e-05
6.94169e-05
1.43864e-07
6.94686e-05
3.48321e-07
6.95132e-05
4.5241e-07
6.95533e-05
5.16339e-07
6.95912e-05
5.64288e-07
6.96263e-05
5.95614e-07
6.96587e-05
6.1312e-07
6.9689e-05
6.21898e-07
6.97175e-05
6.24712e-07
6.97444e-05
6.22776e-07
6.977e-05
6.17078e-07
6.97944e-05
6.08533e-07
6.98176e-05
5.97852e-07
6.98398e-05
5.85554e-07
6.98611e-05
5.72046e-07
6.98815e-05
5.57653e-07
6.99011e-05
5.42632e-07
6.99201e-05
5.27185e-07
6.99384e-05
5.11468e-07
6.99561e-05
4.95603e-07
6.99734e-05
4.79683e-07
6.99902e-05
4.63779e-07
7.00065e-05
4.47941e-07
7.00225e-05
4.32208e-07
7.00382e-05
4.16604e-07
7.00536e-05
4.01141e-07
7.00688e-05
3.85825e-07
7.00838e-05
3.70652e-07
7.00987e-05
3.55611e-07
7.01135e-05
3.40686e-07
7.01282e-05
3.25858e-07
7.0143e-05
3.11075e-07
2.96404e-07
7.01582e-05
7.13907e-05
1.19449e-07
7.14348e-05
3.04263e-07
7.14764e-05
4.10817e-07
7.1515e-05
4.77778e-07
7.15522e-05
5.27082e-07
7.15874e-05
5.60332e-07
7.16206e-05
5.7999e-07
7.16519e-05
5.90599e-07
7.16816e-05
5.94957e-07
7.171e-05
5.94402e-07
7.17371e-05
5.89963e-07
7.17631e-05
5.82561e-07
7.1788e-05
5.72915e-07
7.1812e-05
5.61559e-07
7.18352e-05
5.4891e-07
7.18575e-05
5.35301e-07
7.18792e-05
5.20997e-07
7.19001e-05
5.06204e-07
7.19205e-05
4.91085e-07
7.19404e-05
4.75764e-07
7.19597e-05
4.60338e-07
7.19786e-05
4.44881e-07
7.19971e-05
4.29447e-07
7.20152e-05
4.14074e-07
7.2033e-05
3.98789e-07
7.20506e-05
3.83605e-07
7.20679e-05
3.68528e-07
7.2085e-05
3.53553e-07
7.21019e-05
3.38668e-07
7.21187e-05
3.23854e-07
7.21355e-05
3.09081e-07
7.21523e-05
2.94282e-07
2.79463e-07
7.21693e-05
7.34237e-05
1.00988e-07
7.34611e-05
2.66878e-07
7.34997e-05
3.72237e-07
7.35369e-05
4.40545e-07
7.35736e-05
4.90381e-07
7.36091e-05
5.24881e-07
7.36428e-05
5.46274e-07
7.36749e-05
5.58489e-07
7.37056e-05
5.64252e-07
7.3735e-05
5.64984e-07
7.37633e-05
5.61739e-07
7.37904e-05
5.55436e-07
7.38165e-05
5.46801e-07
7.38417e-05
5.36376e-07
7.3866e-05
5.24585e-07
7.38895e-05
5.11767e-07
7.39123e-05
4.98189e-07
7.39345e-05
4.84062e-07
7.3956e-05
4.69551e-07
7.3977e-05
4.54786e-07
7.39975e-05
4.39866e-07
7.40175e-05
4.24867e-07
7.40371e-05
4.09847e-07
7.40563e-05
3.94846e-07
7.40752e-05
3.79892e-07
7.40938e-05
3.65001e-07
7.41122e-05
3.50178e-07
7.41303e-05
3.35421e-07
7.41483e-05
3.20718e-07
7.41661e-05
3.06045e-07
7.41838e-05
2.91375e-07
7.42014e-05
2.76646e-07
2.61856e-07
7.4219e-05
7.55168e-05
8.66831e-08
7.55485e-05
2.35118e-07
7.55839e-05
3.36838e-07
7.56193e-05
4.05165e-07
7.56547e-05
4.5495e-07
7.56895e-05
4.90131e-07
7.5723e-05
5.12804e-07
7.57551e-05
5.2632e-07
7.57861e-05
5.33271e-07
7.5816e-05
5.3513e-07
7.58447e-05
5.32956e-07
7.58725e-05
5.27661e-07
7.58994e-05
5.19963e-07
7.59253e-05
5.10411e-07
7.59505e-05
4.9943e-07
7.59749e-05
4.87362e-07
7.59986e-05
4.74477e-07
7.60217e-05
4.60989e-07
7.60442e-05
4.47067e-07
7.60661e-05
4.32844e-07
7.60875e-05
4.18421e-07
7.61085e-05
4.03877e-07
7.61291e-05
3.89273e-07
7.61493e-05
3.7465e-07
7.61692e-05
3.60039e-07
7.61887e-05
3.45456e-07
7.6208e-05
3.30911e-07
7.6227e-05
3.16401e-07
7.62458e-05
3.01915e-07
7.62644e-05
2.87432e-07
7.62829e-05
2.72923e-07
7.63012e-05
2.58325e-07
2.4362e-07
7.63194e-05
7.76709e-05
7.53126e-08
7.76981e-05
2.08014e-07
7.77304e-05
3.04519e-07
7.77639e-05
3.71675e-07
7.7798e-05
4.20804e-07
7.78321e-05
4.56085e-07
7.78653e-05
4.79555e-07
7.78976e-05
4.94055e-07
7.79289e-05
5.01984e-07
7.79592e-05
5.04819e-07
7.79885e-05
5.03611e-07
7.80169e-05
4.99244e-07
7.80445e-05
4.9243e-07
7.80712e-05
4.83713e-07
7.80971e-05
4.73519e-07
7.81222e-05
4.62189e-07
7.81467e-05
4.49994e-07
7.81706e-05
4.3715e-07
7.81938e-05
4.23827e-07
7.82165e-05
4.10159e-07
7.82387e-05
3.96251e-07
7.82604e-05
3.82183e-07
7.82816e-05
3.68017e-07
7.83025e-05
3.53799e-07
7.83229e-05
3.39559e-07
7.83431e-05
3.25318e-07
7.83629e-05
3.11085e-07
7.83824e-05
2.96862e-07
7.84017e-05
2.8264e-07
7.84207e-05
2.68404e-07
7.84395e-05
2.5413e-07
7.84581e-05
2.39781e-07
2.25364e-07
7.84763e-05
7.98876e-05
6.60381e-08
7.99109e-05
1.84696e-07
7.99404e-05
2.75069e-07
7.99719e-05
3.40093e-07
8.00047e-05
3.88064e-07
8.00378e-05
4.22993e-07
8.00705e-05
4.46855e-07
8.01025e-05
4.62056e-07
8.01337e-05
4.70762e-07
8.01641e-05
4.74418e-07
8.01937e-05
4.74053e-07
8.02224e-05
4.70523e-07
8.02503e-05
4.64521e-07
8.02774e-05
4.56583e-07
8.03038e-05
4.47132e-07
8.03295e-05
4.36507e-07
8.03545e-05
4.24977e-07
8.03789e-05
4.12758e-07
8.04027e-05
4.00022e-07
8.0426e-05
3.86902e-07
8.04487e-05
3.73505e-07
8.0471e-05
3.59915e-07
8.04928e-05
3.46194e-07
8.05142e-05
3.3239e-07
8.05352e-05
3.18537e-07
8.05559e-05
3.04657e-07
8.05762e-05
2.90764e-07
8.05962e-05
2.7686e-07
8.06159e-05
2.62943e-07
8.06353e-05
2.49002e-07
8.06544e-05
2.3502e-07
8.06732e-05
2.20958e-07
2.06822e-07
8.06918e-05
8.21682e-05
5.82866e-08
8.21885e-05
1.64435e-07
8.22153e-05
2.48231e-07
8.2245e-05
3.10375e-07
8.22763e-05
3.56735e-07
8.23084e-05
3.90902e-07
8.23405e-05
4.1476e-07
8.23722e-05
4.30355e-07
8.24034e-05
4.39616e-07
8.24339e-05
4.43919e-07
8.24637e-05
4.44264e-07
8.24927e-05
4.41469e-07
8.2521e-05
4.36201e-07
8.25486e-05
4.28986e-07
8.25755e-05
4.20237e-07
8.26018e-05
4.10287e-07
8.26273e-05
3.99404e-07
8.26523e-05
3.87801e-07
8.26767e-05
3.75649e-07
8.27005e-05
3.63082e-07
8.27238e-05
3.50208e-07
8.27466e-05
3.37111e-07
8.27689e-05
3.23856e-07
8.27908e-05
3.10492e-07
8.28123e-05
2.97055e-07
8.28334e-05
2.8357e-07
8.28541e-05
2.70054e-07
8.28744e-05
2.56514e-07
8.28944e-05
2.42953e-07
8.29141e-05
2.29365e-07
8.29333e-05
2.15744e-07
8.29522e-05
2.02076e-07
1.88391e-07
8.29707e-05
8.45144e-05
5.16638e-08
8.45322e-05
1.46639e-07
8.45567e-05
2.2372e-07
8.45847e-05
2.8243e-07
8.46146e-05
3.26788e-07
8.46457e-05
3.59845e-07
8.46771e-05
3.83358e-07
8.47083e-05
3.99075e-07
8.47393e-05
4.08688e-07
8.47697e-05
4.13485e-07
8.47995e-05
4.14418e-07
8.48288e-05
4.12263e-07
8.48573e-05
4.07657e-07
8.48852e-05
4.01108e-07
8.49124e-05
3.93018e-07
8.4939e-05
3.83714e-07
8.49649e-05
3.73455e-07
8.49903e-05
3.62454e-07
8.5015e-05
3.50878e-07
8.50393e-05
3.38862e-07
8.50629e-05
3.26513e-07
8.50861e-05
3.13916e-07
8.51089e-05
3.01138e-07
8.51311e-05
2.88229e-07
8.5153e-05
2.75228e-07
8.51744e-05
2.62163e-07
8.51954e-05
2.49054e-07
8.5216e-05
2.35912e-07
8.52362e-05
2.22745e-07
8.5256e-05
2.09555e-07
8.52754e-05
1.96341e-07
8.52944e-05
1.83089e-07
1.69827e-07
8.53129e-05
8.69279e-05
4.58947e-08
8.69437e-05
1.30828e-07
8.69662e-05
2.01253e-07
8.69925e-05
2.56144e-07
8.70211e-05
2.98168e-07
8.70511e-05
3.29817e-07
8.70818e-05
3.52679e-07
8.71126e-05
3.68256e-07
8.71433e-05
3.78018e-07
8.71737e-05
3.83144e-07
8.72035e-05
3.84532e-07
8.72329e-05
3.82912e-07
8.72617e-05
3.78885e-07
8.72898e-05
3.72938e-07
8.73174e-05
3.65459e-07
8.73443e-05
3.56763e-07
8.73707e-05
3.47103e-07
8.73965e-05
3.36687e-07
8.74217e-05
3.25678e-07
8.74463e-05
3.14212e-07
8.74704e-05
3.02393e-07
8.7494e-05
2.90307e-07
8.75172e-05
2.78021e-07
8.75398e-05
2.65589e-07
8.7562e-05
2.5305e-07
8.75837e-05
2.40435e-07
8.7605e-05
2.27767e-07
8.76258e-05
2.15064e-07
8.76463e-05
2.02335e-07
8.76662e-05
1.89591e-07
8.76857e-05
1.76839e-07
8.77047e-05
1.64083e-07
1.51367e-07
8.77232e-05
8.94106e-05
4.07834e-08
8.94249e-05
1.16625e-07
8.94455e-05
1.80564e-07
8.94703e-05
2.31384e-07
8.94977e-05
2.70802e-07
8.95267e-05
3.00784e-07
8.95566e-05
3.2273e-07
8.9587e-05
3.37929e-07
8.96173e-05
3.47649e-07
8.96475e-05
3.52953e-07
8.96774e-05
3.54674e-07
8.97068e-05
3.53492e-07
8.97357e-05
3.4997e-07
8.97641e-05
3.44567e-07
8.97919e-05
3.37655e-07
8.98191e-05
3.29536e-07
8.98458e-05
3.20454e-07
8.98719e-05
3.10609e-07
8.98974e-05
3.00163e-07
8.99223e-05
2.89245e-07
8.99468e-05
2.77962e-07
8.99707e-05
2.66398e-07
8.99941e-05
2.5462e-07
9.0017e-05
2.42683e-07
9.00394e-05
2.30629e-07
9.00614e-05
2.18491e-07
9.00828e-05
2.06296e-07
9.01038e-05
1.94063e-07
9.01243e-05
1.8181e-07
9.01444e-05
1.6955e-07
9.01639e-05
1.57295e-07
9.0183e-05
1.4505e-07
1.32855e-07
9.02015e-05
9.19645e-05
3.61876e-08
9.19774e-05
1.03727e-07
9.19965e-05
1.61406e-07
9.20199e-05
2.08009e-07
9.20461e-05
2.44603e-07
9.20742e-05
2.727e-07
9.21034e-05
2.935e-07
9.21332e-05
3.08104e-07
9.21633e-05
3.17601e-07
9.21933e-05
3.22935e-07
9.22231e-05
3.24867e-07
9.22526e-05
3.24023e-07
9.22816e-05
3.20925e-07
9.23102e-05
3.16004e-07
9.23382e-05
3.09611e-07
9.23657e-05
3.02032e-07
9.23927e-05
2.93502e-07
9.24191e-05
2.84212e-07
9.24449e-05
2.74318e-07
9.24702e-05
2.63947e-07
9.2495e-05
2.53202e-07
9.25192e-05
2.42168e-07
9.25429e-05
2.30912e-07
9.25661e-05
2.19489e-07
9.25888e-05
2.07942e-07
9.2611e-05
1.96307e-07
9.26327e-05
1.84614e-07
9.26538e-05
1.72885e-07
9.26745e-05
1.61142e-07
9.26947e-05
1.49403e-07
9.27143e-05
1.37686e-07
9.27333e-05
1.26006e-07
1.14411e-07
9.27518e-05
9.45913e-05
3.2001e-08
9.46032e-05
9.18909e-08
9.4621e-05
1.43556e-07
9.46432e-05
1.85873e-07
9.46683e-05
2.19476e-07
9.46955e-05
2.45504e-07
9.4724e-05
2.64957e-07
9.47534e-05
2.78774e-07
9.47831e-05
2.8788e-07
9.48129e-05
2.93104e-07
9.48427e-05
2.95131e-07
9.48721e-05
2.94531e-07
9.49013e-05
2.91783e-07
9.493e-05
2.87287e-07
9.49582e-05
2.81368e-07
9.4986e-05
2.74298e-07
9.50132e-05
2.66297e-07
9.50398e-05
2.57549e-07
9.5066e-05
2.48202e-07
9.50915e-05
2.38379e-07
9.51166e-05
2.2818e-07
9.5141e-05
2.17688e-07
9.5165e-05
2.06969e-07
9.51884e-05
1.96079e-07
9.52113e-05
1.85063e-07
9.52336e-05
1.73958e-07
9.52554e-05
1.62796e-07
9.52767e-05
1.51602e-07
9.52975e-05
1.40401e-07
9.53176e-05
1.29214e-07
9.53373e-05
1.18062e-07
9.53563e-05
1.0696e-07
9.59524e-08
9.53748e-05
9.72934e-05
2.81423e-08
9.73043e-05
8.09221e-08
9.73211e-05
1.26815e-07
9.73421e-05
1.64829e-07
9.73663e-05
1.95318e-07
9.73927e-05
2.19121e-07
9.74206e-05
2.37058e-07
9.74494e-05
2.49916e-07
9.74788e-05
2.58479e-07
9.75085e-05
2.63462e-07
9.75381e-05
2.65474e-07
9.75676e-05
2.65027e-07
9.75969e-05
2.62557e-07
9.76257e-05
2.58426e-07
9.76542e-05
2.52938e-07
9.76821e-05
2.46342e-07
9.77096e-05
2.38848e-07
9.77365e-05
2.30625e-07
9.77629e-05
2.21817e-07
9.77887e-05
2.1254e-07
9.7814e-05
2.02891e-07
9.78387e-05
1.9295e-07
9.78629e-05
1.82782e-07
9.78866e-05
1.72443e-07
9.79096e-05
1.61978e-07
9.79322e-05
1.51426e-07
9.79541e-05
1.40819e-07
9.79756e-05
1.30187e-07
9.79964e-05
1.19556e-07
9.80167e-05
1.08948e-07
9.80363e-05
9.839e-08
9.80554e-05
8.78996e-08
7.75247e-08
9.80738e-05
0.000100073
2.45469e-08
0.000100083
7.06593e-08
0.000100099
1.11004e-07
0.000100119
1.44731e-07
0.000100142
1.72017e-07
0.000100168
1.93471e-07
0.000100195
2.09746e-07
0.000100224
2.21496e-07
0.000100253
2.29376e-07
0.000100282
2.33998e-07
0.000100312
2.35893e-07
0.000100341
2.35515e-07
0.000100371
2.33252e-07
0.000100399
2.29433e-07
0.000100428
2.24334e-07
0.000100456
2.18183e-07
0.000100484
2.11174e-07
0.000100511
2.03465e-07
0.000100538
1.95191e-07
0.000100564
1.86461e-07
0.000100589
1.77369e-07
0.000100614
1.67989e-07
0.000100639
1.58388e-07
0.000100662
1.48619e-07
0.000100686
1.38727e-07
0.000100708
1.28751e-07
0.000100731
1.18726e-07
0.000100752
1.08682e-07
0.000100773
9.86459e-08
0.000100793
8.86431e-08
0.000100813
7.86997e-08
0.000100832
6.88337e-08
5.909e-08
0.00010085
0.000102931
2.11624e-08
0.000102941
6.09671e-08
0.000102956
9.5963e-08
0.000102975
1.25438e-07
0.000102998
1.49459e-07
0.000103023
1.6846e-07
0.00010305
1.82951e-07
0.000103078
1.93464e-07
0.000103107
2.00539e-07
0.000103136
2.04691e-07
0.000103166
2.06376e-07
0.000103195
2.05988e-07
0.000103224
2.03869e-07
0.000103254
2.0031e-07
0.000103282
1.9556e-07
0.000103311
1.89825e-07
0.000103339
1.83281e-07
0.000103366
1.76074e-07
0.000103393
1.68329e-07
0.000103419
1.60147e-07
0.000103445
1.51616e-07
0.00010347
1.42809e-07
0.000103495
1.33788e-07
0.000103519
1.24604e-07
0.000103542
1.15304e-07
0.000103565
1.05926e-07
0.000103587
9.65046e-08
0.000103609
8.70703e-08
0.00010363
7.76515e-08
0.00010365
6.82745e-08
0.00010367
5.89657e-08
0.000103689
4.97452e-08
4.06569e-08
0.000103707
0.000105872
1.79443e-08
0.000105881
5.17283e-08
0.000105896
8.15448e-08
0.000105914
1.06809e-07
0.000105936
1.27523e-07
0.000105961
1.43989e-07
0.000105987
1.56593e-07
0.000106015
1.65757e-07
0.000106043
1.71922e-07
0.000106073
1.75507e-07
0.000106102
1.76897e-07
0.000106132
1.76429e-07
0.000106161
1.74396e-07
0.00010619
1.71052e-07
0.000106219
1.66616e-07
0.000106248
1.61271e-07
0.000106276
1.55175e-07
0.000106303
1.48461e-07
0.000106331
1.4124e-07
0.000106357
1.33608e-07
0.000106383
1.25646e-07
0.000106408
1.17423e-07
0.000106433
1.08996e-07
0.000106457
1.00416e-07
0.000106481
9.1727e-08
0.000106504
8.29673e-08
0.000106526
7.41706e-08
0.000106548
6.53681e-08
0.000106569
5.65877e-08
0.00010659
4.7856e-08
0.000106609
3.91988e-08
0.000106628
3.06359e-08
2.22084e-08
0.000106647
0.000108896
1.48532e-08
0.000108905
4.2838e-08
0.000108919
6.76116e-08
0.000108937
8.87035e-08
0.000108959
1.06082e-07
0.000108983
1.19946e-07
0.000109009
1.30577e-07
0.000109036
1.38302e-07
0.000109065
1.43464e-07
0.000109094
1.464e-07
0.000109123
1.47423e-07
0.000109153
1.46812e-07
0.000109183
1.44814e-07
0.000109212
1.41646e-07
0.000109241
1.37493e-07
0.00010927
1.32516e-07
0.000109298
1.26854e-07
0.000109326
1.20624e-07
0.000109353
1.13927e-07
0.00010938
1.06849e-07
0.000109406
9.94633e-08
0.000109432
9.1834e-08
0.000109457
8.40156e-08
0.000109481
7.60557e-08
0.000109505
6.7996e-08
0.000109528
5.98735e-08
0.000109551
5.17214e-08
0.000109572
4.35696e-08
0.000109593
3.54461e-08
0.000109614
2.73765e-08
0.000109634
1.93861e-08
0.000109653
1.14939e-08
3.73855e-09
0.000109671
0.000112007
1.18526e-08
0.000112016
3.41978e-08
0.00011203
5.40302e-08
0.000112047
7.0981e-08
0.000112069
8.50002e-08
0.000112092
9.6209e-08
0.000112118
1.048e-07
0.000112145
1.11009e-07
0.000112174
1.15093e-07
0.000112203
1.17311e-07
0.000112232
1.17906e-07
0.000112262
1.17102e-07
0.000112292
1.15097e-07
0.000112321
1.1207e-07
0.000112351
1.08176e-07
0.00011238
1.0355e-07
0.000112408
9.83113e-08
0.000112436
9.2561e-08
0.000112464
8.63877e-08
0.000112491
7.98678e-08
0.000112517
7.30673e-08
0.000112543
6.60441e-08
0.000112568
5.88484e-08
0.000112593
5.15244e-08
0.000112616
4.41113e-08
0.00011264
3.66442e-08
0.000112662
2.91548e-08
0.000112684
2.16719e-08
0.000112705
1.42223e-08
0.000112726
6.83075e-09
0.000112746
-4.78475e-10
0.000112765
-7.68684e-09
-1.47577e-08
0.000112783
0.000115207
8.90611e-09
0.000115216
2.5713e-08
0.000115229
4.06695e-08
0.000115247
5.34962e-08
0.000115268
6.41358e-08
0.000115291
7.26468e-08
0.000115317
7.91427e-08
0.000115344
8.37761e-08
0.000115372
8.67239e-08
0.000115402
8.81691e-08
0.000115431
8.82893e-08
0.000115461
8.72508e-08
0.000115491
8.52069e-08
0.000115521
8.22963e-08
0.00011555
7.86429e-08
0.000115579
7.4357e-08
0.000115608
6.95358e-08
0.000115637
6.42648e-08
0.000115664
5.86192e-08
0.000115691
5.26652e-08
0.000115718
4.64608e-08
0.000115744
4.00571e-08
0.000115769
3.34996e-08
0.000115794
2.68285e-08
0.000115818
2.00799e-08
0.000115842
1.32865e-08
0.000115864
6.47794e-09
0.000115886
-3.1849e-10
0.000115907
-7.07775e-09
0.000115928
-1.37766e-08
0.000115948
-2.03928e-08
0.000115967
-2.69102e-08
-3.32961e-08
0.000115986
0.000118499
5.97488e-09
0.000118507
1.72878e-08
0.00011852
2.73947e-08
0.000118538
3.60973e-08
0.000118559
4.33357e-08
0.000118582
4.91145e-08
0.000118608
5.34738e-08
0.000118635
5.64882e-08
0.000118664
5.82572e-08
0.000118693
5.88911e-08
0.000118723
5.85027e-08
0.000118753
5.72027e-08
0.000118783
5.50977e-08
0.000118813
5.22875e-08
0.000118843
4.88641e-08
0.000118872
4.49117e-08
0.000118901
4.05065e-08
0.00011893
3.5717e-08
0.000118958
3.06051e-08
0.000118985
2.52257e-08
0.000119012
1.96284e-08
0.000119038
1.38574e-08
0.000119064
7.95276e-09
0.000119089
1.95015e-09
0.000119113
-4.11746e-09
0.000119136
-1.02206e-08
0.000119159
-1.63318e-08
0.000119181
-2.2426e-08
0.000119203
-2.84797e-08
0.000119223
-3.44714e-08
0.000119243
-4.03796e-08
0.000119263
-4.61879e-08
-5.18646e-08
0.000119281
0.000121884
3.0275e-09
0.000121893
8.83219e-09
0.000121906
1.4072e-08
0.000121923
1.8627e-08
0.000121944
2.24369e-08
0.000121968
2.54544e-08
0.000121994
2.76478e-08
0.000122021
2.9015e-08
0.00012205
2.95796e-08
0.00012208
2.93802e-08
0.00012211
2.84653e-08
0.00012214
2.68905e-08
0.00012217
2.47155e-08
0.000122201
2.20011e-08
0.000122231
1.88072e-08
0.00012226
1.51915e-08
0.00012229
1.12088e-08
0.000122318
6.91051e-09
0.000122347
2.34406e-09
0.000122374
-2.44645e-09
0.000122401
-7.42079e-09
0.000122428
-1.25418e-08
0.000122454
-1.77756e-08
0.000122479
-2.30908e-08
0.000122503
-2.84589e-08
0.000122527
-3.3853e-08
0.000122549
-3.9249e-08
0.000122572
-4.46239e-08
0.000122593
-4.99568e-08
0.000122614
-5.52283e-08
0.000122634
-6.04202e-08
0.000122653
-6.55205e-08
-7.05026e-08
0.000122672
0.000125366
4.90458e-11
0.000125375
2.60804e-10
0.000125389
5.62314e-10
0.000125406
9.16658e-10
0.000125427
1.26105e-09
0.000125451
1.49147e-09
0.000125478
1.50067e-09
0.000125505
1.20823e-09
0.000125534
5.60363e-10
0.000125564
-4.77051e-10
0.000125595
-1.92057e-09
0.000125625
-3.77031e-09
0.000125656
-6.0134e-09
0.000125687
-8.62805e-09
0.000125717
-1.15866e-08
0.000125747
-1.48578e-08
0.000125777
-1.84083e-08
0.000125806
-2.22042e-08
0.000125834
-2.62122e-08
0.000125862
-3.03997e-08
0.00012589
-3.47357e-08
0.000125916
-3.91907e-08
0.000125942
-4.37367e-08
0.000125967
-4.83476e-08
0.000125992
-5.29988e-08
0.000126016
-5.76673e-08
0.000126039
-6.23315e-08
0.000126061
-6.69713e-08
0.000126083
-7.15677e-08
0.000126104
-7.61027e-08
0.000126124
-8.05585e-08
0.000126143
-8.49203e-08
-8.91614e-08
0.000126162
0.000128948
-3.00646e-09
0.000128957
-8.55137e-09
0.000128971
-1.3318e-08
0.000128989
-1.72473e-08
0.000129011
-2.04121e-08
0.000129035
-2.2987e-08
0.000129062
-2.51645e-08
0.00012909
-2.71086e-08
0.00012912
-2.89538e-08
0.00012915
-3.081e-08
0.000129181
-3.27609e-08
0.000129212
-3.48633e-08
0.000129243
-3.71518e-08
0.000129274
-3.96439e-08
0.000129305
-4.23443e-08
0.000129335
-4.52483e-08
0.000129365
-4.8344e-08
0.000129395
-5.16152e-08
0.000129423
-5.50423e-08
0.000129452
-5.86047e-08
0.000129479
-6.22802e-08
0.000129506
-6.60473e-08
0.000129532
-6.98842e-08
0.000129558
-7.37699e-08
0.000129582
-7.76841e-08
0.000129606
-8.16077e-08
0.000129629
-8.55221e-08
0.000129652
-8.94103e-08
0.000129674
-9.32561e-08
0.000129694
-9.70451e-08
0.000129715
-1.00764e-07
0.000129734
-1.04405e-07
-1.07949e-07
0.000129753
0.000132632
-6.20439e-09
0.000132641
-1.77741e-08
0.000132656
-2.78094e-08
0.000132675
-3.61365e-08
0.000132697
-4.28556e-08
0.000132723
-4.824e-08
0.00013275
-5.25856e-08
0.000132779
-5.61494e-08
0.000132809
-5.91539e-08
0.00013284
-6.17901e-08
0.000132872
-6.42115e-08
0.000132903
-6.65322e-08
0.000132935
-6.8834e-08
0.000132967
-7.11737e-08
0.000132998
-7.35881e-08
0.000133029
-7.60983e-08
0.000133059
-7.87139e-08
0.000133089
-8.14354e-08
0.000133118
-8.42578e-08
0.000133147
-8.71711e-08
0.000133174
-9.01633e-08
0.000133202
-9.32197e-08
0.000133228
-9.63254e-08
0.000133254
-9.94643e-08
0.000133279
-1.02621e-07
0.000133303
-1.05779e-07
0.000133326
-1.08925e-07
0.000133349
-1.12042e-07
0.000133371
-1.15118e-07
0.000133392
-1.18137e-07
0.000133412
-1.21086e-07
0.000133432
-1.23951e-07
-1.2671e-07
0.000133451
0.000136422
-9.62583e-09
0.000136432
-2.76304e-08
0.000136447
-4.32237e-08
0.000136467
-5.60949e-08
0.00013649
-6.64083e-08
0.000136517
-7.45829e-08
0.000136545
-8.10432e-08
0.000136575
-8.61511e-08
0.000136606
-9.02288e-08
0.000136638
-9.35586e-08
0.00013667
-9.63694e-08
0.000136703
-9.88346e-08
0.000136735
-1.01084e-07
0.000136767
-1.03213e-07
0.000136799
-1.0529e-07
0.00013683
-1.07361e-07
0.000136861
-1.09456e-07
0.000136891
-1.11592e-07
0.00013692
-1.13777e-07
0.000136949
-1.16011e-07
0.000136977
-1.18291e-07
0.000137005
-1.20611e-07
0.000137031
-1.22961e-07
0.000137057
-1.2533e-07
0.000137082
-1.27707e-07
0.000137107
-1.30081e-07
0.00013713
-1.32439e-07
0.000137153
-1.3477e-07
0.000137175
-1.37064e-07
0.000137196
-1.3931e-07
0.000137216
-1.41502e-07
0.000137236
-1.43637e-07
-1.45701e-07
0.000137255
0.00014032
-1.33825e-08
0.00014033
-3.84294e-08
0.000140347
-5.99804e-08
0.000140369
-7.75641e-08
0.000140394
-9.14911e-08
0.000140421
-1.0241e-07
0.000140451
-1.10907e-07
0.000140483
-1.17462e-07
0.000140515
-1.22509e-07
0.000140548
-1.26431e-07
0.000140581
-1.29537e-07
0.000140614
-1.3206e-07
0.000140647
-1.34178e-07
0.00014068
-1.36025e-07
0.000140712
-1.377e-07
0.000140744
-1.39274e-07
0.000140776
-1.40796e-07
0.000140806
-1.42298e-07
0.000140836
-1.438e-07
0.000140866
-1.45315e-07
0.000140894
-1.46847e-07
0.000140922
-1.48395e-07
0.000140949
-1.49956e-07
0.000140975
-1.51526e-07
0.000141001
-1.53095e-07
0.000141025
-1.54656e-07
0.000141049
-1.562e-07
0.000141072
-1.57718e-07
0.000141094
-1.59201e-07
0.000141115
-1.60637e-07
0.000141136
-1.62016e-07
0.000141156
-1.63324e-07
-1.64546e-07
0.000141174
0.000144329
-1.76379e-08
0.000144341
-5.06225e-08
0.00014436
-7.86686e-08
0.000144383
-1.01128e-07
0.00014441
-1.18614e-07
0.00014444
-1.32132e-07
0.000144472
-1.42473e-07
0.000144505
-1.50262e-07
0.000144538
-1.56074e-07
0.000144572
-1.6041e-07
0.000144606
-1.63658e-07
0.00014464
-1.6611e-07
0.000144674
-1.67988e-07
0.000144707
-1.69462e-07
0.00014474
-1.7066e-07
0.000144773
-1.71672e-07
0.000144805
-1.72565e-07
0.000144836
-1.73384e-07
0.000144866
-1.74162e-07
0.000144896
-1.74919e-07
0.000144924
-1.75666e-07
0.000144952
-1.76411e-07
0.00014498
-1.77156e-07
0.000145006
-1.77898e-07
0.000145032
-1.78635e-07
0.000145056
-1.79362e-07
0.00014508
-1.80074e-07
0.000145103
-1.80764e-07
0.000145125
-1.81427e-07
0.000145147
-1.82059e-07
0.000145168
-1.82657e-07
0.000145187
-1.83226e-07
-1.83753e-07
0.000145207
0.000148453
-2.2648e-08
0.000148467
-6.48915e-08
0.000148489
-1.00115e-07
0.000148515
-1.27578e-07
0.000148545
-1.48546e-07
0.000148577
-1.64529e-07
0.000148612
-1.7652e-07
0.000148647
-1.85297e-07
0.000148682
-1.91619e-07
0.000148718
-1.96129e-07
0.000148753
-1.99304e-07
0.000148789
-2.01491e-07
0.000148824
-2.02961e-07
0.000148858
-2.03917e-07
0.000148892
-2.04511e-07
0.000148925
-2.04853e-07
0.000148958
-2.05024e-07
0.000148989
-2.0508e-07
0.00014902
-2.05061e-07
0.00014905
-2.04997e-07
0.00014908
-2.04904e-07
0.000149108
-2.04795e-07
0.000149136
-2.04675e-07
0.000149162
-2.04547e-07
0.000149188
-2.04411e-07
0.000149213
-2.04266e-07
0.000149237
-2.04107e-07
0.00014926
-2.0393e-07
0.000149282
-2.03731e-07
0.000149304
-2.03501e-07
0.000149324
-2.03233e-07
0.000149344
-2.02914e-07
-2.02534e-07
0.000149363
0.000152695
-2.88647e-08
0.000152713
-8.23947e-08
0.000152738
-1.25508e-07
0.000152768
-1.57706e-07
0.000152801
-1.81663e-07
0.000152837
-1.99666e-07
0.000152873
-2.12884e-07
0.00015291
-2.22267e-07
0.000152947
-2.28782e-07
0.000152984
-2.33211e-07
0.000153021
-2.361e-07
0.000153057
-2.37845e-07
0.000153093
-2.38754e-07
0.000153128
-2.39063e-07
0.000153163
-2.38943e-07
0.000153196
-2.3852e-07
0.000153229
-2.37884e-07
0.000153261
-2.37103e-07
0.000153292
-2.36224e-07
0.000153323
-2.35281e-07
0.000153352
-2.34298e-07
0.000153381
-2.3329e-07
0.000153408
-2.32267e-07
0.000153435
-2.31235e-07
0.000153461
-2.30197e-07
0.000153486
-2.29153e-07
0.00015351
-2.28104e-07
0.000153533
-2.27047e-07
0.000153555
-2.25981e-07
0.000153576
-2.24907e-07
0.000153597
-2.23827e-07
0.000153617
-2.22747e-07
-2.2166e-07
0.000153636
0.00015706
-3.70383e-08
0.000157082
-1.05096e-07
0.000157114
-1.5706e-07
0.00015715
-1.93702e-07
0.000157188
-2.20153e-07
0.000157228
-2.39533e-07
0.000157269
-2.53183e-07
0.000157309
-2.62392e-07
0.000157348
-2.68443e-07
0.000157387
-2.72255e-07
0.000157426
-2.74418e-07
0.000157463
-2.75363e-07
0.0001575
-2.75426e-07
0.000157536
-2.74858e-07
0.000157571
-2.73837e-07
0.000157605
-2.72495e-07
0.000157638
-2.70925e-07
0.00015767
-2.692e-07
0.000157701
-2.67368e-07
0.000157731
-2.65468e-07
0.00015776
-2.63524e-07
0.000157789
-2.61555e-07
0.000157816
-2.59573e-07
0.000157842
-2.57586e-07
0.000157868
-2.55599e-07
0.000157892
-2.53614e-07
0.000157916
-2.51632e-07
0.000157938
-2.49652e-07
0.00015796
-2.47672e-07
0.000157981
-2.45687e-07
0.000158
-2.43694e-07
0.000158019
-2.4168e-07
-2.39645e-07
0.000158037
0.00016155
-4.90121e-08
0.000161581
-1.35632e-07
0.000161619
-1.95197e-07
0.00016166
-2.34432e-07
0.000161702
-2.62613e-07
0.000161746
-2.82838e-07
0.000161789
-2.96261e-07
0.000161831
-3.04658e-07
0.000161872
-3.09708e-07
0.000161912
-3.12438e-07
0.000161951
-3.13469e-07
0.000161989
-3.13263e-07
0.000162026
-3.12183e-07
0.000162062
-3.10491e-07
0.000162096
-3.08366e-07
0.00016213
-3.05938e-07
0.000162162
-3.03302e-07
0.000162193
-3.00526e-07
0.000162224
-2.9766e-07
0.000162253
-2.94738e-07
0.000162281
-2.91786e-07
0.000162308
-2.88821e-07
0.000162335
-2.85855e-07
0.00016236
-2.82896e-07
0.000162384
-2.7995e-07
0.000162408
-2.77019e-07
0.00016243
-2.74106e-07
0.000162452
-2.7121e-07
0.000162473
-2.68334e-07
0.000162492
-2.65478e-07
0.000162511
-2.62645e-07
0.000162529
-2.59848e-07
-2.57083e-07
0.000162547
0.000166174
-6.96581e-08
0.000166223
-1.84584e-07
0.000166276
-2.4776e-07
0.000166326
-2.84597e-07
0.000166374
-3.11058e-07
0.000166421
-3.29286e-07
0.000166465
-3.4022e-07
0.000166506
-3.46215e-07
0.000166546
-3.49164e-07
0.000166583
-3.50031e-07
0.000166619
-3.49365e-07
0.000166654
-3.47603e-07
0.000166687
-3.45089e-07
0.000166718
-3.42058e-07
0.000166748
-3.38669e-07
0.000166777
-3.35037e-07
0.000166805
-3.31245e-07
0.000166832
-3.27354e-07
0.000166858
-3.23406e-07
0.000166883
-3.19431e-07
0.000166906
-3.15451e-07
0.000166929