/*--------------------------------*- C++ -*----------------------------------*\
| =========                 |                                                 |
| \\      /  F ield         | OpenFOAM: The Open Source CFD Toolbox           |
|  \\    /   O peration     | Version:  4.1                                   |
|   \\  /    A nd           | Web:      www.OpenFOAM.org                      |
|    \\/     M anipulation  |                                                 |
\*---------------------------------------------------------------------------*/
FoamFile
{
    version     2.0;
    format      ascii;
    class       volVectorField;
    location    "2000";
    object      U;
}
// * * * * * * * * * * * * * * * * * * * * * * * * * * * * * * * * * * * * * //

dimensions      [0 1 -1 0 0 0 0];

internalField   nonuniform List<vector> 
6820
(
(7.2813 0.0192603 0)
(7.18936 0.0329224 0)
(7.0895 0.0360689 0)
(6.98491 0.0374729 0)
(6.88226 0.0387345 0)
(6.7831 0.0397556 0)
(6.68718 0.0405158 0)
(6.59472 0.0410297 0)
(6.50618 0.0412713 0)
(6.42176 0.0412187 0)
(6.34144 0.0408782 0)
(6.26513 0.040277 0)
(6.19273 0.0394507 0)
(6.12412 0.0384369 0)
(6.05912 0.037272 0)
(5.99759 0.0359901 0)
(5.93935 0.0346214 0)
(5.88424 0.0331921 0)
(5.8321 0.0317243 0)
(5.78279 0.0302364 0)
(5.73617 0.0287434 0)
(5.6921 0.0272573 0)
(5.65046 0.0257874 0)
(5.61112 0.0243411 0)
(5.57398 0.0229237 0)
(5.53892 0.0215394 0)
(5.50586 0.0201903 0)
(5.47471 0.0188808 0)
(5.44534 0.0176025 0)
(5.41784 0.0163863 0)
(5.39149 0.0151661 0)
(5.36902 0.0139094 0)
(5.34248 0.0139863 0)
(7.35129 0.0206776 0)
(7.39587 0.0322614 0)
(7.42787 0.0326356 0)
(7.44987 0.0332017 0)
(7.46739 0.0343599 0)
(7.48119 0.0351445 0)
(7.49064 0.0355189 0)
(7.49593 0.0356542 0)
(7.49763 0.0356103 0)
(7.49622 0.0354081 0)
(7.49207 0.0350811 0)
(7.48557 0.0346672 0)
(7.47707 0.0341959 0)
(7.46691 0.0336874 0)
(7.45537 0.0331559 0)
(7.44272 0.0326109 0)
(7.42918 0.032059 0)
(7.41493 0.0315041 0)
(7.40014 0.0309485 0)
(7.38495 0.0303934 0)
(7.36949 0.029839 0)
(7.35385 0.0292853 0)
(7.33812 0.0287319 0)
(7.32238 0.0281782 0)
(7.30668 0.0276234 0)
(7.29109 0.027067 0)
(7.27564 0.026507 0)
(7.26038 0.0259468 0)
(7.24534 0.0253691 0)
(7.23055 0.0248329 0)
(7.21607 0.0241267 0)
(7.20165 0.0238767 0)
(7.18869 0.0219942 0)
(7.33498 0.0124972 0)
(7.34477 0.0201473 0)
(7.35181 0.0214421 0)
(7.35496 0.0233119 0)
(7.35732 0.0252257 0)
(7.35979 0.0263816 0)
(7.362 0.0270188 0)
(7.36384 0.0274552 0)
(7.36547 0.0277918 0)
(7.36696 0.0280465 0)
(7.36826 0.0282374 0)
(7.36935 0.0283826 0)
(7.37019 0.0284909 0)
(7.37079 0.0285642 0)
(7.37113 0.0286024 0)
(7.3712 0.0286055 0)
(7.371 0.0285735 0)
(7.37054 0.0285065 0)
(7.36981 0.0284051 0)
(7.36883 0.0282699 0)
(7.36761 0.028102 0)
(7.36615 0.0279026 0)
(7.36447 0.027673 0)
(7.36258 0.0274145 0)
(7.3605 0.0271284 0)
(7.35825 0.0268157 0)
(7.35584 0.0264773 0)
(7.35328 0.0261146 0)
(7.3506 0.025726 0)
(7.34781 0.0253139 0)
(7.34491 0.0248765 0)
(7.34192 0.0243613 0)
(7.33896 0.0239279 0)
(7.3347 0.00985765 0)
(7.34304 0.0202391 0)
(7.35045 0.0247379 0)
(7.35468 0.0280675 0)
(7.35778 0.0307885 0)
(7.36077 0.0326924 0)
(7.36343 0.0340309 0)
(7.36564 0.0350516 0)
(7.36756 0.0358228 0)
(7.3693 0.0363545 0)
(7.37087 0.0366706 0)
(7.37229 0.0368044 0)
(7.37357 0.0367864 0)
(7.37473 0.0366419 0)
(7.37579 0.0363934 0)
(7.37676 0.0360611 0)
(7.37765 0.0356621 0)
(7.37846 0.0352109 0)
(7.3792 0.0347191 0)
(7.37987 0.0341961 0)
(7.38048 0.0336495 0)
(7.38103 0.033085 0)
(7.38153 0.032507 0)
(7.38198 0.0319187 0)
(7.38238 0.0313222 0)
(7.38275 0.0307189 0)
(7.38308 0.0301091 0)
(7.38337 0.0294939 0)
(7.38365 0.0288694 0)
(7.3839 0.0282419 0)
(7.38415 0.0275929 0)
(7.38437 0.0269498 0)
(7.3846 0.0263102 0)
(7.33417 0.00784833 0)
(7.3405 0.0172866 0)
(7.34711 0.021246 0)
(7.35171 0.0237419 0)
(7.35548 0.0258496 0)
(7.3592 0.0273803 0)
(7.36268 0.0284139 0)
(7.3658 0.0291468 0)
(7.36865 0.0296698 0)
(7.37132 0.0300166 0)
(7.37384 0.0302221 0)
(7.37621 0.0303222 0)
(7.37843 0.0303439 0)
(7.38054 0.0303055 0)
(7.38254 0.0302199 0)
(7.38444 0.0300967 0)
(7.38624 0.0299426 0)
(7.38796 0.0297624 0)
(7.38961 0.0295591 0)
(7.39118 0.0293346 0)
(7.3927 0.0290902 0)
(7.39415 0.0288266 0)
(7.39555 0.028544 0)
(7.39691 0.0282424 0)
(7.39822 0.0279214 0)
(7.39951 0.0275803 0)
(7.40076 0.0272183 0)
(7.40198 0.0268345 0)
(7.40319 0.0264266 0)
(7.40439 0.0259947 0)
(7.40558 0.025535 0)
(7.40676 0.0250511 0)
(7.40797 0.0245553 0)
(7.33381 0.00630818 0)
(7.33861 0.0150537 0)
(7.34442 0.0196755 0)
(7.34904 0.0229117 0)
(7.35294 0.0256593 0)
(7.35675 0.0277509 0)
(7.36037 0.029258 0)
(7.36368 0.0303936 0)
(7.36676 0.0312701 0)
(7.36969 0.0319277 0)
(7.37246 0.0323985 0)
(7.3751 0.0327144 0)
(7.37761 0.0329007 0)
(7.38001 0.032976 0)
(7.3823 0.0329561 0)
(7.38451 0.0328543 0)
(7.38662 0.0326824 0)
(7.38866 0.0324505 0)
(7.39063 0.0321668 0)
(7.39253 0.0318385 0)
(7.39438 0.0314715 0)
(7.39618 0.0310708 0)
(7.39793 0.03064 0)
(7.39964 0.0301823 0)
(7.40131 0.0296999 0)
(7.40295 0.0291943 0)
(7.40457 0.028666 0)
(7.40616 0.0281155 0)
(7.40774 0.0275418 0)
(7.4093 0.0269444 0)
(7.41086 0.0263215 0)
(7.41242 0.0256709 0)
(7.414 0.0250018 0)
(7.33356 0.00519295 0)
(7.33722 0.013153 0)
(7.34215 0.0178517 0)
(7.34647 0.0210123 0)
(7.35023 0.023506 0)
(7.3539 0.0253483 0)
(7.35745 0.0266385 0)
(7.36077 0.0275703 0)
(7.36389 0.028252 0)
(7.36687 0.0287269 0)
(7.36972 0.0290301 0)
(7.37245 0.0291967 0)
(7.37506 0.0292552 0)
(7.37757 0.029227 0)
(7.37999 0.0291288 0)
(7.38233 0.0289742 0)
(7.38459 0.028774 0)
(7.38678 0.0285363 0)
(7.3889 0.0282674 0)
(7.39096 0.0279718 0)
(7.39298 0.0276528 0)
(7.39494 0.0273126 0)
(7.39686 0.0269524 0)
(7.39874 0.0265729 0)
(7.40059 0.0261741 0)
(7.4024 0.0257554 0)
(7.40419 0.0253156 0)
(7.40596 0.0248534 0)
(7.40771 0.0243663 0)
(7.40944 0.0238518 0)
(7.41117 0.0233069 0)
(7.41289 0.0227252 0)
(7.41462 0.0221076 0)
(7.33341 0.00435414 0)
(7.33622 0.0115132 0)
(7.34039 0.0161814 0)
(7.34439 0.0194343 0)
(7.34802 0.0220417 0)
(7.35158 0.024078 0)
(7.35506 0.0256024 0)
(7.35836 0.0267625 0)
(7.36149 0.0276576 0)
(7.36449 0.0283344 0)
(7.36737 0.0288285 0)
(7.37013 0.0291732 0)
(7.37279 0.029395 0)
(7.37535 0.0295134 0)
(7.37782 0.0295438 0)
(7.38021 0.0294988 0)
(7.38252 0.0293885 0)
(7.38477 0.0292212 0)
(7.38695 0.0290037 0)
(7.38907 0.0287414 0)
(7.39114 0.0284388 0)
(7.39316 0.0280994 0)
(7.39514 0.0277259 0)
(7.39708 0.0273204 0)
(7.39898 0.0268841 0)
(7.40085 0.0264179 0)
(7.4027 0.0259217 0)
(7.40452 0.025395 0)
(7.40632 0.0248365 0)
(7.40811 0.024244 0)
(7.40988 0.0236148 0)
(7.41164 0.0229428 0)
(7.4134 0.0222261 0)
(7.3333 0.00371128 0)
(7.3355 0.0101276 0)
(7.33902 0.0146563 0)
(7.34267 0.0178948 0)
(7.34609 0.0204493 0)
(7.34946 0.022431 0)
(7.3528 0.0238991 0)
(7.356 0.0249868 0)
(7.35906 0.0257972 0)
(7.36201 0.0263846 0)
(7.36486 0.0267875 0)
(7.3676 0.0270406 0)
(7.37025 0.0271719 0)
(7.37282 0.0272026 0)
(7.3753 0.0271499 0)
(7.3777 0.0270276 0)
(7.38004 0.0268472 0)
(7.38231 0.0266177 0)
(7.38452 0.0263463 0)
(7.38668 0.0260387 0)
(7.38878 0.0256991 0)
(7.39084 0.0253307 0)
(7.39286 0.0249358 0)
(7.39484 0.0245157 0)
(7.39678 0.0240709 0)
(7.3987 0.0236014 0)
(7.40058 0.0231065 0)
(7.40244 0.0225846 0)
(7.40428 0.0220337 0)
(7.40609 0.0214507 0)
(7.40789 0.020832 0)
(7.40968 0.0201708 0)
(7.41145 0.0194642 0)
(7.33324 0.00320675 0)
(7.33498 0.00894629 0)
(7.33796 0.0132556 0)
(7.34125 0.0164316 0)
(7.34446 0.0189418 0)
(7.34766 0.0209247 0)
(7.35085 0.0224409 0)
(7.35396 0.0235994 0)
(7.35696 0.0244912 0)
(7.35986 0.0251674 0)
(7.36268 0.0256639 0)
(7.36541 0.0260121 0)
(7.36805 0.0262382 0)
(7.37061 0.0263619 0)
(7.37309 0.0263989 0)
(7.3755 0.0263619 0)
(7.37785 0.0262611 0)
(7.38013 0.0261047 0)
(7.38235 0.0258989 0)
(7.38452 0.0256491 0)
(7.38663 0.025359 0)
(7.3887 0.0250317 0)
(7.39073 0.0246695 0)
(7.39272 0.0242737 0)
(7.39467 0.0238453 0)
(7.39659 0.0233844 0)
(7.39847 0.0228906 0)
(7.40033 0.0223629 0)
(7.40216 0.0217998 0)
(7.40397 0.0211987 0)
(7.40576 0.0205564 0)
(7.40752 0.0198676 0)
(7.40926 0.0191305 0)
(7.33319 0.00280015 0)
(7.3346 0.0079332 0)
(7.33714 0.0119802 0)
(7.3401 0.0150543 0)
(7.34309 0.0174943 0)
(7.3461 0.0194359 0)
(7.34913 0.0209351 0)
(7.35211 0.0220794 0)
(7.35502 0.0229505 0)
(7.35784 0.0236004 0)
(7.3606 0.0240659 0)
(7.36327 0.0243788 0)
(7.36587 0.0245656 0)
(7.3684 0.0246469 0)
(7.37085 0.024639 0)
(7.37324 0.0245555 0)
(7.37557 0.0244073 0)
(7.37784 0.0242032 0)
(7.38005 0.0239504 0)
(7.38221 0.0236546 0)
(7.38432 0.0233202 0)
(7.38638 0.0229507 0)
(7.38841 0.0225485 0)
(7.39039 0.0221154 0)
(7.39234 0.0216522 0)
(7.39425 0.0211593 0)
(7.39613 0.0206362 0)
(7.39798 0.020082 0)
(7.39981 0.019495 0)
(7.4016 0.0188729 0)
(7.40337 0.0182127 0)
(7.40511 0.0175098 0)
(7.40682 0.0167629 0)
(7.33316 0.00246422 0)
(7.33432 0.00705671 0)
(7.3365 0.0108181 0)
(7.33915 0.0137565 0)
(7.34192 0.0161062 0)
(7.34475 0.017992 0)
(7.34762 0.0194698 0)
(7.35048 0.0206131 0)
(7.35329 0.0214948 0)
(7.35604 0.0221649 0)
(7.35873 0.0226586 0)
(7.36136 0.0230058 0)
(7.36392 0.0232309 0)
(7.36642 0.0233536 0)
(7.36885 0.0233891 0)
(7.37122 0.02335 0)
(7.37353 0.0232464 0)
(7.37579 0.0230864 0)
(7.37799 0.0228765 0)
(7.38014 0.0226218 0)
(7.38224 0.0223263 0)
(7.3843 0.0219928 0)
(7.38631 0.0216236 0)
(7.38828 0.0212201 0)
(7.39022 0.020783 0)
(7.39212 0.0203125 0)
(7.39398 0.0198084 0)
(7.39582 0.0192697 0)
(7.39762 0.0186951 0)
(7.39938 0.0180826 0)
(7.40112 0.0174301 0)
(7.40282 0.0167339 0)
(7.40449 0.0159942 0)
(7.33314 0.00218018 0)
(7.33411 0.00629035 0)
(7.33599 0.00975795 0)
(7.33838 0.0125363 0)
(7.34093 0.01478 0)
(7.34358 0.016595 0)
(7.3463 0.0180335 0)
(7.34904 0.0191555 0)
(7.35174 0.0200229 0)
(7.3544 0.0206817 0)
(7.35702 0.0211653 0)
(7.35959 0.0215017 0)
(7.36209 0.0217143 0)
(7.36454 0.0218223 0)
(7.36693 0.0218408 0)
(7.36926 0.0217823 0)
(7.37154 0.0216571 0)
(7.37377 0.0214733 0)
(7.37594 0.0212379 0)
(7.37807 0.0209561 0)
(7.38015 0.0206321 0)
(7.38218 0.0202694 0)
(7.38417 0.0198705 0)
(7.38612 0.0194369 0)
(7.38804 0.01897 0)
(7.38991 0.0184702 0)
(7.39175 0.0179375 0)
(7.39356 0.0173715 0)
(7.39533 0.0167712 0)
(7.39706 0.0161353 0)
(7.39877 0.0154623 0)
(7.40043 0.0147498 0)
(7.40206 0.0139985 0)
(7.33312 0.00193502 0)
(7.33395 0.00561289 0)
(7.33559 0.00878796 0)
(7.33773 0.0113892 0)
(7.3401 0.0135126 0)
(7.34258 0.0152434 0)
(7.34515 0.016629 0)
(7.34775 0.0177195 0)
(7.35035 0.0185679 0)
(7.35293 0.0192167 0)
(7.35547 0.0196975 0)
(7.35797 0.0200369 0)
(7.36043 0.020257 0)
(7.36283 0.0203758 0)
(7.36518 0.0204081 0)
(7.36748 0.0203656 0)
(7.36973 0.020258 0)
(7.37193 0.0200933 0)
(7.37408 0.0198776 0)
(7.37618 0.0196162 0)
(7.37824 0.0193128 0)
(7.38025 0.0189707 0)
(7.38222 0.018592 0)
(7.38415 0.0181782 0)
(7.38604 0.0177305 0)
(7.38789 0.0172493 0)
(7.38971 0.0167346 0)
(7.39148 0.0161861 0)
(7.39323 0.0156032 0)
(7.39493 0.0149847 0)
(7.39659 0.01433 0)
(7.39822 0.0136369 0)
(7.3998 0.0129073 0)
(7.33311 0.00171958 0)
(7.33382 0.00500727 0)
(7.33526 0.00789667 0)
(7.3372 0.0103097 0)
(7.33938 0.0123014 0)
(7.34171 0.013937 0)
(7.34413 0.0152581 0)
(7.34662 0.0163062 0)
(7.34911 0.0171259 0)
(7.3516 0.0177547 0)
(7.35407 0.0182217 0)
(7.3565 0.0185511 0)
(7.35889 0.0187632 0)
(7.36124 0.0188751 0)
(7.36355 0.0189004 0)
(7.36581 0.0188505 0)
(7.36802 0.0187346 0)
(7.37018 0.0185604 0)
(7.37229 0.018334 0)
(7.37436 0.0180605 0)
(7.37639 0.0177439 0)
(7.37837 0.0173872 0)
(7.38031 0.016993 0)
(7.38221 0.016563 0)
(7.38407 0.0160984 0)
(7.38589 0.0156002 0)
(7.38767 0.0150685 0)
(7.38941 0.0145037 0)
(7.39112 0.0139054 0)
(7.39278 0.0132733 0)
(7.3944 0.0126071 0)
(7.39599 0.0119061 0)
(7.39753 0.0111723 0)
(7.3331 0.00152724 0)
(7.33372 0.00445995 0)
(7.335 0.00707344 0)
(7.33676 0.00929178 0)
(7.33877 0.0111427 0)
(7.34095 0.0126738 0)
(7.34325 0.0139201 0)
(7.34561 0.014916 0)
(7.34801 0.0156987 0)
(7.35041 0.0163011 0)
(7.35279 0.0167499 0)
(7.35516 0.0170672 0)
(7.3575 0.0172719 0)
(7.35979 0.01738 0)
(7.36205 0.0174044 0)
(7.36427 0.0173558 0)
(7.36644 0.0172432 0)
(7.36857 0.0170738 0)
(7.37065 0.0168536 0)
(7.37269 0.0165873 0)
(7.37468 0.0162788 0)
(7.37664 0.0159311 0)
(7.37855 0.0155466 0)
(7.38042 0.015127 0)
(7.38225 0.0146737 0)
(7.38404 0.0141874 0)
(7.38579 0.0136687 0)
(7.3875 0.0131178 0)
(7.38916 0.012535 0)
(7.39079 0.01192 0)
(7.39238 0.0112731 0)
(7.39392 0.0105937 0)
(7.39542 0.00988439 0)
(7.3331 0.00135314 0)
(7.33364 0.00396007 0)
(7.33479 0.00630861 0)
(7.33639 0.0083294 0)
(7.33826 0.0100326 0)
(7.3403 0.0114514 0)
(7.34247 0.0126141 0)
(7.34472 0.0135491 0)
(7.34702 0.0142871 0)
(7.34933 0.0148565 0)
(7.35164 0.015281 0)
(7.35394 0.0155805 0)
(7.35622 0.0157723 0)
(7.35846 0.0158706 0)
(7.36067 0.0158875 0)
(7.36284 0.015833 0)
(7.36497 0.0157153 0)
(7.36706 0.0155413 0)
(7.36911 0.0153165 0)
(7.37111 0.0150455 0)
(7.37307 0.0147321 0)
(7.37499 0.0143791 0)
(7.37687 0.0139891 0)
(7.3787 0.0135637 0)
(7.3805 0.0131044 0)
(7.38225 0.0126123 0)
(7.38396 0.0120881 0)
(7.38564 0.0115325 0)
(7.38726 0.0109458 0)
(7.38885 0.0103286 0)
(7.3904 0.00968127 0)
(7.39189 0.00900413 0)
(7.39335 0.00829996 0)
(7.33309 0.00119359 0)
(7.33358 0.00349893 0)
(7.33461 0.00559351 0)
(7.33608 0.00741629 0)
(7.33782 0.00896667 0)
(7.33973 0.0102667 0)
(7.34179 0.0113384 0)
(7.34394 0.0122047 0)
(7.34614 0.0128909 0)
(7.34837 0.0134211 0)
(7.35061 0.013816 0)
(7.35284 0.0140934 0)
(7.35506 0.0142687 0)
(7.35725 0.0143551 0)
(7.35941 0.0143635 0)
(7.36153 0.0143033 0)
(7.36362 0.0141821 0)
(7.36567 0.0140063 0)
(7.36768 0.0137814 0)
(7.36965 0.0135116 0)
(7.37158 0.0132005 0)
(7.37346 0.0128511 0)
(7.37531 0.0124656 0)
(7.37711 0.012046 0)
(7.37887 0.0115937 0)
(7.38059 0.0111099 0)
(7.38227 0.0105956 0)
(7.3839 0.0100515 0)
(7.3855 0.00947824 0)
(7.38705 0.0088766 0)
(7.38855 0.00824739 0)
(7.39001 0.00759099 0)
(7.39143 0.00691032 0)
(7.33309 0.00104572 0)
(7.33353 0.00306938 0)
(7.33447 0.00492038 0)
(7.33582 0.00654625 0)
(7.33744 0.00794036 0)
(7.33925 0.0091163 0)
(7.34119 0.0100906 0)
(7.34325 0.0108815 0)
(7.34536 0.0115095 0)
(7.34751 0.0119947 0)
(7.34968 0.012355 0)
(7.35185 0.0126059 0)
(7.35401 0.012761 0)
(7.35614 0.012832 0)
(7.35826 0.0128289 0)
(7.36034 0.0127601 0)
(7.36238 0.0126325 0)
(7.36439 0.0124522 0)
(7.36636 0.0122239 0)
(7.3683 0.0119517 0)
(7.37019 0.0116391 0)
(7.37204 0.0112888 0)
(7.37385 0.0109031 0)
(7.37561 0.0104837 0)
(7.37734 0.0100324 0)
(7.37902 0.0095502 0)
(7.38066 0.00903835 0)
(7.38226 0.00849778 0)
(7.38381 0.0079294 0)
(7.38532 0.00733413 0)
(7.38679 0.00671306 0)
(7.38821 0.00606692 0)
(7.38959 0.00539874 0)
(7.33308 0.000907225 0)
(7.33348 0.00266551 0)
(7.33435 0.00428225 0)
(7.3356 0.00571319 0)
(7.33712 0.00694873 0)
(7.33883 0.00799635 0)
(7.34068 0.0088679 0)
(7.34264 0.00957757 0)
(7.34468 0.0101417 0)
(7.34675 0.0105766 0)
(7.34885 0.0108976 0)
(7.35096 0.0111179 0)
(7.35306 0.0112494 0)
(7.35515 0.0113024 0)
(7.35721 0.0112856 0)
(7.35925 0.0112067 0)
(7.36125 0.0110719 0)
(7.36322 0.0108867 0)
(7.36516 0.0106556 0)
(7.36705 0.0103824 0)
(7.36891 0.0100703 0)
(7.37072 0.00972191 0)
(7.37249 0.00933951 0)
(7.37423 0.00892495 0)
(7.37592 0.0084798 0)
(7.37756 0.00800544 0)
(7.37917 0.00750306 0)
(7.38073 0.00697379 0)
(7.38225 0.00641871 0)
(7.38372 0.00583889 0)
(7.38515 0.00523559 0)
(7.38653 0.00460963 0)
(7.38787 0.00396399 0)
(7.33308 0.000776196 0)
(7.33345 0.00228226 0)
(7.33425 0.00367281 0)
(7.33542 0.00491115 0)
(7.33685 0.00598664 0)
(7.33847 0.00690254 0)
(7.34024 0.00766683 0)
(7.34212 0.00829018 0)
(7.34408 0.00878527 0)
(7.34608 0.00916531 0)
(7.34812 0.00944272 0)
(7.35017 0.00962874 0)
(7.35222 0.00973341 0)
(7.35425 0.00976557 0)
(7.35627 0.00973289 0)
(7.35826 0.00964199 0)
(7.36023 0.0094985 0)
(7.36216 0.00930723 0)
(7.36405 0.00907227 0)
(7.36591 0.00879708 0)
(7.36773 0.00848457 0)
(7.36951 0.00813722 0)
(7.37125 0.00775713 0)
(7.37294 0.0073461 0)
(7.3746 0.00690571 0)
(7.37621 0.00643733 0)
(7.37778 0.00594223 0)
(7.3793 0.00542161 0)
(7.38078 0.00487664 0)
(7.38222 0.00430851 0)
(7.38361 0.00371855 0)
(7.38496 0.00310775 0)
(7.38626 0.00247904 0)
(7.33308 0.000650971 0)
(7.33342 0.00191516 0)
(7.33417 0.00308619 0)
(7.33527 0.0041342 0)
(7.33663 0.00504874 0)
(7.33817 0.00583025 0)
(7.33986 0.0064836 0)
(7.34167 0.00701639 0)
(7.34356 0.00743818 0)
(7.3455 0.0077592 0)
(7.34748 0.00798936 0)
(7.34947 0.00813781 0)
(7.35147 0.00821284 0)
(7.35346 0.00822186 0)
(7.35543 0.00817139 0)
(7.35738 0.00806708 0)
(7.3593 0.00791386 0)
(7.3612 0.00771594 0)
(7.36305 0.00747696 0)
(7.36488 0.00720003 0)
(7.36666 0.00688784 0)
(7.3684 0.00654269 0)
(7.37011 0.00616657 0)
(7.37177 0.00576125 0)
(7.37339 0.00532827 0)
(7.37496 0.00486906 0)
(7.3765 0.00438494 0)
(7.37799 0.00387716 0)
(7.37943 0.00334698 0)
(7.38084 0.00279563 0)
(7.38219 0.00222451 0)
(7.3835 0.00163463 0)
(7.38477 0.00102876 0)
(7.33308 0.000530047 0)
(7.3334 0.00156014 0)
(7.3341 0.00251682 0)
(7.33515 0.00337635 0)
(7.33644 0.00412922 0)
(7.33792 0.00477406 0)
(7.33955 0.00531328 0)
(7.34129 0.00575185 0)
(7.34312 0.00609654 0)
(7.34501 0.00635492 0)
(7.34693 0.0065345 0)
(7.34887 0.00664242 0)
(7.35082 0.00668527 0)
(7.35277 0.00666902 0)
(7.3547 0.00659901 0)
(7.35661 0.00647992 0)
(7.35849 0.0063159 0)
(7.36034 0.00611053 0)
(7.36216 0.00586693 0)
(7.36395 0.00558784 0)
(7.3657 0.00527563 0)
(7.36741 0.00493236 0)
(7.36908 0.00455987 0)
(7.3707 0.0041598 0)
(7.37229 0.00373363 0)
(7.37383 0.00328273 0)
(7.37533 0.00280841 0)
(7.37679 0.00231193 0)
(7.3782 0.00179454 0)
(7.37957 0.00125749 0)
(7.38089 0.000702172 0)
(7.38217 0.000129648 0)
(7.3834 -0.000457385 0)
(7.33307 0.000411931 0)
(7.33338 0.00121326 0)
(7.33405 0.00195928 0)
(7.33506 0.00263176 0)
(7.3363 0.00322251 0)
(7.33772 0.00372901 0)
(7.33929 0.0041517 0)
(7.34098 0.00449325 0)
(7.34276 0.00475793 0)
(7.3446 0.00495083 0)
(7.34647 0.00507723 0)
(7.34837 0.00514231 0)
(7.35027 0.00515099 0)
(7.35217 0.00510784 0)
(7.35406 0.00501702 0)
(7.35593 0.00488227 0)
(7.35778 0.00470695 0)
(7.3596 0.00449402 0)
(7.36138 0.00424614 0)
(7.36313 0.00396563 0)
(7.36485 0.00365459 0)
(7.36652 0.00331485 0)
(7.36815 0.0029481 0)
(7.36975 0.00255586 0)
(7.3713 0.00213954 0)
(7.37281 0.00170047 0)
(7.37427 0.00123993 0)
(7.3757 0.000759151 0)
(7.37707 0.000259381 0)
(7.37841 -0.000258147 0)
(7.3797 -0.000792101 0)
(7.38094 -0.00134149 0)
(7.38215 -0.00190384 0)
(7.33307 0.000295096 0)
(7.33337 0.000870319 0)
(7.33402 0.00140738 0)
(7.33499 0.00189306 0)
(7.33619 0.00232071 0)
(7.33757 0.00268713 0)
(7.3391 0.0029911 0)
(7.34074 0.00323318 0)
(7.34248 0.00341537 0)
(7.34427 0.00354044 0)
(7.3461 0.00361151 0)
(7.34795 0.00363185 0)
(7.34982 0.0036047 0)
(7.35168 0.00353322 0)
(7.35353 0.00342034 0)
(7.35537 0.00326882 0)
(7.35718 0.00308116 0)
(7.35896 0.00285965 0)
(7.36071 0.0026064 0)
(7.36243 0.00232328 0)
(7.36411 0.00201204 0)
(7.36575 0.00167425 0)
(7.36735 0.00131138 0)
(7.36891 0.000924791 0)
(7.37043 0.000515784 0)
(7.37191 8.55954e-05 0)
(7.37334 -0.000364564 0)
(7.37473 -0.000833504 0)
(7.37608 -0.00132002 0)
(7.37738 -0.00182292 0)
(7.37864 -0.0023409 0)
(7.37985 -0.00287292 0)
(7.38103 -0.0034166 0)
(7.33307 0.000178579 0)
(7.33336 0.000528848 0)
(7.33399 0.000857776 0)
(7.33494 0.00115671 0)
(7.33611 0.00142062 0)
(7.33746 0.00164584 0)
(7.33896 0.00182964 0)
(7.34057 0.00197064 0)
(7.34226 0.00206868 0)
(7.34402 0.00212432 0)
(7.34581 0.00213863 0)
(7.34763 0.00211302 0)
(7.34946 0.00204917 0)
(7.35129 0.00194887 0)
(7.35311 0.00181393 0)
(7.35491 0.00164616 0)
(7.35668 0.0014473 0)
(7.35843 0.001219 0)
(7.36015 0.000962845 0)
(7.36183 0.000680307 0)
(7.36348 0.000372776 0)
(7.36509 4.15598e-05 0)
(7.36666 -0.000312095 0)
(7.36819 -0.000687004 0)
(7.36967 -0.00108202 0)
(7.37111 -0.00149602 0)
(7.37252 -0.0019279 0)
(7.37387 -0.00237657 0)
(7.37519 -0.00284091 0)
(7.37646 -0.00331984 0)
(7.37769 -0.00381216 0)
(7.37887 -0.00431706 0)
(7.38001 -0.00483243 0)
(7.33307 6.10553e-05 0)
(7.33336 0.000184332 0)
(7.33398 0.000303188 0)
(7.33491 0.000413617 0)
(7.33607 0.000512218 0)
(7.3374 0.0005948 0)
(7.33887 0.000657119 0)
(7.34045 0.000695863 0)
(7.34212 0.00070869 0)
(7.34385 0.000693937 0)
(7.34561 0.00065053 0)
(7.3474 0.000577962 0)
(7.3492 0.000476199 0)
(7.351 0.000345566 0)
(7.35279 0.000186641 0)
(7.35455 1.86442e-07 0)
(7.3563 -0.000212905 0)
(7.35802 -0.000451661 0)
(7.35971 -0.000715068 0)
(7.36136 -0.00100209 0)
(7.36298 -0.00131168 0)
(7.36456 -0.0016428 0)
(7.3661 -0.00199442 0)
(7.36759 -0.00236551 0)
(7.36905 -0.00275506 0)
(7.37047 -0.00316205 0)
(7.37184 -0.00358545 0)
(7.37317 -0.00402421 0)
(7.37445 -0.0044773 0)
(7.3757 -0.00494364 0)
(7.3769 -0.00542208 0)
(7.37805 -0.00591167 0)
(7.37917 -0.00641034 0)
(7.33307 -5.89524e-05 0)
(7.33336 -0.000168029 0)
(7.33398 -0.000263951 0)
(7.33491 -0.000345529 0)
(7.33606 -0.000414625 0)
(7.33738 -0.000476288 0)
(7.33884 -0.000536543 0)
(7.34041 -0.000600764 0)
(7.34206 -0.00067349 0)
(7.34377 -0.000758563 0)
(7.34551 -0.000859061 0)
(7.34728 -0.000977246 0)
(7.34905 -0.00111466 0)
(7.35082 -0.0012723 0)
(7.35258 -0.0014507 0)
(7.35432 -0.00165006 0)
(7.35603 -0.0018703 0)
(7.35772 -0.00211114 0)
(7.35938 -0.00237215 0)
(7.361 -0.00265278 0)
(7.36259 -0.00295241 0)
(7.36414 -0.00327036 0)
(7.36564 -0.00360589 0)
(7.36711 -0.00395824 0)
(7.36854 -0.00432661 0)
(7.36992 -0.00471018 0)
(7.37126 -0.00510809 0)
(7.37256 -0.00551947 0)
(7.37381 -0.00594343 0)
(7.37502 -0.00637909 0)
(7.37619 -0.0068255 0)
(7.37732 -0.00728206 0)
(7.37841 -0.00774705 0)
(7.33307 -0.000183184 0)
(7.33336 -0.000532774 0)
(7.33399 -0.000850016 0)
(7.33494 -0.00112781 0)
(7.3361 -0.00136681 0)
(7.33743 -0.0015736 0)
(7.33889 -0.00175651 0)
(7.34046 -0.00192337 0)
(7.3421 -0.00208141 0)
(7.3438 -0.00223718 0)
(7.34553 -0.00239624 0)
(7.34728 -0.00256297 0)
(7.34903 -0.00274066 0)
(7.35078 -0.00293175 0)
(7.35252 -0.00313793 0)
(7.35424 -0.00336033 0)
(7.35593 -0.00359958 0)
(7.35759 -0.00385596 0)
(7.35923 -0.0041295 0)
(7.36083 -0.00441999 0)
(7.36239 -0.00472708 0)
(7.36391 -0.00505028 0)
(7.36539 -0.00538904 0)
(7.36683 -0.00574271 0)
(7.36823 -0.0061106 0)
(7.36959 -0.00649196 0)
(7.37091 -0.00688603 0)
(7.37218 -0.00729197 0)
(7.37341 -0.00770897 0)
(7.3746 -0.00813613 0)
(7.37574 -0.00857252 0)
(7.37684 -0.00901729 0)
(7.3779 -0.00946872 0)
(7.33307 -0.000314673 0)
(7.33338 -0.000918321 0)
(7.33403 -0.0014673 0)
(7.33501 -0.00194764 0)
(7.3362 -0.00235957 0)
(7.33755 -0.00271251 0)
(7.33903 -0.0030176 0)
(7.3406 -0.00328503 0)
(7.34225 -0.00352433 0)
(7.34395 -0.00374445 0)
(7.34567 -0.00395314 0)
(7.3474 -0.00415671 0)
(7.34914 -0.00436019 0)
(7.35087 -0.00456754 0)
(7.35259 -0.00478182 0)
(7.35428 -0.00500529 0)
(7.35595 -0.00523958 0)
(7.35759 -0.00548582 0)
(7.35919 -0.00574473 0)
(7.36076 -0.00601669 0)
(7.36229 -0.00630185 0)
(7.36378 -0.00660015 0)
(7.36524 -0.00691139 0)
(7.36665 -0.00723523 0)
(7.36802 -0.00757124 0)
(7.36935 -0.0079189 0)
(7.37063 -0.00827766 0)
(7.37187 -0.0086469 0)
(7.37307 -0.00902598 0)
(7.37423 -0.00941425 0)
(7.37535 -0.00981104 0)
(7.37643 -0.010216 0)
(7.37747 -0.0106277 0)
(7.33308 -0.000457281 0)
(7.3334 -0.00133516 0)
(7.3341 -0.00213037 0)
(7.33512 -0.0028207 0)
(7.33636 -0.00340779 0)
(7.33776 -0.00390664 0)
(7.33927 -0.00433349 0)
(7.34087 -0.00470281 0)
(7.34254 -0.00502821 0)
(7.34425 -0.00532211 0)
(7.34598 -0.00559482 0)
(7.34772 -0.00585443 0)
(7.34945 -0.00610728 0)
(7.35118 -0.00635831 0)
(7.35288 -0.00661131 0)
(7.35456 -0.00686908 0)
(7.35622 -0.00713368 0)
(7.35784 -0.00740656 0)
(7.35943 -0.00768872 0)
(7.36098 -0.00798076 0)
(7.36249 -0.00828303 0)
(7.36396 -0.00859564 0)
(7.3654 -0.00891849 0)
(7.36679 -0.0092514 0)
(7.36814 -0.00959401 0)
(7.36944 -0.00994594 0)
(7.3707 -0.0103067 0)
(7.37192 -0.0106757 0)
(7.3731 -0.0110524 0)
(7.37424 -0.0114362 0)
(7.37533 -0.0118263 0)
(7.37638 -0.0122221 0)
(7.37739 -0.0126222 0)
(7.33308 -0.000616465 0)
(7.33344 -0.00179813 0)
(7.3342 -0.00285957 0)
(7.33531 -0.00376929 0)
(7.33662 -0.00453343 0)
(7.33808 -0.00517389 0)
(7.33964 -0.00571059 0)
(7.34128 -0.00616094 0)
(7.34298 -0.00654273 0)
(7.3447 -0.00687296 0)
(7.34643 -0.00716582 0)
(7.34816 -0.0074325 0)
(7.34989 -0.00768192 0)
(7.3516 -0.00792118 0)
(7.35329 -0.00815577 0)
(7.35495 -0.00838982 0)
(7.35658 -0.00862642 0)
(7.35818 -0.00886783 0)
(7.35974 -0.00911568 0)
(7.36126 -0.00937107 0)
(7.36275 -0.00963475 0)
(7.36419 -0.00990713 0)
(7.3656 -0.0101884 0)
(7.36696 -0.0104786 0)
(7.36828 -0.0107777 0)
(7.36955 -0.0110853 0)
(7.37079 -0.0114011 0)
(7.37198 -0.0117249 0)
(7.37313 -0.0120561 0)
(7.37424 -0.0123944 0)
(7.37531 -0.0127393 0)
(7.37634 -0.0130906 0)
(7.37733 -0.0134473 0)
(7.33308 -0.000800631 0)
(7.3335 -0.00232919 0)
(7.33436 -0.00368162 0)
(7.33559 -0.00481838 0)
(7.33701 -0.00576324 0)
(7.33856 -0.00655667 0)
(7.34021 -0.00722725 0)
(7.34192 -0.00779618 0)
(7.34367 -0.00828434 0)
(7.34544 -0.00871095 0)
(7.3472 -0.00909125 0)
(7.34896 -0.00943704 0)
(7.3507 -0.00975777 0)
(7.35241 -0.0100611 0)
(7.3541 -0.0103529 0)
(7.35576 -0.010638 0)
(7.35738 -0.0109197 0)
(7.35897 -0.0112007 0)
(7.36051 -0.0114831 0)
(7.36202 -0.0117684 0)
(7.36349 -0.0120574 0)
(7.36491 -0.012351 0)
(7.36629 -0.0126495 0)
(7.36763 -0.0129532 0)
(7.36892 -0.0132621 0)
(7.37018 -0.0135761 0)
(7.37138 -0.013895 0)
(7.37255 -0.0142186 0)
(7.37367 -0.0145467 0)
(7.37475 -0.0148787 0)
(7.37579 -0.0152143 0)
(7.37679 -0.015553 0)
(7.37774 -0.0158941 0)
(7.33309 -0.0010234 0)
(7.3336 -0.00296481 0)
(7.33462 -0.00464242 0)
(7.33601 -0.00600396 0)
(7.33757 -0.00709385 0)
(7.33921 -0.00797144 0)
(7.34093 -0.0086774 0)
(7.3427 -0.00924613 0)
(7.34449 -0.00971157 0)
(7.34627 -0.010102 0)
(7.34805 -0.0104379 0)
(7.34981 -0.0107345 0)
(7.35154 -0.0110035 0)
(7.35325 -0.0112541 0)
(7.35492 -0.011493 0)
(7.35655 -0.0117251 0)
(7.35815 -0.0119542 0)
(7.35971 -0.012183 0)
(7.36123 -0.0124136 0)
(7.3627 -0.0126474 0)
(7.36414 -0.0128856 0)
(7.36553 -0.0131287 0)
(7.36688 -0.0133774 0)
(7.36818 -0.0136318 0)
(7.36944 -0.0138921 0)
(7.37066 -0.0141583 0)
(7.37183 -0.0144302 0)
(7.37296 -0.0147078 0)
(7.37405 -0.0149907 0)
(7.3751 -0.0152787 0)
(7.37611 -0.0155715 0)
(7.37708 -0.0158689 0)
(7.37801 -0.0161701 0)
(7.33311 -0.00130861 0)
(7.33375 -0.00375374 0)
(7.33503 -0.00579805 0)
(7.33669 -0.0074345 0)
(7.33847 -0.00877495 0)
(7.3403 -0.00988987 0)
(7.34218 -0.0108057 0)
(7.34406 -0.0115536 0)
(7.34593 -0.0121729 0)
(7.34777 -0.012696 0)
(7.34958 -0.0131455 0)
(7.35135 -0.0135387 0)
(7.35308 -0.0138899 0)
(7.35477 -0.0142103 0)
(7.35643 -0.0145085 0)
(7.35803 -0.0147908 0)
(7.3596 -0.0150622 0)
(7.36112 -0.0153261 0)
(7.3626 -0.0155853 0)
(7.36403 -0.0158418 0)
(7.36542 -0.0160971 0)
(7.36676 -0.0163521 0)
(7.36806 -0.0166076 0)
(7.36931 -0.0168641 0)
(7.37052 -0.0171218 0)
(7.37168 -0.0173809 0)
(7.3728 -0.0176416 0)
(7.37388 -0.0179038 0)
(7.37491 -0.0181675 0)
(7.3759 -0.0184327 0)
(7.37685 -0.0186993 0)
(7.37776 -0.0189674 0)
(7.37862 -0.0192368 0)
(7.33314 -0.00171312 0)
(7.33403 -0.00480964 0)
(7.33564 -0.00713652 0)
(7.33755 -0.00877117 0)
(7.33947 -0.00999814 0)
(7.3414 -0.0109693 0)
(7.34337 -0.0117332 0)
(7.34532 -0.0123346 0)
(7.34722 -0.0128225 0)
(7.34907 -0.0132313 0)
(7.35086 -0.0135818 0)
(7.35261 -0.0138884 0)
(7.35431 -0.014163 0)
(7.35595 -0.0144146 0)
(7.35754 -0.0146499 0)
(7.35908 -0.014874 0)
(7.36058 -0.0150908 0)
(7.36202 -0.0153032 0)
(7.36342 -0.0155136 0)
(7.36478 -0.0157238 0)
(7.36608 -0.015935 0)
(7.36734 -0.0161482 0)
(7.36856 -0.0163642 0)
(7.36973 -0.0165833 0)
(7.37086 -0.0168058 0)
(7.37194 -0.0170319 0)
(7.37298 -0.0172616 0)
(7.37398 -0.0174947 0)
(7.37494 -0.017731 0)
(7.37586 -0.0179703 0)
(7.37674 -0.0182123 0)
(7.37758 -0.0184564 0)
(7.37839 -0.018702 0)
(7.33321 -0.00230684 0)
(7.33467 -0.00642728 0)
(7.33707 -0.00951511 0)
(7.33954 -0.0117567 0)
(7.34173 -0.0134587 0)
(7.34378 -0.0147551 0)
(7.34577 -0.0157246 0)
(7.34767 -0.016459 0)
(7.34946 -0.017035 0)
(7.35115 -0.0175004 0)
(7.35277 -0.0178852 0)
(7.35432 -0.0182123 0)
(7.3558 -0.0184988 0)
(7.35722 -0.0187564 0)
(7.35859 -0.0189932 0)
(7.3599 -0.0192149 0)
(7.36116 -0.0194253 0)
(7.36237 -0.0196275 0)
(7.36353 -0.0198234 0)
(7.36464 -0.0200145 0)
(7.36571 -0.0202019 0)
(7.36673 -0.0203864 0)
(7.36771 -0.0205688 0)
(7.36864 -0.0207493 0)
(7.36954 -0.0209285 0)
(7.37039 -0.0211067 0)
(7.3712 -0.0212841 0)
(7.37197 -0.0214611 0)
(7.37271 -0.0216378 0)
(7.3734 -0.0218148 0)
(7.37406 -0.0219928 0)
(7.37468 -0.0221735 0)
(7.37526 -0.0223582 0)
(7.33323 -0.00330734 0)
(7.33508 -0.00748596 0)
(7.33785 -0.00963437 0)
(7.34039 -0.0111616 0)
(7.34248 -0.0124964 0)
(7.34435 -0.0135477 0)
(7.34606 -0.0143183 0)
(7.34756 -0.0149098 0)
(7.34888 -0.0153925 0)
(7.35005 -0.0157925 0)
(7.35112 -0.0161249 0)
(7.3521 -0.0164067 0)
(7.35301 -0.0166527 0)
(7.35385 -0.0168736 0)
(7.35463 -0.0170766 0)
(7.35537 -0.0172676 0)
(7.35607 -0.0174508 0)
(7.35673 -0.0176297 0)
(7.35736 -0.0178065 0)
(7.35796 -0.0179828 0)
(7.35853 -0.0181599 0)
(7.35907 -0.0183383 0)
(7.35958 -0.0185185 0)
(7.36006 -0.0187008 0)
(7.36052 -0.018885 0)
(7.36095 -0.019071 0)
(7.36136 -0.0192585 0)
(7.36174 -0.019447 0)
(7.3621 -0.0196357 0)
(7.36243 -0.0198233 0)
(7.36274 -0.0200082 0)
(7.36302 -0.020186 0)
(7.36326 -0.0203573 0)
(7.33597 -0.00734845 0)
(7.3463 -0.0150967 0)
(7.35617 -0.0177367 0)
(7.36436 -0.0188971 0)
(7.37191 -0.0197791 0)
(7.37926 -0.0203568 0)
(7.38624 -0.0206455 0)
(7.39271 -0.0207944 0)
(7.39874 -0.0209012 0)
(7.40441 -0.0209911 0)
(7.40977 -0.0210684 0)
(7.41483 -0.0211385 0)
(7.41962 -0.0212065 0)
(7.42416 -0.0212742 0)
(7.42845 -0.0213418 0)
(7.43253 -0.0214092 0)
(7.43639 -0.0214765 0)
(7.44005 -0.0215436 0)
(7.44353 -0.0216106 0)
(7.44681 -0.0216779 0)
(7.44993 -0.0217455 0)
(7.45287 -0.0218138 0)
(7.45565 -0.0218831 0)
(7.45828 -0.0219538 0)
(7.46076 -0.022026 0)
(7.4631 -0.0221003 0)
(7.46531 -0.022177 0)
(7.46739 -0.0222564 0)
(7.46934 -0.022339 0)
(7.47119 -0.0224251 0)
(7.47293 -0.0225149 0)
(7.47458 -0.0226093 0)
(7.47617 -0.0227065 0)
(7.32333 -0.00889149 0)
(7.30978 -0.0181851 0)
(7.29242 -0.022275 0)
(7.27081 -0.0243669 0)
(7.24822 -0.0257011 0)