/*--------------------------------*- C++ -*----------------------------------*\
| =========                 |                                                 |
| \\      /  F ield         | OpenFOAM: The Open Source CFD Toolbox           |
|  \\    /   O peration     | Version:  4.1                                   |
|   \\  /    A nd           | Web:      www.OpenFOAM.org                      |
|    \\/     M anipulation  |                                                 |
\*---------------------------------------------------------------------------*/
FoamFile
{
    version     2.0;
    format      ascii;
    class       volScalarField;
    location    "1000";
    object      p;
}
// * * * * * * * * * * * * * * * * * * * * * * * * * * * * * * * * * * * * * //

dimensions      [0 2 -2 0 0 0 0];

internalField   nonuniform List<scalar> 
6820
(
-6.51698
-6.74382
-6.82073
-6.83276
-6.85212
-6.87419
-6.89075
-6.9036
-6.91475
-6.92431
-6.93219
-6.93849
-6.94333
-6.94673
-6.94863
-6.94897
-6.94765
-6.94452
-6.93937
-6.93195
-6.92192
-6.90883
-6.89208
-6.87085
-6.84399
-6.8098
-6.76553
-6.70718
-6.62519
-6.51068
-6.30106
-6.04853
-4.99367
-6.58896
-6.72998
-6.79359
-6.81394
-6.83774
-6.86171
-6.87967
-6.89353
-6.90532
-6.91536
-6.92362
-6.93024
-6.93536
-6.93898
-6.94108
-6.94159
-6.9404
-6.93739
-6.93235
-6.92502
-6.91508
-6.9021
-6.88551
-6.86454
-6.83813
-6.80484
-6.76245
-6.70821
-6.63619
-6.5448
-6.41263
-6.28971
-6.20269
-6.64637
-6.7344
-6.79453
-6.81952
-6.84192
-6.86416
-6.88165
-6.89535
-6.907
-6.91694
-6.92517
-6.9318
-6.93694
-6.94061
-6.94278
-6.9434
-6.94235
-6.93952
-6.93471
-6.92768
-6.91814
-6.90569
-6.88981
-6.86986
-6.84493
-6.81391
-6.77519
-6.72713
-6.66688
-6.59632
-6.51179
-6.45951
-6.44543
-6.68512
-6.74351
-6.79772
-6.82411
-6.84498
-6.86583
-6.88297
-6.89656
-6.90807
-6.91792
-6.92612
-6.93275
-6.93792
-6.94165
-6.94392
-6.94467
-6.94381
-6.94121
-6.93671
-6.93009
-6.92109
-6.90936
-6.89448
-6.87592
-6.85301
-6.825
-6.79096
-6.7503
-6.70247
-6.651
-6.59898
-6.57539
-6.5849
-6.71627
-6.75609
-6.80198
-6.82823
-6.84813
-6.86773
-6.88441
-6.89783
-6.9092
-6.91896
-6.92713
-6.93379
-6.93903
-6.94288
-6.9453
-6.94625
-6.94565
-6.94339
-6.93933
-6.93328
-6.92501
-6.91425
-6.90069
-6.88393
-6.86356
-6.83919
-6.81052
-6.77778
-6.74187
-6.70687
-6.6781
-6.67401
-6.70323
-6.7424
-6.7699
-6.80766
-6.83293
-6.85196
-6.87027
-6.88632
-6.89951
-6.91071
-6.92036
-6.9285
-6.9352
-6.94053
-6.94451
-6.94713
-6.94834
-6.94808
-6.94625
-6.94273
-6.93737
-6.93002
-6.92045
-6.90846
-6.89383
-6.87636
-6.856
-6.83292
-6.80792
-6.78268
-6.76114
-6.74876
-6.75727
-6.79384
-6.76456
-6.78386
-6.81458
-6.8382
-6.85629
-6.87335
-6.88868
-6.90156
-6.91256
-6.92209
-6.9302
-6.93695
-6.94238
-6.94653
-6.94939
-6.95091
-6.95105
-6.94973
-6.94686
-6.94233
-6.93603
-6.92784
-6.91763
-6.90534
-6.89098
-6.87475
-6.85716
-6.83933
-6.8232
-6.81225
-6.81114
-6.82718
-6.86524
-6.78367
-6.79753
-6.8224
-6.84394
-6.861
-6.87689
-6.89145
-6.90396
-6.91475
-6.92414
-6.93223
-6.93903
-6.94459
-6.94894
-6.95207
-6.95396
-6.95456
-6.95383
-6.9517
-6.94811
-6.943
-6.9363
-6.92802
-6.9182
-6.90702
-6.89486
-6.88243
-6.87097
-6.86237
-6.85955
-6.8661
-6.88656
-6.92398
-6.80045
-6.81066
-6.83079
-6.85009
-6.86606
-6.88086
-6.89462
-6.90672
-6.91727
-6.92653
-6.93459
-6.94146
-6.94716
-6.95174
-6.95518
-6.95748
-6.9586
-6.95853
-6.95722
-6.95466
-6.95082
-6.94573
-6.93945
-6.93214
-6.92409
-6.9158
-6.90805
-6.90208
-6.89958
-6.90286
-6.91458
-6.93752
-6.97347
-6.81541
-6.82313
-6.83949
-6.85658
-6.87141
-6.8852
-6.89818
-6.90983
-6.92013
-6.92926
-6.93729
-6.94423
-6.9501
-6.95493
-6.95872
-6.96147
-6.96317
-6.96381
-6.96338
-6.96191
-6.95941
-6.95597
-6.95172
-6.94689
-6.94183
-6.9371
-6.93351
-6.93216
-6.93451
-6.94232
-6.95747
-6.98165
-7.01583
-6.82891
-6.83491
-6.84829
-6.86333
-6.87701
-6.88985
-6.90208
-6.91327
-6.92331
-6.93231
-6.94032
-6.94734
-6.9534
-6.95851
-6.96268
-6.96592
-6.96823
-6.96963
-6.97014
-6.9698
-6.96868
-6.9669
-6.96465
-6.96219
-6.95993
-6.95843
-6.95843
-6.96091
-6.96705
-6.97816
-6.99554
-7.0202
-7.05257
-6.84124
-6.84601
-6.85706
-6.87025
-6.88281
-6.89477
-6.90629
-6.91702
-6.9268
-6.93568
-6.94367
-6.9508
-6.95706
-6.96247
-6.96705
-6.97081
-6.97377
-6.97596
-6.97743
-6.97825
-6.97851
-6.97837
-6.97805
-6.97783
-6.97813
-6.97947
-6.98254
-6.98814
-6.99721
-7.0107
-7.02948
-7.05412
-7.08477
-6.85258
-6.85647
-6.8657
-6.87727
-6.88877
-6.89991
-6.91077
-6.92106
-6.93059
-6.93935
-6.94735
-6.95458
-6.96106
-6.9668
-6.97181
-6.97611
-6.97975
-6.98276
-6.98521
-6.98718
-6.98881
-6.99026
-6.99176
-6.99361
-6.99621
-7.00004
-7.00568
-7.01379
-7.0251
-7.04026
-7.05986
-7.08419
-7.11323
-6.8631
-6.86633
-6.87414
-6.88432
-6.89483
-6.90523
-6.91549
-6.92536
-6.93465
-6.94331
-6.95132
-6.95869
-6.9654
-6.97148
-6.97694
-6.98181
-6.98613
-6.98997
-6.99339
-6.99651
-6.99946
-7.00242
-7.00562
-7.00936
-7.014
-7.01996
-7.02774
-7.03785
-7.05083
-7.06715
-7.08717
-7.11101
-7.13858
-6.87289
-6.87563
-6.88233
-6.89134
-6.90096
-6.91068
-6.92039
-6.92989
-6.93896
-6.94753
-6.95558
-6.96309
-6.97005
-6.97648
-6.9824
-6.98785
-6.99287
-6.99753
-7.00192
-7.00615
-7.01036
-7.01474
-7.01951
-7.02494
-7.03136
-7.03914
-7.04866
-7.06034
-7.07456
-7.09165
-7.11181
-7.13507
-7.1613
-6.88205
-6.88441
-6.89024
-6.89827
-6.9071
-6.91621
-6.92545
-6.93461
-6.94349
-6.95199
-6.96009
-6.96776
-6.97499
-6.98179
-6.98818
-6.99421
-6.99993
-7.0054
-7.01072
-7.01601
-7.02142
-7.02711
-7.0333
-7.04023
-7.0482
-7.05749
-7.06843
-7.08132
-7.09645
-7.11401
-7.13412
-7.15676
-7.18176
-6.89064
-6.89271
-6.89784
-6.90508
-6.91323
-6.9218
-6.93062
-6.93948
-6.9482
-6.95667
-6.96483
-6.97268
-6.98018
-6.98736
-6.99423
-7.00084
-7.00724
-7.0135
-7.01972
-7.02602
-7.03254
-7.03943
-7.04689
-7.05515
-7.06442
-7.07498
-7.08705
-7.10087
-7.11663
-7.13446
-7.1544
-7.17639
-7.20028
-6.8987
-6.90054
-6.90513
-6.91171
-6.91928
-6.9274
-6.93586
-6.94447
-6.95306
-6.96152
-6.96977
-6.9778
-6.9856
-6.99315
-7.0005
-7.00768
-7.01475
-7.02178
-7.02886
-7.0361
-7.04363
-7.05161
-7.06021
-7.0696
-7.07999
-7.09158
-7.10455
-7.11906
-7.13525
-7.15318
-7.17287
-7.19422
-7.21711
-6.90625
-6.90792
-6.91209
-6.91814
-6.92524
-6.93296
-6.94113
-6.94955
-6.95804
-6.96651
-6.97487
-6.98311
-6.9912
-6.99914
-7.00696
-7.0147
-7.02241
-7.03017
-7.03805
-7.04616
-7.05463
-7.06358
-7.07317
-7.08354
-7.09487
-7.10729
-7.12096
-7.13598
-7.15244
-7.17036
-7.18973
-7.21046
-7.23243
-6.91332
-6.91486
-6.9187
-6.92433
-6.93104
-6.93845
-6.94638
-6.95465
-6.96309
-6.9716
-6.98009
-6.98855
-6.99694
-7.00527
-7.01356
-7.02184
-7.03017
-7.03861
-7.04724
-7.05615
-7.06546
-7.07528
-7.08573
-7.09693
-7.10903
-7.12212
-7.13632
-7.1517
-7.1683
-7.18614
-7.20517
-7.2253
-7.24643
-6.91992
-6.92135
-6.92494
-6.93025
-6.93666
-6.94383
-6.95158
-6.95975
-6.96817
-6.97675
-6.9854
-6.99408
-7.00278
-7.01149
-7.02024
-7.02904
-7.03795
-7.04704
-7.05636
-7.066
-7.07606
-7.08664
-7.09783
-7.10974
-7.12246
-7.13609
-7.15068
-7.1663
-7.18296
-7.20064
-7.21931
-7.23887
-7.25924
-6.92603
-6.92739
-6.93079
-6.93586
-6.94204
-6.94904
-6.95667
-6.96479
-6.97324
-6.98191
-6.99073
-6.99966
-7.00867
-7.01776
-7.02695
-7.03625
-7.04572
-7.0554
-7.06535
-7.07566
-7.08638
-7.09762
-7.10944
-7.12193
-7.13517
-7.14921
-7.16409
-7.17985
-7.19649
-7.21399
-7.23228
-7.25131
-7.27098
-6.93164
-6.93295
-6.93622
-6.94113
-6.94716
-6.95404
-6.96162
-6.96973
-6.97824
-6.98704
-6.99605
-7.00524
-7.01457
-7.02403
-7.03365
-7.04343
-7.05341
-7.06364
-7.07417
-7.08506
-7.09637
-7.10818
-7.12054
-7.13351
-7.14715
-7.1615
-7.17659
-7.19242
-7.20899
-7.22626
-7.2442
-7.26272
-7.28175
-6.93673
-6.93801
-6.9412
-6.94601
-6.95196
-6.95879
-6.96636
-6.97452
-6.98313
-6.99209
-7.00131
-7.01077
-7.02042
-7.03025
-7.04027
-7.0505
-7.06097
-7.0717
-7.08275
-7.09417
-7.106
-7.11829
-7.1311
-7.14446
-7.15843
-7.17301
-7.18822
-7.20407
-7.22052
-7.23756
-7.25514
-7.27318
-7.29162
-6.94126
-6.94252
-6.94568
-6.95046
-6.95638
-6.96323
-6.97085
-6.97911
-6.98786
-6.997
-7.00646
-7.0162
-7.02617
-7.03636
-7.04678
-7.05744
-7.06835
-7.07955
-7.09107
-7.10294
-7.11522
-7.12793
-7.14111
-7.15479
-7.169
-7.18374
-7.19902
-7.21484
-7.23116
-7.24796
-7.26518
-7.28277
-7.30067
-6.94518
-6.94645
-6.94962
-6.95441
-6.96039
-6.96731
-6.97504
-6.98344
-6.99237
-7.00173
-7.01145
-7.02147
-7.03177
-7.04232
-7.05312
-7.06418
-7.0755
-7.08712
-7.09906
-7.11134
-7.124
-7.13706
-7.15055
-7.16449
-7.17888
-7.19373
-7.20904
-7.22479
-7.24096
-7.25751
-7.27439
-7.29156
-7.30897
-6.94843
-6.94972
-6.95294
-6.95782
-6.96391
-6.97097
-6.97887
-6.98746
-6.99661
-7.00623
-7.01622
-7.02655
-7.03718
-7.04808
-7.05924
-7.07068
-7.08239
-7.09439
-7.1067
-7.11934
-7.13233
-7.14569
-7.15942
-7.17356
-7.18808
-7.203
-7.2183
-7.23397
-7.24997
-7.26627
-7.28283
-7.29961
-7.31656
-6.95093
-6.95226
-6.95558
-6.96062
-6.96689
-6.97415
-6.98228
-6.99111
-7.00054
-7.01043
-7.02073
-7.03138
-7.04234
-7.05358
-7.0651
-7.07689
-7.08895
-7.1013
-7.11395
-7.1269
-7.14018
-7.15378
-7.16772
-7.18201
-7.19663
-7.21158
-7.22684
-7.2424
-7.25823
-7.27429
-7.29055
-7.30696
-7.32349
-6.95258
-6.95398
-6.95746
-6.96272
-6.96925
-6.9768
-6.98521
-6.99435
-7.00409
-7.01431
-7.02493
-7.03591
-7.04721
-7.05879
-7.07065
-7.08278
-7.09517
-7.10784
-7.12078
-7.13401
-7.14752
-7.16133
-7.17544
-7.18984
-7.20452
-7.21948
-7.23469
-7.25013
-7.26578
-7.28161
-7.29758
-7.31366
-7.3298
-6.95326
-6.95475
-6.95845
-6.96403
-6.97092
-6.97883
-6.98761
-6.99712
-7.00722
-7.01779
-7.02877
-7.0401
-7.05174
-7.06367
-7.07585
-7.0883
-7.101
-7.11396
-7.12717
-7.14063
-7.15436
-7.16834
-7.18258
-7.19706
-7.21178
-7.22672
-7.24187
-7.2572
-7.27268
-7.28828
-7.30399
-7.31975
-7.33554
-6.95281
-6.95443
-6.95844
-6.96445
-6.97181
-6.98018
-6.98941
-6.99936
-7.00988
-7.02086
-7.03222
-7.04392
-7.05591
-7.06817
-7.08068
-7.09343
-7.10642
-7.11964
-7.13308
-7.14676
-7.16066
-7.17479
-7.18912
-7.20367
-7.2184
-7.23331
-7.24838
-7.26359
-7.2789
-7.2943
-7.30975
-7.32523
-7.3407
-6.95103
-6.95283
-6.95728
-6.96387
-6.97184
-6.98079
-6.99057
-7.00103
-7.01203
-7.02346
-7.03523
-7.04731
-7.05966
-7.07226
-7.08509
-7.09813
-7.11139
-7.12485
-7.13852
-7.15238
-7.16644
-7.18069
-7.19511
-7.20971
-7.22445
-7.23933
-7.25432
-7.26941
-7.28457
-7.29977
-7.315
-7.33021
-7.3454
-6.94766
-6.94971
-6.95478
-6.96218
-6.97094
-6.9806
-6.99104
-7.00212
-7.01368
-7.0256
-7.03783
-7.05031
-7.06303
-7.07595
-7.08908
-7.10239
-7.11588
-7.12956
-7.14341
-7.15743
-7.17161
-7.18595
-7.20043
-7.21505
-7.22978
-7.24461
-7.25952
-7.27449
-7.2895
-7.30452
-7.31954
-7.33452
-7.34945
-6.94231
-6.94475
-6.95073
-6.95927
-6.96905
-6.97955
-6.99075
-7.00252
-7.01469
-7.02715
-7.03985
-7.05277
-7.06588
-7.07916
-7.09261
-7.10621
-7.11997
-7.13387
-7.14791
-7.1621
-7.17641
-7.19084
-7.20539
-7.22003
-7.23476
-7.24956
-7.2644
-7.27927
-7.29415
-7.30901
-7.32384
-7.33861
-7.35329
-6.93447
-6.93751
-6.94486
-6.955
-6.96613
-6.97778
-6.98998
-7.00261
-7.01546
-7.02847
-7.04162
-7.05491
-7.06833
-7.08188
-7.09555
-7.10935
-7.12327
-7.13732
-7.15149
-7.16577
-7.18016
-7.19464
-7.20922
-7.22386
-7.23857
-7.25331
-7.26808
-7.28285
-7.29761
-7.31233
-7.32701
-7.34161
-7.35613
-6.92331
-6.92746
-6.93714
-6.94931
-6.96168
-6.97437
-6.98769
-7.00138
-7.01514
-7.02892
-7.04276
-7.05665
-7.07059
-7.08458
-7.09863
-7.11275
-7.12694
-7.14121
-7.15555
-7.16997
-7.18446
-7.19902
-7.21363
-7.22829
-7.24297
-7.25767
-7.27237
-7.28705
-7.30169
-7.31628
-7.33078
-7.34519
-7.35947
-6.9074
-6.91318
-6.9278
-6.94416
-6.95867
-6.97257
-6.98677
-7.00102
-7.01509
-7.02905
-7.04302
-7.05702
-7.07106
-7.08515
-7.0993
-7.11352
-7.12782
-7.14219
-7.15664
-7.17116
-7.18573
-7.20036
-7.21502
-7.22972
-7.24442
-7.25912
-7.27381
-7.28846
-7.30306
-7.31759
-7.33204
-7.34639
-7.36065
-6.88592
-6.89262
-6.91111
-6.93082
-6.94856
-6.96594
-6.98323
-6.99985
-7.01573
-7.03112
-7.04619
-7.06101
-7.07564
-7.09015
-7.10458
-7.11899
-7.1334
-7.14783
-7.16228
-7.17677
-7.19128
-7.20583
-7.2204
-7.23499
-7.24957
-7.26413
-7.27867
-7.29316
-7.30759
-7.32193
-7.33616
-7.35027
-7.36421
-6.85285
-6.88779
-6.91683
-6.93242
-6.94587
-6.9616
-6.97783
-6.99333
-7.00841
-7.02347
-7.03851
-7.05349
-7.06839
-7.08326
-7.09811
-7.11296
-7.1278
-7.14265
-7.1575
-7.17236
-7.18723
-7.2021
-7.21696
-7.2318
-7.24662
-7.2614
-7.27612
-7.29078
-7.30536
-7.31985
-7.33424
-7.34852
-7.3627
-6.7116
-6.81897
-6.89248
-6.92433
-6.94698
-6.97068
-6.9923
-7.0105
-7.02668
-7.042
-7.05679
-7.07116
-7.08526
-7.09923
-7.11317
-7.12711
-7.14109
-7.15512
-7.16921
-7.18337
-7.19759
-7.21186
-7.22616
-7.24049
-7.25483
-7.26915
-7.28346
-7.29771
-7.31191
-7.32603
-7.34004
-7.35395
-7.36772
-6.15445
-6.20924
-7.09184
-7.56664
-7.62096
-7.64288
-7.69191
-7.73225
-7.7645
-7.79678
-7.82983
-7.86292
-7.89621
-7.92988
-7.96389
-7.99813
-8.03251
-8.0669
-8.10118
-8.13522
-8.16887
-8.20202
-8.23453
-8.26628
-8.29714
-8.32702
-8.35579
-8.38336
-8.40962
-8.43448
-8.45784
-8.47963
-8.49975
-8.51811
-8.53463
-8.54922
-8.56179
-8.57225
-8.58051
-8.58646
-8.58999
-8.59099
-8.58934
-8.58489
-8.5775
-8.56701
-8.55324
-8.53601
-8.51511
-8.49032
-8.46141
-8.42813
-8.39022
-8.34741
-8.29943
-8.246
-8.18683
-8.12164
-8.05016
-7.9721
-7.88719
-7.79514
-7.69569
-7.58856
-7.47349
-7.35025
-7.21864
-7.07849
-6.92969
-6.7722
-6.60603
-6.43128
-6.24812
-6.05678
-5.85762
-5.65104
-5.43754
-5.21769
-4.99212
-4.76152
-4.52663
-4.28822
-4.04709
-3.80403
-3.55983
-3.31528
-3.07111
-2.828
-2.58657
-2.34735
-2.11079
-1.87725
-1.64687
-1.41997
-1.19601
-0.975813
-0.756553
-0.542235
-0.322375
-0.111048
-6.7247
-6.88249
-7.22123
-7.48987
-7.56332
-7.60604
-7.66222
-7.70883
-7.7458
-7.78107
-7.81626
-7.85096
-7.88543
-7.91997
-7.95462
-7.98933
-8.02404
-8.05867
-8.0931
-8.12722
-8.16092
-8.19407
-8.22655
-8.25825
-8.28906
-8.31885
-8.34754
-8.37501
-8.40117
-8.42593
-8.44919
-8.47086
-8.49086
-8.5091
-8.5255
-8.53996
-8.5524
-8.56272
-8.57083
-8.57662
-8.57998
-8.5808
-8.57896
-8.57431
-8.5667
-8.55599
-8.54198
-8.5245
-8.50333
-8.47827
-8.44908
-8.41552
-8.37732
-8.33422
-8.28595
-8.23223
-8.17278
-8.10733
-8.03559
-7.95728
-7.87215
-7.7799
-7.68027
-7.573
-7.45784
-7.33455
-7.20294
-7.06286
-6.91421
-6.75694
-6.59108
-6.41672
-6.23403
-6.04326
-5.84476
-5.63892
-5.42623
-5.20727
-4.98264
-4.75305
-4.51919
-4.28185
-4.04179
-3.79981
-3.55667
-3.31315
-3.06995
-2.82776
-2.58717
-2.34871
-2.1128
-1.87979
-1.64981
-1.42317
-1.19925
-0.979088
-0.759113
-0.545365
-0.321258
-0.118948
-6.73428
-6.91742
-7.14789
-7.39774
-7.51737
-7.57812
-7.6369
-7.68779
-7.72895
-7.76678
-7.80374
-7.8398
-7.87525
-7.91048
-7.94561
-7.98065
-8.01557
-8.05031
-8.08479
-8.1189
-8.15255
-8.18563
-8.21801
-8.2496
-8.28028
-8.30994
-8.33849
-8.36582
-8.39184
-8.41645
-8.43957
-8.46109
-8.48095
-8.49904
-8.51528
-8.52959
-8.54187
-8.55202
-8.55996
-8.56557
-8.56874
-8.56937
-8.56731
-8.56244
-8.5546
-8.54364
-8.52938
-8.51163
-8.49019
-8.46484
-8.43536
-8.40149
-8.36299
-8.31959
-8.27102
-8.21701
-8.15728
-8.09155
-8.01956
-7.94102
-7.85567
-7.76323
-7.66345
-7.55606
-7.44082
-7.31751
-7.18595
-7.04598
-6.89752
-6.74053
-6.57502
-6.40111
-6.21896
-6.02882
-5.83103
-5.62599
-5.41419
-5.19617
-4.97256
-4.74402
-4.51127
-4.27504
-4.03611
-3.79524
-3.5532
-3.31073
-3.06854
-2.82729
-2.58755
-2.34985
-2.11458
-1.88209
-1.6525
-1.42611
-1.20221
-0.982053
-0.761349
-0.548153
-0.31979
-0.126534
-6.76495
-6.9469
-7.14631
-7.35822
-7.48285
-7.55172
-7.61287
-7.66746
-7.7125
-7.75282
-7.79142
-7.82873
-7.86507
-7.90091
-7.93644
-7.97173
-8.00679
-8.04157
-8.07602
-8.11006
-8.1436
-8.17653
-8.20876
-8.24018
-8.27069
-8.30017
-8.32854
-8.35569
-8.38152
-8.40596
-8.42889
-8.45024
-8.46992
-8.48783
-8.5039
-8.51802
-8.53012
-8.54008
-8.54783
-8.55323
-8.5562
-8.55661
-8.55432
-8.54921
-8.54112
-8.5299
-8.51536
-8.49733
-8.4756
-8.44995
-8.42016
-8.38598
-8.34717
-8.30346
-8.25459
-8.20029
-8.14027
-8.07428
-8.00204
-7.92327
-7.83772
-7.74512
-7.6452
-7.53772
-7.42244
-7.29915
-7.16767
-7.02787
-6.87964
-6.72297
-6.55789
-6.38448
-6.20293
-6.01349
-5.81648
-5.61231
-5.40145
-5.18445
-4.96191
-4.73449
-4.50288
-4.26782
-4.03006
-3.79035
-3.54944
-3.30805
-3.06689
-2.82658
-2.5877
-2.35075
-2.11611
-1.88413
-1.6549
-1.42873
-1.20482
-0.984643
-0.763195
-0.550507
-0.317972
-0.133582
-6.82778
-6.98838
-7.15764
-7.32983
-7.44974
-7.52605
-7.59042
-7.64765
-7.69583
-7.73848
-7.77866
-7.81717
-7.85439
-7.89082
-7.92674
-7.96226
-7.99741
-8.0322
-8.06659
-8.10052
-8.13391
-8.16666
-8.1987
-8.22991
-8.26019
-8.28946
-8.3176
-8.34454
-8.37016
-8.39438
-8.41711
-8.43825
-8.45772
-8.47544
-8.4913
-8.50522
-8.51711
-8.52686
-8.53439
-8.53958
-8.54231
-8.54248
-8.53995
-8.53458
-8.52623
-8.51473
-8.4999
-8.48157
-8.45953
-8.43357
-8.40347
-8.36897
-8.32984
-8.28582
-8.23664
-8.18204
-8.12175
-8.0555
-7.98302
-7.90404
-7.8183
-7.72555
-7.62552
-7.51798
-7.40269
-7.27946
-7.14811
-7.00851
-6.86058
-6.70429
-6.53968
-6.36684
-6.18596
-5.99727
-5.80111
-5.59787
-5.38802
-5.1721
-4.95069
-4.72444
-4.49403
-4.26019
-4.02364
-3.78513
-3.54538
-3.30511
-3.06499
-2.82564
-2.58762
-2.35142
-2.11742
-1.88594
-1.65705
-1.43109
-1.20715
-0.986919
-0.764732
-0.552494
-0.31597
-0.14006
-6.88778
-7.02261
-7.16655
-7.31063
-7.42368
-7.50387
-7.57011
-7.62871
-7.67915
-7.72382
-7.76543
-7.80502
-7.84308
-7.88007
-7.91636
-7.95208
-7.98732
-8.0221
-8.05641
-8.0902
-8.1234
-8.15595
-8.18776
-8.21873
-8.24877
-8.27778
-8.30568
-8.33236
-8.35774
-8.38172
-8.40421
-8.42512
-8.44436
-8.46185
-8.47748
-8.49118
-8.50284
-8.51236
-8.51965
-8.5246
-8.52709
-8.527
-8.52421
-8.51857
-8.50993
-8.49813
-8.48301
-8.46437
-8.44201
-8.41573
-8.38529
-8.35047
-8.31102
-8.26668
-8.2172
-8.16231
-8.10174
-8.03524
-7.96252
-7.88335
-7.79744
-7.70456
-7.60445
-7.49688
-7.38163
-7.25849
-7.12731
-6.98797
-6.84038
-6.68452
-6.52043
-6.34822
-6.16806
-5.9802
-5.78495
-5.5827
-5.37392
-5.15913
-4.93891
-4.71389
-4.48474
-4.25216
-4.01687
-3.77959
-3.54103
-3.3019
-3.06284
-2.82446
-2.58732
-2.35187
-2.11849
-1.88751
-1.65895
-1.43317
-1.2092
-0.988892
-0.765987
-0.554128
-0.313888
-0.145901
-6.94129
-7.05397
-7.1775
-7.30082
-7.40498
-7.4852
-7.55198
-7.61111
-7.66299
-7.70921
-7.75199
-7.79249
-7.83126
-7.86876
-7.90536
-7.94126
-7.97656
-8.0113
-8.0455
-8.07913
-8.11213
-8.14445
-8.176
-8.2067
-8.23646
-8.2652
-8.29281
-8.31922
-8.34432
-8.36803
-8.39026
-8.41091
-8.42989
-8.44713
-8.46251
-8.47595
-8.48736
-8.49664
-8.50367
-8.50836
-8.51058
-8.51022
-8.50714
-8.50121
-8.49227
-8.48017
-8.46473
-8.44577
-8.42308
-8.39647
-8.3657
-8.33055
-8.29077
-8.24612
-8.19633
-8.14114
-8.08031
-8.01356
-7.94063
-7.86127
-7.77522
-7.68223
-7.58207
-7.4745
-7.35931
-7.23631
-7.10534
-6.9663
-6.8191
-6.66373
-6.50022
-6.3287
-6.14932
-5.96233
-5.76805
-5.56685
-5.3592
-5.1456
-4.92662
-4.70287
-4.47502
-4.24375
-4.00975
-3.77373
-3.5364
-3.29842
-3.06044
-2.82305
-2.58678
-2.35209
-2.11934
-1.88883
-1.66059
-1.43499
-1.21098
-0.990568
-0.766979
-0.55542
-0.311805
-0.151046
-6.98861
-7.08371
-7.19018
-7.29707
-7.39193
-7.46992
-7.53624
-7.59526
-7.64781
-7.69503
-7.73868
-7.77987
-7.81919
-7.85709
-7.89394
-7.92996
-7.96528
-7.99996
-8.03402
-8.06745
-8.10022
-8.13228
-8.16354
-8.19394
-8.2234
-8.25182
-8.27913
-8.30523
-8.33003
-8.35344
-8.37538
-8.39574
-8.41444
-8.43139
-8.44649
-8.45966
-8.4708
-8.47979
-8.48655
-8.49095
-8.49289
-8.49223
-8.48886
-8.48262
-8.47337
-8.46094
-8.44517
-8.42587
-8.40285
-8.37589
-8.34479
-8.3093
-8.26919
-8.22421
-8.17412
-8.11865
-8.05755
-7.99056
-7.91743
-7.8379
-7.75172
-7.65866
-7.55846
-7.45092
-7.33583
-7.21301
-7.0823
-6.94359
-6.79683
-6.64199
-6.47912
-6.30833
-6.12979
-5.94373
-5.75047
-5.55038
-5.3439
-5.13153
-4.91384
-4.69142
-4.46491
-4.23497
-4.0023
-3.76758
-3.53148
-3.29468
-3.05779
-2.8214
-2.58601
-2.35208
-2.11994
-1.88991
-1.66199
-1.43654
-1.21249
-0.991959
-0.767733
-0.556385
-0.309789
-0.155455
-7.03007
-7.11148
-7.20371
-7.29733
-7.38348
-7.45798
-7.52295
-7.58125
-7.63383
-7.68156
-7.72574
-7.76739
-7.80709
-7.84527
-7.88229
-7.91837
-7.95366
-7.98823
-8.02212
-8.05533
-8.08784
-8.1196
-8.15055
-8.18062
-8.20974
-8.23783
-8.2648
-8.29056
-8.31502
-8.33811
-8.35972
-8.37976
-8.39815
-8.41479
-8.42959
-8.44246
-8.45329
-8.46198
-8.46844
-8.47254
-8.47416
-8.47319
-8.4695
-8.46293
-8.45335
-8.44058
-8.42447
-8.40482
-8.38145
-8.35414
-8.32268
-8.28685
-8.2464
-8.20111
-8.15071
-8.09496
-8.0336
-7.96638
-7.89306
-7.81337
-7.72709
-7.63396
-7.53376
-7.42628
-7.31132
-7.1887
-7.05828
-6.91996
-6.77368
-6.61942
-6.45723
-6.28722
-6.10955
-5.92447
-5.73228
-5.53333
-5.32808
-5.11699
-4.90063
-4.67956
-4.45442
-4.22586
-3.99454
-3.76113
-3.5263
-3.29069
-3.0549
-2.81951
-2.58501
-2.35183
-2.12031
-1.89075
-1.66313
-1.43784
-1.21374
-0.993079
-0.768271
-0.557044
-0.307899
-0.159115
-7.06637
-7.13715
-7.21767
-7.3004
-7.37868
-7.44904
-7.51195
-7.56906
-7.62117
-7.66895
-7.71335
-7.75524
-7.79514
-7.83348
-7.87057
-7.90664
-7.94184
-7.97626
-8.00995
-8.04291
-8.07513
-8.10657
-8.13718
-8.1669
-8.19566
-8.22338
-8.24998
-8.27537
-8.29947
-8.3222
-8.34345
-8.36315
-8.3812
-8.39751
-8.41198
-8.42451
-8.43502
-8.44338
-8.44951
-8.45328
-8.45457
-8.45327
-8.44923
-8.44232
-8.43238
-8.41926
-8.40279
-8.38278
-8.35904
-8.33137
-8.29955
-8.26337
-8.22259
-8.17696
-8.12626
-8.07023
-8.00862
-7.94118
-7.86767
-7.78784
-7.70146
-7.60829
-7.50811
-7.40071
-7.28591
-7.16353
-7.03343
-6.89553
-6.74976
-6.59612
-6.43465
-6.26545
-6.08871
-5.90465
-5.71356
-5.5158
-5.3118
-5.10203
-4.88702
-4.66735
-4.44361
-4.21644
-3.9865
-3.75442
-3.52087
-3.28646
-3.05178
-2.81739
-2.58378
-2.35136
-2.12045
-1.89134
-1.66403
-1.43889
-1.21474
-0.993942
-0.768617
-0.55742
-0.306176
-0.162029
-7.09832
-7.16077
-7.23173
-7.30539
-7.37666
-7.44267
-7.50306
-7.5586
-7.60985
-7.6573
-7.70163
-7.74352
-7.78347
-7.82183
-7.85889
-7.89489
-7.92995
-7.96418
-7.99763
-8.03031
-8.06221
-8.09332
-8.12357
-8.15291
-8.18129
-8.20862
-8.23482
-8.25983
-8.28354
-8.30588
-8.32676
-8.34609
-8.36377
-8.37971
-8.39382
-8.406
-8.41615
-8.42417
-8.42994
-8.43336
-8.4343
-8.43263
-8.42823
-8.42096
-8.41065
-8.39716
-8.38031
-8.35992
-8.33581
-8.30776
-8.27558
-8.23904
-8.19791
-8.15196
-8.10095
-8.04463
-7.98277
-7.91511
-7.84143
-7.76147
-7.675
-7.58181
-7.48166
-7.37437
-7.25975
-7.13763
-7.00789
-6.87043
-6.72521
-6.57221
-6.41149
-6.24315
-6.06736
-5.88434
-5.69439
-5.49785
-5.29514
-5.08671
-4.87309
-4.65482
-4.43251
-4.20675
-3.9782
-3.74747
-3.5152
-3.282
-3.04844
-2.81506
-2.58232
-2.35066
-2.12036
-1.89171
-1.6647
-1.43969
-1.21551
-0.994566
-0.768793
-0.55754
-0.304651
-0.164222
-7.12661
-7.18245
-7.24558
-7.31167
-7.37675
-7.43845
-7.49605
-7.54974
-7.59983
-7.64663
-7.69063
-7.73233
-7.77215
-7.8104
-7.84735
-7.88319
-7.91807
-7.95207
-7.98525
-8.01762
-8.04919
-8.07993
-8.10981
-8.13876
-8.16674
-8.19366
-8.21946
-8.24405
-8.26736
-8.2893
-8.30977
-8.3287
-8.346
-8.36156
-8.37529
-8.38709
-8.39686
-8.40451
-8.4099
-8.41294
-8.41351
-8.41146
-8.40668
-8.39902
-8.38833
-8.37445
-8.35721
-8.33643
-8.31193
-8.2835
-8.25094
-8.21403
-8.17255
-8.12627
-8.07495
-8.01835
-7.95624
-7.88837
-7.81451
-7.73443
-7.64789
-7.55468
-7.45459
-7.34742
-7.23299
-7.11116
-6.98179
-6.8448
-6.70015
-6.54782
-6.38788
-6.22042
-6.0456
-5.86366
-5.67487
-5.47957
-5.27816
-5.0711
-4.85888
-4.64204
-4.42115
-4.19683
-3.96967
-3.74029
-3.50931
-3.27732
-3.04488
-2.8125
-2.58066
-2.34974
-2.12004
-1.89185
-1.66514
-1.44027
-1.21607
-0.994966
-0.768819
-0.557431
-0.303338
-0.165736
-7.15182
-7.20232
-7.25904
-7.31876
-7.37839
-7.43598
-7.49069
-7.54235
-7.59104
-7.63695
-7.68038
-7.7217
-7.76125
-7.79927
-7.83601
-7.87163
-7.90626
-7.93999
-7.97286
-8.00491
-8.03612
-8.06649
-8.09597
-8.12452
-8.15208
-8.17859
-8.20396
-8.22813
-8.25102
-8.27254
-8.2926
-8.31112
-8.32801
-8.34316
-8.35649
-8.3679
-8.37728
-8.38453
-8.38954
-8.39218
-8.39235
-8.38991
-8.38474
-8.37668
-8.36558
-8.3513
-8.33366
-8.31248
-8.28757
-8.25875
-8.22581
-8.18853
-8.14669
-8.10007
-8.04843
-7.99155
-7.92919
-7.86111
-7.78708
-7.70688
-7.62028
-7.52706
-7.42703
-7.32
-7.20579
-7.08425
-6.95528
-6.81878
-6.67471
-6.52307
-6.36392
-6.19736
-6.02354
-5.84269
-5.65507
-5.46102
-5.26094
-5.05525
-4.84444
-4.62903
-4.40959
-4.1867
-3.96094
-3.73292
-3.50323
-3.27245
-3.04112
-2.80975
-2.57878
-2.3486
-2.11951
-1.89177
-1.66535
-1.44062
-1.21641
-0.99516
-0.768712
-0.557119
-0.302242
-0.166625
-7.17442
-7.22055
-7.27198
-7.32632
-7.38116
-7.43493
-7.48674
-7.53626
-7.5834
-7.62822
-7.67089
-7.71167
-7.7508
-7.78849
-7.82492
-7.86024
-7.89457
-7.92799
-7.96052
-7.99222
-8.02306
-8.05304
-8.08211
-8.11025
-8.13738
-8.16346
-8.1884
-8.21214
-8.2346
-8.25569
-8.27532
-8.29342
-8.30988
-8.32462
-8.33754
-8.34854
-8.35751
-8.36436
-8.36895
-8.3712
-8.37096
-8.36811
-8.36252
-8.35405
-8.34254
-8.32785
-8.30979
-8.2882
-8.26289
-8.23367
-8.20033
-8.16267
-8.12047
-8.07351
-8.02156
-7.9644
-7.90178
-7.8335
-7.7593
-7.67899
-7.59233
-7.49911
-7.39915
-7.29226
-7.17828
-7.05705
-6.92848
-6.79248
-6.64901
-6.49808
-6.33974
-6.17408
-6.00127
-5.82151
-5.63508
-5.44229
-5.24353
-5.03922
-4.82983
-4.61586
-4.39786
-4.17639
-3.95204
-3.72537
-3.49697
-3.26739
-3.03717
-2.8068
-2.5767
-2.34726
-2.11877
-1.89147
-1.66535
-1.44076
-1.21656
-0.995163
-0.768487
-0.556633
-0.301353
-0.166958
-7.19479
-7.23729
-7.28431
-7.33409
-7.38474
-7.43497
-7.48398
-7.53133
-7.57681
-7.6204
-7.66216
-7.70225
-7.74083
-7.77808
-7.81412
-7.84908
-7.88305
-7.9161
-7.94828
-7.97959
-8.01004
-8.03961
-8.06827
-8.09598
-8.12268
-8.14832
-8.17283
-8.19613
-8.21814
-8.23879
-8.258
-8.27566
-8.2917
-8.30601
-8.31851
-8.32909
-8.33764
-8.34407
-8.34825
-8.35008
-8.34942
-8.34615
-8.34015
-8.33125
-8.31933
-8.30421
-8.28573
-8.26372
-8.238
-8.20837
-8.17464
-8.1366
-8.09404
-8.04674
-7.99447
-7.93702
-7.87416
-7.80566
-7.73131
-7.65088
-7.56417
-7.47096
-7.37108
-7.26434
-7.15058
-7.02968
-6.90152
-6.76603
-6.62317
-6.47295
-6.31542
-6.15067
-5.97887
-5.80022
-5.61497
-5.42345
-5.22601
-5.02307
-4.81509
-4.60256
-4.386
-4.16595
-3.94299
-3.71767
-3.49055
-3.26217
-3.03305
-2.80366
-2.57443
-2.34572
-2.11782
-1.89097
-1.66515
-1.4407
-1.21652
-0.994991
-0.768157
-0.555997
-0.300658
-0.166807
-7.21323
-7.25267
-7.296
-7.34188
-7.38886
-7.43587
-7.4822
-7.52739
-7.57116
-7.61342
-7.65415
-7.69343
-7.73137
-7.76807
-7.80364
-7.83817
-7.87173
-7.90438
-7.93615
-7.96706
-7.99709
-8.02624
-8.05448
-8.08175
-8.10802
-8.13321
-8.15727
-8.18013
-8.2017
-8.22191
-8.24067
-8.2579
-8.2735
-8.28738
-8.29945
-8.3096
-8.31773
-8.32373
-8.32749
-8.3289
-8.32782
-8.32413
-8.31769
-8.30837
-8.29602
-8.28048
-8.26158
-8.23915
-8.21301
-8.18298
-8.14885
-8.11043
-8.0675
-8.01986
-7.96728
-7.90954
-7.84643
-7.77773
-7.70322
-7.62268
-7.53592
-7.44273
-7.34293
-7.23634
-7.12283
-7.00225
-6.87451
-6.73953
-6.59728
-6.44777
-6.29105
-6.12722
-5.95643
-5.77887
-5.59481
-5.40454
-5.20843
-5.00686
-4.80028
-4.58917
-4.37403
-4.1554
-3.93382
-3.70983
-3.48398
-3.25679
-3.02876
-2.80035
-2.57197
-2.34399
-2.11668
-1.89027
-1.66475
-1.44045
-1.21631
-0.994658
-0.767733
-0.555236
-0.300133
-0.166251
-7.22999
-7.26683
-7.30703
-7.34957
-7.39331
-7.43741
-7.48122
-7.5243
-7.56635
-7.60721
-7.64683
-7.68521
-7.7224
-7.75848
-7.7935
-7.82753
-7.86064
-7.89285
-7.92418
-7.95466
-7.98426
-8.01297
-8.04077
-8.0676
-8.09341
-8.11816
-8.14177
-8.16418
-8.1853
-8.20506
-8.22338
-8.24017
-8.25533
-8.26878
-8.28042
-8.29014
-8.29784
-8.30341
-8.30674
-8.30771
-8.30621
-8.30209
-8.29523
-8.28548
-8.2727
-8.25673
-8.2374
-8.21455
-8.188
-8.15756
-8.12304
-8.08423
-8.04095
-7.99296
-7.94007
-7.88206
-7.8187
-7.7498
-7.67513
-7.59449
-7.50768
-7.41451
-7.31479
-7.20837
-7.0951
-6.97485
-6.84753
-6.71306
-6.57143
-6.42263
-6.26672
-6.1038
-5.93401
-5.75755
-5.57466
-5.38564
-5.19083
-4.99062
-4.78543
-4.57573
-4.362
-4.14477
-3.92455
-3.70188
-3.47728
-3.25126
-3.02431
-2.79687
-2.56934
-2.34208
-2.11534
-1.88937
-1.66416
-1.44002
-1.21594
-0.994178
-0.767223
-0.554371
-0.299751
-0.165365
-7.24527
-7.27987
-7.3174
-7.35706
-7.39796
-7.43941
-7.48087
-7.52193
-7.56227
-7.60172
-7.64016
-7.67756
-7.71394
-7.74932
-7.78373
-7.81721
-7.84981
-7.88153
-7.9124
-7.94242
-7.97157
-7.99983
-8.02717
-8.05354
-8.07891
-8.1032
-8.12636
-8.14831
-8.16898
-8.18829
-8.20617
-8.22251
-8.23723
-8.25024
-8.26144
-8.27073
-8.27799
-8.28314
-8.28604
-8.28658
-8.28465
-8.2801
-8.27281
-8.26263
-8.24942
-8.23302
-8.21327
-8.19
-8.16304
-8.13219
-8.09728
-8.0581
-8.01445
-7.96614
-7.91294
-7.85465
-7.79105
-7.72195
-7.64713
-7.56639
-7.47954
-7.38639
-7.28677
-7.18051
-7.06748
-6.94756
-6.82066
-6.68671
-6.54569
-6.3976
-6.2425
-6.08048
-5.91168
-5.7363
-5.55458
-5.36679
-5.17327
-4.97439
-4.77058
-4.56227
-4.34994
-4.13408
-3.91521
-3.69384
-3.47048
-3.24561
-3.01972
-2.79323
-2.56654
-2.33999
-2.11383
-1.88829
-1.66339
-1.43941
-1.21541
-0.993562
-0.766633
-0.553422
-0.299484
-0.164225
-7.25923
-7.2919
-7.32712
-7.36427
-7.40267
-7.44174
-7.48103
-7.52016
-7.55883
-7.59685
-7.63408
-7.67047
-7.70597
-7.74059
-7.77433
-7.80721
-7.83926
-7.87046
-7.90083
-7.93037
-7.95904
-7.98683
-8.01371
-8.03962
-8.06453
-8.08836
-8.11106
-8.13255
-8.15277
-8.17163
-8.18906
-8.20495
-8.21923
-8.2318
-8.24256
-8.25141
-8.25825
-8.26296
-8.26543
-8.26555
-8.26318
-8.25821
-8.25049
-8.23988
-8.22624
-8.20942
-8.18925
-8.16556
-8.13819
-8.10695
-8.07164
-8.03209
-7.98809
-7.93945
-7.88594
-7.82738
-7.76356
-7.69426
-7.6193
-7.53847
-7.45158
-7.35845
-7.25892
-7.15284
-7.04005
-6.92047
-6.79398
-6.66054
-6.52013
-6.37274
-6.21844
-6.05731
-5.8895
-5.71519
-5.53461
-5.34803
-5.15578
-4.95823
-4.75576
-4.54882
-4.33786
-4.12336
-3.90582
-3.68572
-3.46357
-3.23985
-3.015
-2.78945
-2.56358
-2.33773
-2.11214
-1.88704
-1.66244
-1.43864
-1.21473
-0.99282
-0.765966
-0.552404
-0.299303
-0.1629
-7.27202
-7.303
-7.33621
-7.37118
-7.40735
-7.44428
-7.48156
-7.51888
-7.55594
-7.59255
-7.62856
-7.66389
-7.69848
-7.73229
-7.76532
-7.79756
-7.82901
-7.85966
-7.88951
-7.91853
-7.94672
-7.97403
-8.00043
-8.02587
-8.0503
-8.07367
-8.09591
-8.11694
-8.13671
-8.15511
-8.17209
-8.18754
-8.20137
-8.2135
-8.22383
-8.23224
-8.23864
-8.24292
-8.24497
-8.24465
-8.24186
-8.23645
-8.22831
-8.21728
-8.20322
-8.18597
-8.16538