/*--------------------------------*- C++ -*----------------------------------*\
| =========                 |                                                 |
| \\      /  F ield         | OpenFOAM: The Open Source CFD Toolbox           |
|  \\    /   O peration     | Version:  4.1                                   |
|   \\  /    A nd           | Web:      www.OpenFOAM.org                      |
|    \\/     M anipulation  |                                                 |
\*---------------------------------------------------------------------------*/
FoamFile
{
    version     2.0;
    format      ascii;
    class       surfaceScalarField;
    location    "1000";
    object      phi;
}
// * * * * * * * * * * * * * * * * * * * * * * * * * * * * * * * * * * * * * //

dimensions      [0 3 -1 0 0 0 0];

internalField   nonuniform List<scalar> 
13452
(
5.98811e-05
3.87334e-07
5.95252e-05
3.55936e-07
5.92696e-05
2.55584e-07
5.90615e-05
2.08068e-07
5.88793e-05
1.82249e-07
5.87167e-05
1.62631e-07
5.85688e-05
1.47862e-07
5.84321e-05
1.36716e-07
5.83044e-05
1.27685e-07
5.81843e-05
1.20048e-07
5.80708e-05
1.13548e-07
5.79628e-05
1.08017e-07
5.78595e-05
1.03314e-07
5.77601e-05
9.93387e-08
5.76641e-05
9.60275e-08
5.75708e-05
9.33416e-08
5.74795e-05
9.12654e-08
5.73897e-05
8.98069e-08
5.73007e-05
8.90012e-08
5.72118e-05
8.89162e-08
5.71221e-05
8.96643e-08
5.70307e-05
9.14224e-08
5.69362e-05
9.44677e-08
5.6837e-05
9.92434e-08
5.67305e-05
1.06488e-07
5.6613e-05
1.17488e-07
5.64783e-05
1.34704e-07
5.63155e-05
1.62842e-07
5.61018e-05
2.1369e-07
5.57941e-05
3.07664e-07
5.52646e-05
5.29543e-07
5.42152e-05
1.04933e-06
1.53823e-06
5.2677e-05
6.20749e-05
3.02761e-07
6.19987e-05
4.3211e-07
6.18517e-05
4.02671e-07
6.16884e-05
3.71288e-07
6.15293e-05
3.41401e-07
6.13798e-05
3.12132e-07
6.12402e-05
2.87428e-07
6.11095e-05
2.67427e-07
6.09864e-05
2.50741e-07
6.087e-05
2.36511e-07
6.07592e-05
2.24303e-07
6.06534e-05
2.13809e-07
6.0552e-05
2.04792e-07
6.04542e-05
1.97088e-07
6.03596e-05
1.9059e-07
6.02678e-05
1.85232e-07
6.0178e-05
1.80988e-07
6.009e-05
1.7787e-07
6.0003e-05
1.75932e-07
5.99167e-05
1.75283e-07
5.98302e-05
1.76102e-07
5.9743e-05
1.78663e-07
5.96541e-05
1.83393e-07
5.95624e-05
1.90944e-07
5.94665e-05
2.02368e-07
5.93646e-05
2.19355e-07
5.92543e-05
2.44997e-07
5.91329e-05
2.84233e-07
5.89973e-05
3.49292e-07
5.88511e-05
4.53937e-07
5.87174e-05
6.63192e-07
5.87643e-05
1.00242e-06
1.63621e-06
5.86663e-05
6.38373e-05
2.26834e-07
6.38685e-05
4.00965e-07
6.38445e-05
4.26691e-07
6.37851e-05
4.30682e-07
6.37048e-05
4.21705e-07
6.36142e-05
4.02677e-07
6.35198e-05
3.81808e-07
6.34248e-05
3.62422e-07
6.33308e-05
3.44794e-07
6.32384e-05
3.28898e-07
6.3148e-05
3.14743e-07
6.30595e-05
3.02252e-07
6.2973e-05
2.91318e-07
6.28882e-05
2.81858e-07
6.2805e-05
2.73822e-07
6.2723e-05
2.67191e-07
6.2642e-05
2.61981e-07
6.25617e-05
2.58248e-07
6.24815e-05
2.56102e-07
6.24011e-05
2.55715e-07
6.23198e-05
2.57351e-07
6.22371e-05
2.61403e-07
6.2152e-05
2.6845e-07
6.20636e-05
2.79356e-07
6.19705e-05
2.95458e-07
6.18711e-05
3.18803e-07
6.17632e-05
3.5286e-07
6.16447e-05
4.02757e-07
6.15148e-05
4.79184e-07
6.13759e-05
5.92779e-07
6.12585e-05
7.80621e-07
6.12267e-05
1.03426e-06
1.47458e-06
6.13883e-05
6.5637e-05
1.7289e-07
6.56889e-05
3.49048e-07
6.57122e-05
4.03387e-07
6.57127e-05
4.30224e-07
6.56932e-05
4.4124e-07
6.5658e-05
4.37828e-07
6.56121e-05
4.27715e-07
6.5559e-05
4.15489e-07
6.55013e-05
4.02578e-07
6.54404e-05
3.89737e-07
6.53776e-05
3.77538e-07
6.53136e-05
3.66298e-07
6.52487e-05
3.56175e-07
6.51833e-05
3.47272e-07
6.51174e-05
3.39676e-07
6.50512e-05
3.33476e-07
6.49844e-05
3.28776e-07
6.49169e-05
3.25713e-07
6.48485e-05
3.24472e-07
6.47789e-05
3.25312e-07
6.47077e-05
3.28588e-07
6.46343e-05
3.34802e-07
6.45581e-05
3.44664e-07
6.44782e-05
3.59195e-07
6.43938e-05
3.79898e-07
6.43036e-05
4.08967e-07
6.42067e-05
4.49823e-07
6.41022e-05
5.07198e-07
6.39921e-05
5.89338e-07
6.38811e-05
7.03781e-07
6.3792e-05
8.69688e-07
6.37501e-05
1.07616e-06
1.36354e-06
6.38612e-05
6.74946e-05
1.351e-07
6.75432e-05
3.00461e-07
6.75779e-05
3.68608e-07
6.76013e-05
4.06833e-07
6.76127e-05
4.29917e-07
6.76119e-05
4.3859e-07
6.76009e-05
4.38735e-07
6.75815e-05
4.34818e-07
6.75555e-05
4.28594e-07
6.75242e-05
4.21081e-07
6.74886e-05
4.13126e-07
6.74496e-05
4.05307e-07
6.74078e-05
3.97998e-07
6.73636e-05
3.91474e-07
6.73173e-05
3.85962e-07
6.72691e-05
3.81667e-07
6.72191e-05
3.78793e-07
6.71672e-05
3.77567e-07
6.71134e-05
3.78259e-07
6.70575e-05
3.81207e-07
6.69993e-05
3.86855e-07
6.69383e-05
3.95789e-07
6.68741e-05
4.08809e-07
6.68063e-05
4.27012e-07
6.67343e-05
4.51936e-07
6.66575e-05
4.85707e-07
6.6576e-05
5.3137e-07
6.64904e-05
5.92833e-07
6.64039e-05
6.75838e-07
6.63226e-05
7.85038e-07
6.62635e-05
9.28797e-07
6.62423e-05
1.09734e-06
1.29598e-06
6.63099e-05
6.94108e-05
1.08307e-07
6.9452e-05
2.59319e-07
6.94866e-05
3.33949e-07
6.95155e-05
3.77931e-07
6.95381e-05
4.07326e-07
6.95532e-05
4.23496e-07
6.95611e-05
4.30872e-07
6.95624e-05
4.33499e-07
6.95578e-05
4.3317e-07
6.9548e-05
4.30899e-07
6.95336e-05
4.27557e-07
6.95151e-05
4.23801e-07
6.9493e-05
4.20099e-07
6.94676e-05
4.16818e-07
6.94393e-05
4.14271e-07
6.94082e-05
4.12745e-07
6.93745e-05
4.1252e-07
6.93382e-05
4.13892e-07
6.92992e-05
4.17199e-07
6.92576e-05
4.22844e-07
6.92131e-05
4.3133e-07
6.91656e-05
4.43296e-07
6.91149e-05
4.59576e-07
6.90606e-05
4.81266e-07
6.90027e-05
5.09819e-07
6.89413e-05
5.47133e-07
6.8877e-05
5.9569e-07
6.88114e-05
6.58417e-07
6.87483e-05
7.38901e-07
6.86939e-05
8.3944e-07
6.86604e-05
9.62374e-07
6.86582e-05
1.09952e-06
1.24509e-06
6.87091e-05
7.13857e-05
8.89849e-08
7.14198e-05
2.25199e-07
7.14515e-05
3.0222e-07
7.148e-05
3.49473e-07
7.1505e-05
3.82265e-07
7.15256e-05
4.02945e-07
7.15414e-05
4.15018e-07
7.15528e-05
4.22124e-07
7.15599e-05
4.26101e-07
7.15628e-05
4.27945e-07
7.15619e-05
4.28484e-07
7.15573e-05
4.28374e-07
7.15493e-05
4.28103e-07
7.15381e-05
4.28063e-07
7.15237e-05
4.28602e-07
7.15064e-05
4.30044e-07
7.14863e-05
4.32708e-07
7.14632e-05
4.36932e-07
7.14373e-05
4.43091e-07
7.14085e-05
4.51624e-07
7.13768e-05
4.63059e-07
7.13421e-05
4.78046e-07
7.13042e-05
4.974e-07
7.12634e-05
5.22145e-07
7.12196e-05
5.53564e-07
7.11735e-05
5.93226e-07
7.11262e-05
6.43001e-07
7.10798e-05
7.04853e-07
7.1038e-05
7.80718e-07
7.10062e-05
8.71209e-07
7.09929e-05
9.75666e-07
7.10051e-05
1.08736e-06
1.19837e-06
7.10518e-05
7.34195e-05
7.47523e-08
7.34477e-05
1.96999e-07
7.34761e-05
2.73787e-07
7.35027e-05
3.22945e-07
7.35272e-05
3.57761e-07
7.35488e-05
3.81352e-07
7.35672e-05
3.96626e-07
7.35825e-05
4.06824e-07
7.35947e-05
4.13829e-07
7.3604e-05
4.18672e-07
7.36103e-05
4.22158e-07
7.36138e-05
4.24936e-07
7.36144e-05
4.27498e-07
7.36122e-05
4.30243e-07
7.36073e-05
4.33526e-07
7.35996e-05
4.37681e-07
7.35893e-05
4.43044e-07
7.35763e-05
4.49965e-07
7.35605e-05
4.58831e-07
7.35421e-05
4.70086e-07
7.35209e-05
4.84251e-07
7.3497e-05
5.0195e-07
7.34704e-05
5.23931e-07
7.34415e-05
5.51095e-07
7.34105e-05
5.84501e-07
7.33784e-05
6.25351e-07
7.33465e-05
6.74931e-07
7.3317e-05
7.34387e-07
7.32932e-05
8.04477e-07
7.32797e-05
8.84753e-07
7.32821e-05
9.7326e-07
7.33049e-05
1.06452e-06
1.15146e-06
7.33518e-05
7.55132e-05
6.40159e-08
7.55366e-05
1.73644e-07
7.55619e-05
2.48457e-07
7.55863e-05
2.98515e-07
7.56095e-05
3.34599e-07
7.56306e-05
3.60212e-07
7.56494e-05
3.77862e-07
7.56658e-05
3.90382e-07
7.568e-05
3.99649e-07
7.56919e-05
4.06744e-07
7.57016e-05
4.12472e-07
7.57091e-05
4.17485e-07
7.57143e-05
4.22287e-07
7.57172e-05
4.27283e-07
7.57179e-05
4.32833e-07
7.57163e-05
4.39275e-07
7.57124e-05
4.46945e-07
7.57062e-05
4.56193e-07
7.56976e-05
4.67397e-07
7.56867e-05
4.80987e-07
7.56735e-05
4.9745e-07
7.56581e-05
5.17352e-07
7.56407e-05
5.41346e-07
7.56217e-05
5.70174e-07
7.56015e-05
6.04654e-07
7.55812e-05
6.45631e-07
7.55623e-05
6.9388e-07
7.55467e-05
7.49911e-07
7.55375e-05
8.13709e-07
7.5538e-05
8.84234e-07
7.55521e-05
9.59145e-07
7.55826e-05
1.03404e-06
1.10335e-06
7.56307e-05
7.76679e-05
5.57115e-08
7.76873e-05
1.54195e-07
7.77099e-05
2.25933e-07
7.77323e-05
2.76058e-07
7.7754e-05
3.12875e-07
7.77743e-05
3.3992e-07
7.77928e-05
3.59422e-07
7.78093e-05
3.73821e-07
7.78241e-05
3.84923e-07
7.7837e-05
3.93837e-07
7.78481e-05
4.01374e-07
7.78574e-05
4.0819e-07
7.78648e-05
4.14802e-07
7.78705e-05
4.21626e-07
7.78743e-05
4.29028e-07
7.78762e-05
4.37346e-07
7.78763e-05
4.46914e-07
7.78744e-05
4.5807e-07
7.78706e-05
4.71179e-07
7.7865e-05
4.86636e-07
7.78575e-05
5.04881e-07
7.78485e-05
5.26403e-07
7.78381e-05
5.5174e-07
7.78268e-05
5.81467e-07
7.78153e-05
6.16165e-07
7.78045e-05
6.56359e-07
7.7796e-05
7.02418e-07
7.77915e-05
7.5439e-07
7.77934e-05
8.11794e-07
7.78044e-05
8.73328e-07
7.78268e-05
9.36703e-07
7.78624e-05
9.98429e-07
1.05435e-06
7.79114e-05
7.98849e-05
4.91241e-08
7.99012e-05
1.37869e-07
7.99213e-05
2.05903e-07
7.99419e-05
2.55403e-07
7.99623e-05
2.92507e-07
7.99817e-05
3.20527e-07
7.99996e-05
3.41474e-07
8.0016e-05
3.57439e-07
8.00308e-05
3.70102e-07
8.00441e-05
3.80572e-07
8.00558e-05
3.89657e-07
8.0066e-05
3.9801e-07
8.00746e-05
4.06154e-07
8.00817e-05
4.14515e-07
8.00873e-05
4.23461e-07
8.00913e-05
4.33331e-07
8.00938e-05
4.4445e-07
8.00947e-05
4.57143e-07
8.00942e-05
4.71748e-07
8.00922e-05
4.88622e-07
8.00889e-05
5.08145e-07
8.00846e-05
5.30722e-07
8.00796e-05
5.5677e-07
8.00743e-05
5.86703e-07
8.00696e-05
6.20887e-07
8.00664e-05
6.59585e-07
8.00659e-05
7.0286e-07
8.00699e-05
7.5045e-07
8.008e-05
8.01629e-07
8.00983e-05
8.55044e-07
8.01264e-05
9.08645e-07
8.01651e-05
9.59702e-07
1.00517e-06
8.02143e-05
8.21658e-05
4.37689e-08
8.21796e-05
1.24025e-07
8.21975e-05
1.88057e-07
8.22165e-05
2.36383e-07
8.22356e-05
2.73382e-07
8.22542e-05
3.01989e-07
8.22716e-05
3.24026e-07
8.22878e-05
3.41283e-07
8.23026e-05
3.55287e-07
8.2316e-05
3.67117e-07
8.23281e-05
3.77566e-07
8.23389e-05
3.87273e-07
8.23483e-05
3.9676e-07
8.23563e-05
4.06454e-07
8.23631e-05
4.16721e-07
8.23685e-05
4.27896e-07
8.23727e-05
4.4029e-07
8.23756e-05
4.5421e-07
8.23774e-05
4.69962e-07
8.23781e-05
4.87857e-07
8.23781e-05
5.08214e-07
8.23775e-05
5.3135e-07
8.23767e-05
5.57567e-07
8.23762e-05
5.87131e-07
8.23769e-05
6.2023e-07
8.23795e-05
6.56921e-07
8.23854e-05
6.97054e-07
8.23956e-05
7.40183e-07
8.24118e-05
7.8548e-07
8.24352e-05
8.31663e-07
8.24668e-05
8.76988e-07
8.25072e-05
9.19335e-07
9.56501e-07
8.25558e-05
8.45122e-05
3.93138e-08
8.45241e-05
1.12148e-07
8.45401e-05
1.72099e-07
8.45576e-05
2.1883e-07
8.45756e-05
2.55379e-07
8.45934e-05
2.84237e-07
8.46104e-05
3.07042e-07
8.46263e-05
3.25331e-07
8.46411e-05
3.40471e-07
8.46548e-05
3.53482e-07
8.46672e-05
3.65133e-07
8.46784e-05
3.76041e-07
8.46885e-05
3.86717e-07
8.46973e-05
3.97579e-07
8.47051e-05
4.08989e-07
8.47117e-05
4.21267e-07
8.47173e-05
4.34708e-07
8.47219e-05
4.49595e-07
8.47257e-05
4.66198e-07
8.47287e-05
4.8478e-07
8.47314e-05
5.05594e-07
8.47338e-05
5.28875e-07
8.47366e-05
5.54821e-07
8.47401e-05
5.83573e-07
8.47452e-05
6.15176e-07
8.47526e-05
6.49536e-07
8.47633e-05
6.86366e-07
8.47783e-05
7.2513e-07
8.47988e-05
7.64993e-07
8.48257e-05
8.04803e-07
8.48595e-05
8.43118e-07
8.49006e-05
8.78311e-07
9.08786e-07
8.49483e-05
8.6926e-05
3.55272e-08
8.69363e-05
1.01829e-07
8.69506e-05
1.5775e-07
8.69669e-05
2.02582e-07
8.69839e-05
2.38381e-07
8.70009e-05
2.67193e-07
8.70175e-05
2.90472e-07
8.70333e-05
3.09543e-07
8.70481e-05
3.25611e-07
8.7062e-05
3.39627e-07
8.70748e-05
3.52319e-07
8.70866e-05
3.6428e-07
8.70973e-05
3.75997e-07
8.7107e-05
3.87877e-07
8.71157e-05
4.00266e-07
8.71235e-05
4.13467e-07
8.71305e-05
4.27754e-07
8.71367e-05
4.43379e-07
8.71423e-05
4.60575e-07
8.71475e-05
4.79556e-07
8.71526e-05
5.00513e-07
8.71579e-05
5.23604e-07
8.71638e-05
5.48937e-07
8.71708e-05
5.76551e-07
8.71796e-05
6.06385e-07
8.71909e-05
6.38244e-07
8.72055e-05
6.71763e-07
8.72242e-05
7.06378e-07
8.72479e-05
7.41304e-07
8.72772e-05
7.75542e-07
8.73124e-05
8.07926e-07
8.73535e-05
8.3721e-07
8.62245e-07
8.74e-05
8.94088e-05
3.22446e-08
8.94179e-05
9.27401e-08
8.94309e-05
1.44755e-07
8.9446e-05
1.87474e-07
8.94621e-05
2.22266e-07
8.94785e-05
2.50771e-07
8.94948e-05
2.74257e-07
8.95104e-05
2.93867e-07
8.95254e-05
3.10658e-07
8.95395e-05
3.25498e-07
8.95528e-05
3.39069e-07
8.95651e-05
3.51929e-07
8.95766e-05
3.64539e-07
8.95872e-05
3.77285e-07
8.95969e-05
3.90492e-07
8.9606e-05
4.04443e-07
8.96143e-05
4.19386e-07
8.96222e-05
4.3554e-07
8.96297e-05
4.531e-07
8.9637e-05
4.72231e-07
8.96444e-05
4.93067e-07
8.96523e-05
5.15699e-07
8.96611e-05
5.40161e-07
8.96712e-05
5.66413e-07
8.96833e-05
5.94319e-07
8.96979e-05
6.23623e-07
8.97158e-05
6.53928e-07
8.97375e-05
6.84682e-07
8.97636e-05
7.1518e-07
8.97945e-05
7.44578e-07
8.98305e-05
7.71944e-07
8.98714e-05
7.96332e-07
8.16914e-07
8.99167e-05
9.19628e-05
2.9346e-08
9.19709e-05
8.46232e-08
9.19827e-05
1.32883e-07
9.19969e-05
1.73346e-07
9.20122e-05
2.06915e-07
9.20281e-05
2.34879e-07
9.2044e-05
2.58328e-07
9.20597e-05
2.78247e-07
9.20748e-05
2.95557e-07
9.20892e-05
3.11038e-07
9.2103e-05
3.25321e-07
9.2116e-05
3.38922e-07
9.21282e-05
3.52271e-07
9.21398e-05
3.65728e-07
9.21507e-05
3.79594e-07
9.2161e-05
3.94125e-07
9.21709e-05
4.09543e-07
9.21804e-05
4.26032e-07
9.21897e-05
4.43748e-07
9.21991e-05
4.62812e-07
9.22089e-05
4.83308e-07
9.22193e-05
5.05269e-07
9.22308e-05
5.28671e-07
9.22438e-05
5.53418e-07
9.22588e-05
5.79324e-07
9.22763e-05
6.06104e-07
9.22969e-05
6.3336e-07
9.2321e-05
6.60578e-07
9.2349e-05
6.87142e-07
9.23813e-05
7.12353e-07
9.24177e-05
7.35477e-07
9.24583e-05
7.55797e-07
7.72717e-07
9.25025e-05
9.45898e-05
2.67418e-08
9.45971e-05
7.7269e-08
9.46081e-05
1.21929e-07
9.46214e-05
1.60043e-07
9.46361e-05
1.92204e-07
9.46515e-05
2.19418e-07
9.46673e-05
2.42608e-07
9.46829e-05
2.62619e-07
9.46982e-05
2.80248e-07
9.47131e-05
2.96189e-07
9.47274e-05
3.11013e-07
9.47411e-05
3.25193e-07
9.47542e-05
3.39124e-07
9.47668e-05
3.53135e-07
9.47789e-05
3.675e-07
9.47906e-05
3.82447e-07
9.4802e-05
3.98165e-07
9.48132e-05
4.14809e-07
9.48245e-05
4.32496e-07
9.4836e-05
4.51308e-07
9.4848e-05
4.71283e-07
9.48608e-05
4.9241e-07
9.48749e-05
5.14622e-07
9.48905e-05
5.37785e-07
9.49082e-05
5.61686e-07
9.49282e-05
5.86032e-07
9.49512e-05
6.10443e-07
9.49773e-05
6.34459e-07
9.50069e-05
6.57553e-07
9.50401e-05
6.79157e-07
9.50768e-05
6.98694e-07
9.5117e-05
7.15626e-07
7.29527e-07
9.51602e-05
9.72919e-05
2.43627e-08
9.72987e-05
7.05081e-08
9.73089e-05
1.1171e-07
9.73215e-05
1.47411e-07
9.73357e-05
1.78011e-07
9.73508e-05
2.04288e-07
9.73664e-05
2.27013e-07
9.73821e-05
2.46911e-07
9.73977e-05
2.64666e-07
9.7413e-05
2.80885e-07
9.7428e-05
2.9608e-07
9.74425e-05
3.10678e-07
9.74566e-05
3.25033e-07
9.74703e-05
3.39442e-07
9.74836e-05
3.54148e-07
9.74967e-05
3.6935e-07
9.75097e-05
3.85207e-07
9.75226e-05
4.0184e-07
9.75358e-05
4.19335e-07
9.75494e-05
4.37736e-07
9.75636e-05
4.57047e-07
9.75788e-05
4.77222e-07
9.75952e-05
4.98163e-07
9.76133e-05
5.19713e-07
9.76334e-05
5.41651e-07
9.76557e-05
5.63691e-07
9.76806e-05
5.85484e-07
9.77085e-05
6.06627e-07
9.77394e-05
6.26679e-07
9.77733e-05
6.45181e-07
9.78103e-05
6.61688e-07
9.78502e-05
6.75795e-07
6.87202e-07
9.78925e-05
0.000100071
2.21538e-08
0.000100078
6.42004e-08
0.000100087
1.02061e-07
0.000100099
1.35305e-07
0.000100113
1.6421e-07
0.000100128
1.8938e-07
0.000100144
2.11454e-07
0.000100159
2.31046e-07
0.000100175
2.48739e-07
0.000100191
2.65059e-07
0.000100207
2.80458e-07
0.000100222
2.95312e-07
0.000100237
3.09935e-07
0.000100252
3.24588e-07
0.000100267
3.39483e-07
0.000100281
3.54789e-07
0.000100296
3.70633e-07
0.000100311
3.87109e-07
0.000100326
4.0427e-07
0.000100341
4.22132e-07
0.000100358
4.40668e-07
0.000100375
4.5981e-07
0.000100394
4.7944e-07
0.000100414
4.9939e-07
0.000100436
5.19442e-07
0.000100461
5.39327e-07
0.000100488
5.58735e-07
0.000100517
5.77319e-07
0.000100549
5.94716e-07
0.000100583
6.10559e-07
0.000100621
6.24507e-07
0.00010066
6.36258e-07
6.45603e-07
0.000100702
0.00010293
2.00703e-08
0.000102936
5.82278e-08
0.000102945
9.28371e-08
0.000102957
1.23585e-07
0.000102971
1.50676e-07
0.000102985
1.74585e-07
0.000103001
1.95833e-07
0.000103017
2.14937e-07
0.000103033
2.3239e-07
0.00010305
2.48641e-07
0.000103066
2.64079e-07
0.000103083
2.79031e-07
0.000103099
2.9377e-07
0.000103115
3.0852e-07
0.000103131
3.23459e-07
0.000103147
3.38727e-07
0.000103163
3.54422e-07
0.00010318
3.7061e-07
0.000103197
3.87319e-07
0.000103214
4.04538e-07
0.000103233
4.22222e-07
0.000103252
4.40283e-07
0.000103273
4.58595e-07
0.000103295
4.76987e-07
0.00010332
4.95254e-07
0.000103346
5.1315e-07
0.000103374
5.30404e-07
0.000103405
5.46725e-07
0.000103438
5.61814e-07
0.000103473
5.75384e-07
0.00010351
5.87174e-07
0.000103549
5.96962e-07
6.04605e-07
0.00010359
0.000105871
1.80742e-08
0.000105876
5.24882e-08
0.000105885
8.39043e-08
0.000105897
1.12115e-07
0.00010591
1.37284e-07
0.000105925
1.59786e-07
0.000105941
1.80047e-07
0.000105957
1.98493e-07
0.000105974
2.15536e-07
0.000105991
2.31553e-07
0.000106008
2.46872e-07
0.000106026
2.61771e-07
0.000106043
2.7648e-07
0.00010606
2.91186e-07
0.000106078
3.06035e-07
0.000106095
3.21135e-07
0.000106113
3.36561e-07
0.000106131
3.5235e-07
0.00010615
3.68509e-07
0.00010617
3.8501e-07
0.00010619
4.01789e-07
0.000106212
4.1875e-07
0.000106235
4.35762e-07
0.000106259
4.52664e-07
0.000106285
4.69263e-07
0.000106313
4.85341e-07
0.000106342
5.00666e-07
0.000106374
5.14994e-07
0.000106408
5.28087e-07
0.000106444
5.3972e-07
0.000106481
5.49695e-07
0.00010652
5.57851e-07
5.64094e-07
0.000106561
0.000108895
1.61323e-08
0.000108901
4.6891e-08
0.00010891
7.51395e-08
0.000108921
1.00763e-07
0.000108934
1.23906e-07
0.000108949
1.44866e-07
0.000108965
1.63986e-07
0.000108982
1.81615e-07
0.000109
1.98089e-07
0.000109018
2.13716e-07
0.000109036
2.28767e-07
0.000109054
2.43469e-07
0.000109072
2.58011e-07
0.000109091
2.72542e-07
0.00010911
2.87176e-07
0.000109129
3.01994e-07
0.000109149
3.17044e-07
0.000109169
3.32343e-07
0.000109189
3.47877e-07
0.000109211
3.63604e-07
0.000109233
3.7945e-07
0.000109256
3.95315e-07
0.000109281
4.11071e-07
0.000109307
4.26563e-07
0.000109335
4.4162e-07
0.000109364
4.56052e-07
0.000109395
4.69661e-07
0.000109428
4.82248e-07
0.000109462
4.93622e-07
0.000109498
5.0361e-07
0.000109536
5.12065e-07
0.000109575
5.18871e-07
5.2397e-07
0.000109615
0.000112006
1.42148e-08
0.000112012
4.13532e-08
0.000112021
6.64256e-08
0.000112032
8.93991e-08
0.000112046
1.10411e-07
0.000112061
1.29699e-07
0.000112077
1.47535e-07
0.000112095
1.64198e-07
0.000112113
1.79953e-07
0.000112131
1.95045e-07
0.00011215
2.09687e-07
0.00011217
2.24058e-07
0.00011219
2.38306e-07
0.00011221
2.52543e-07
0.00011223
2.66852e-07
0.000112251
2.81287e-07
0.000112272
2.95873e-07
0.000112293
3.10607e-07
0.000112316
3.25461e-07
0.000112339
3.40381e-07
0.000112363
3.55288e-07
0.000112389
3.7008e-07
0.000112415
3.84635e-07
0.000112443
3.98813e-07
0.000112472
4.12459e-07
0.000112503
4.25412e-07
0.000112535
4.37506e-07
0.000112568
4.48579e-07
0.000112603
4.58482e-07
0.00011264
4.67082e-07
0.000112678
4.74271e-07
0.000112717
4.79968e-07
4.84141e-07
0.000112757
0.000115206
1.22933e-08
0.000115212
3.57954e-08
0.000115221
5.76484e-08
0.000115232
7.7893e-08
0.000115246
9.66645e-08
0.000115262
1.14154e-07
0.000115278
1.30571e-07
0.000115297
1.46128e-07
0.000115315
1.61026e-07
0.000115335
1.75448e-07
0.000115355
1.89552e-07
0.000115376
2.03472e-07
0.000115397
2.17311e-07
0.000115418
2.31148e-07
0.00011544
2.45035e-07
0.000115462
2.59002e-07
0.000115485
2.73052e-07
0.000115509
2.87166e-07
0.000115533
3.01303e-07
0.000115558
3.154e-07
0.000115584
3.29378e-07
0.000115611
3.43136e-07
0.000115639
3.5656e-07
0.000115668
3.69523e-07
0.000115698
3.81892e-07
0.00011573
3.93527e-07
0.000115764
4.04294e-07
0.000115798
4.14061e-07
0.000115834
4.22713e-07
0.000115871
4.3015e-07
0.000115909
4.36294e-07
0.000115948
4.41089e-07
4.44524e-07
0.000115987
0.000118498
1.03399e-08
0.000118503
3.01392e-08
0.000118512
4.86927e-08
0.000118524
6.61089e-08
0.000118538
8.25252e-08
0.000118554
9.80919e-08
0.000118572
1.12962e-07
0.000118591
1.27284e-07
0.000118611
1.41198e-07
0.000118631
1.54829e-07
0.000118653
1.6828e-07
0.000118674
1.81639e-07
0.000118697
1.94968e-07
0.00011872
2.08314e-07
0.000118743
2.21699e-07
0.000118767
2.35128e-07
0.000118791
2.48587e-07
0.000118816
2.62041e-07
0.000118842
2.75441e-07
0.000118869
2.88719e-07
0.000118897
3.01792e-07
0.000118925
3.14567e-07
0.000118955
3.26937e-07
0.000118985
3.38791e-07
0.000119017
3.50012e-07
0.00011905
3.60485e-07
0.000119085
3.70098e-07
0.00011912
3.78748e-07
0.000119156
3.86346e-07
0.000119194
3.92817e-07
0.000119232
3.98108e-07
0.000119271
4.02182e-07
4.0504e-07
0.00011931
0.000121883
8.32578e-09
0.000121889
2.43026e-08
0.000121898
3.94371e-08
0.000121911
5.39028e-08
0.000121925
6.78404e-08
0.000121942
8.13613e-08
0.00012196
9.45625e-08
0.00012198
1.07533e-07
0.000122001
1.20351e-07
0.000122023
1.33083e-07
0.000122045
1.45782e-07
0.000122068
1.58486e-07
0.000122092
1.71221e-07
0.000122116
1.83999e-07
0.000122141
1.96816e-07
0.000122167
2.09655e-07
0.000122193
2.22484e-07
0.00012222
2.35256e-07
0.000122247
2.47914e-07
0.000122276
2.60387e-07
0.000122305
2.72593e-07
0.000122335
2.84445e-07
0.000122366
2.95845e-07
0.000122398
3.06696e-07
0.000122431
3.16897e-07
0.000122465
3.26353e-07
0.0001225
3.34973e-07
0.000122537
3.42677e-07
0.000122573
3.49396e-07
0.000122611
3.55077e-07
0.00012265
3.59684e-07
0.000122689
3.63194e-07
3.65619e-07
0.000122728
0.000125366
6.21937e-09
0.000125372
1.81959e-08
0.000125381
2.9748e-08
0.000125394
4.11155e-08
0.00012541
5.24412e-08
0.000125427
6.37948e-08
0.000125446
7.52152e-08
0.000125467
8.67292e-08
0.000125489
9.83542e-08
0.000125512
1.10098e-07
0.000125536
1.2196e-07
0.000125561
1.33934e-07
0.000125586
1.46007e-07
0.000125612
1.58159e-07
0.000125638
1.70359e-07
0.000125665
1.82571e-07
0.000125693
1.94746e-07
0.000125721
2.06829e-07
0.000125751
2.18755e-07
0.00012578
2.3045e-07
0.000125811
2.41837e-07
0.000125843
2.52833e-07
0.000125875
2.6335e-07
0.000125909
2.73303e-07
0.000125943
2.82608e-07
0.000125978
2.91184e-07
0.000126014
2.98959e-07
0.000126051
3.05872e-07
0.000126089
3.1187e-07
0.000126127
3.16917e-07
0.000126165
3.20988e-07
0.000126205
3.24073e-07
3.26189e-07
0.000126244
0.000128947
3.98421e-09
0.000128954
1.17152e-08
0.000128964
1.94714e-08
0.000128978
2.75647e-08
0.000128994
3.61356e-08
0.000129013
4.52034e-08
0.000129033
5.47412e-08
0.000129055
6.47102e-08
0.000129078
7.50632e-08
0.000129103
8.57476e-08
0.000129128
9.67096e-08
0.000129154
1.07897e-07
0.000129181
1.19259e-07
0.000129208
1.30744e-07
0.000129236
1.42297e-07
0.000129265
1.53861e-07
0.000129294
1.65376e-07
0.000129324
1.76775e-07
0.000129355
1.8799e-07
0.000129387
1.98947e-07
0.000129419
2.0957e-07
0.000129452
2.19781e-07
0.000129486
2.29505e-07
0.00012952
2.38665e-07
0.000129556
2.4719e-07
0.000129592
2.55015e-07
0.000129629
2.62083e-07
0.000129666
2.68345e-07
0.000129704
2.73764e-07
0.000129743
2.78314e-07
0.000129782
2.81981e-07
0.000129821
2.84764e-07
2.86682e-07
0.000129861
0.000132631
1.57571e-09
0.000132638
4.73337e-09
0.00013265
8.42075e-09
0.000132664
1.3033e-08
0.000132681
1.86986e-08
0.000132701
2.53684e-08
0.000132723
3.2937e-08
0.000132747
4.1292e-08
0.000132771
5.0317e-08
0.000132797
5.98949e-08
0.000132824
6.9916e-08
0.000132852
8.0282e-08
0.00013288
9.0904e-08
0.000132909
1.017e-07
0.000132939
1.12592e-07
0.000132969
1.23506e-07
0.000133
1.34367e-07
0.000133032
1.45103e-07
0.000133064
1.55641e-07
0.000133097
1.65906e-07
0.000133131
1.75826e-07
0.000133165
1.8533e-07
0.0001332
1.94349e-07
0.000133236
2.02818e-07
0.000133273
2.10676e-07
0.00013331
2.17871e-07
0.000133348
2.24356e-07
0.000133386
2.30096e-07
0.000133425
2.35062e-07
0.000133464
2.3924e-07
0.000133503
2.42622e-07
0.000133543
2.45211e-07
2.47029e-07
0.000133582
0.000136421
-1.06378e-09
0.000136429
-2.91353e-09
0.000136441
-3.64067e-09
0.000136456
-2.74848e-09
0.000136475
-1.40932e-10
0.000136497
4.03181e-09
0.00013652
9.56547e-09
0.000136545
1.6264e-08
0.000136571
2.39335e-08
0.000136599
3.23859e-08
0.000136627
4.1452e-08
0.000136657
5.09861e-08
0.000136687
6.08621e-08
0.000136717
7.09684e-08
0.000136749
8.12049e-08
0.000136781
9.14804e-08
0.000136813
1.0171e-07
0.000136847
1.11815e-07
0.000136881
1.21718e-07
0.000136915
1.31346e-07
0.00013695
1.40631e-07
0.000136986
1.49506e-07
0.000137023
1.5791e-07
0.00013706
1.65786e-07
0.000137097
1.73083e-07
0.000137135
1.7976e-07
0.000137174
1.85778e-07
0.000137213
1.91112e-07
0.000137252
1.95742e-07
0.000137292
1.99659e-07
0.000137332
2.02861e-07
0.000137372
2.05355e-07
2.07164e-07
0.000137411
0.000140319
-4.01312e-09
0.000140327
-1.14492e-08
0.000140341
-1.70276e-08
0.000140358
-2.01235e-08
0.000140379
-2.07176e-08
0.000140402
-1.91169e-08
0.000140427
-1.56529e-08
0.000140454
-1.06182e-08
0.000140482
-4.29573e-09
0.000140511
3.04593e-09
0.000140542
1.1174e-08
0.000140573
1.98945e-08
0.000140605
2.90441e-08
0.000140637
3.84823e-08
0.00014067
4.8088e-08
0.000140704
5.77552e-08
0.000140738
6.73896e-08
0.000140773
7.69062e-08
0.000140809
8.62269e-08
0.000140845
9.52801e-08
0.000140881
1.04e-07
0.000140919
1.12325e-07
0.000140956
1.20201e-07
0.000140994
1.27579e-07
0.000141033
1.34417e-07
0.000141072
1.40679e-07
0.000141112
1.46338e-07
0.000141151
1.51372e-07
0.000141191
1.55769e-07
0.000141231
1.59524e-07
0.000141272
1.6264e-07
0.000141312
1.65125e-07
1.67e-07
0.000141352
0.000144328
-7.38656e-09
0.000144338
-2.11955e-08
0.000144353
-3.21761e-08
0.000144372
-3.95449e-08
0.000144395
-4.34548e-08
0.00014442
-4.44594e-08
0.000144448
-4.30506e-08
0.000144477
-3.96343e-08
0.000144507
-3.4602e-08
0.000144538
-2.83152e-08
0.000144571
-2.10738e-08
0.000144604
-1.31195e-08
0.000144637
-4.65217e-09
0.000144672
4.16069e-09
0.000144707
1.31785e-08
0.000144742
2.22825e-08
0.000144778
3.13706e-08
0.000144815
4.03535e-08
0.000144852
4.91524e-08
0.000144889
5.76972e-08
0.000144927
6.59254e-08
0.000144966
7.37814e-08
0.000145005
8.12164e-08
0.000145044
8.81882e-08
0.000145084
9.46611e-08
0.000145124
1.00607e-07
0.000145164
1.06003e-07
0.000145205
1.10835e-07
0.000145246
1.15094e-07
0.000145286
1.1878e-07
0.000145327
1.21898e-07
0.000145368
1.24457e-07
1.26479e-07
0.000145408
0.000148452
-1.13598e-08
0.000148463
-3.26454e-08
0.000148481
-4.97137e-08
0.000148503
-6.16137e-08
0.000148528
-6.88902e-08
0.000148556
-7.24789e-08
0.000148586
-7.30496e-08
0.000148618
-7.1136e-08
0.000148651
-6.72687e-08
0.000148684
-6.19206e-08
0.000148719
-5.5463e-08
0.000148754
-4.81851e-08
0.000148789
-4.0322e-08
0.000148826
-3.20661e-08
0.000148862
-2.3574e-08
0.0001489
-1.49743e-08
0.000148937
-6.37427e-09
0.000148976
2.13489e-09
0.000149014
1.04751e-08
0.000149053
1.85789e-08
0.000149093
2.6388e-08
0.000149133
3.38518e-08
0.000149173
4.09271e-08
0.000149214
4.75777e-08
0.000149255
5.37738e-08
0.000149296
5.94922e-08
0.000149337
6.4716e-08
0.000149378
6.94345e-08
0.00014942
7.36426e-08
0.000149461
7.73408e-08
0.000149503
8.05346e-08
0.000149544
8.32329e-08
8.54546e-08
0.000149585
0.000152694
-1.62147e-08
0.000152708
-4.65983e-08
0.000152729
-7.06003e-08
0.000152754
-8.71564e-08
0.000152783
-9.76867e-08
0.000152814
-1.03718e-07
0.000152847
-1.06095e-07
0.000152882
-1.05497e-07
0.000152917
-1.02623e-07
0.000152953
-9.80641e-08
0.00015299
-9.22586e-08
0.000153027
-8.55401e-08
0.000153065
-7.81774e-08
0.000153104
-7.03856e-08
0.000153142
-6.23344e-08
0.000153182
-5.41593e-08
0.000153221
-4.59708e-08
0.000153261
-3.78597e-08
0.000153302
-2.9902e-08
0.000153342
-2.21611e-08
0.000153383
-1.46906e-08
0.000153425
-7.53575e-09
0.000153466
-7.34034e-10
0.000153508
5.68377e-09
0.00015355
1.16931e-08
0.000153593
1.72756e-08
0.000153635
2.24183e-08
0.000153677
2.71138e-08
0.000153719
3.13599e-08
0.000153762
3.51592e-08
0.000153804
3.85191e-08
0.000153845
4.14514e-08
4.39737e-08
0.000153887
0.000157058
-2.24713e-08
0.000157075
-6.43569e-08
0.000157101
-9.62609e-08
0.000157131
-1.17427e-07
0.000157165
-1.30968e-07
0.0001572
-1.39112e-07
0.000157237
-1.42873e-07
0.000157275
-1.43181e-07
0.000157313
-1.40979e-07
0.000157352
-1.36972e-07
0.000157391
-1.31639e-07
0.000157431
-1.25345e-07
0.000157471
-1.1838e-07
0.000157512
-1.10968e-07
0.000157553
-1.03284e-07
0.000157594
-9.54619e-08
0.000157636
-8.76113e-08
0.000157678
-7.98198e-08
0.00015772
-7.21592e-08
0.000157762
-6.46884e-08
0.000157805
-5.74562e-08
0.000157848
-5.05029e-08
0.000157891
-4.38615e-08
0.000157935
-3.75585e-08
0.000157978
-3.16145e-08
0.000158021
-2.60448e-08
0.000158064
-2.08599e-08
0.000158108
-1.60657e-08
0.000158151
-1.16641e-08
0.000158193
-7.65367e-09
0.000158236
-4.0303e-09
0.000158278
-7.88637e-10
2.08474e-09
0.00015832
0.000161547
-3.13519e-08
0.000161572
-8.85747e-08
0.000161604
-1.2839e-07
0.00016164
-1.53379e-07
0.000161678
-1.69791e-07
0.000161719
-1.79968e-07
0.000161761
-1.8483e-07
0.000161804
-1.85698e-07
0.000161847
-1.83831e-07
0.00016189
-1.80045e-07
0.000161933
-1.74863e-07
0.000161976
-1.68686e-07
0.00016202
-1.61825e-07
0.000162063
-1.54513e-07
0.000162107
-1.46923e-07
0.000162151
-1.39188e-07
0.000162194
-1.31411e-07
0.000162238
-1.23677e-07
0.000162282
-1.16052e-07
0.000162326
-1.0859e-07
0.00016237
-1.01336e-07
0.000162414
-9.43259e-08
0.000162457
-8.75897e-08
0.000162501
-8.11506e-08
0.000162544
-7.50268e-08
0.000162588
-6.92315e-08
0.000162631
-6.37734e-08
0.000162673
-5.86572e-08
0.000162715
-5.38835e-08
0.000162757
-4.94488e-08
0.000162799
-4.53459e-08
0.000162839
-4.15625e-08
-3.80883e-08
0.000162879
0.000166166
-4.41073e-08
0.000166205
-1.26811e-07
0.000166249
-1.73074e-07
0.000166295
-1.99465e-07
0.000166343
-2.17461e-07
0.000166392
-2.28644e-07
0.000166441
-2.33778e-07
0.00016649
-2.34619e-07
0.000166538
-2.32583e-07
0.000166587
-2.28466e-07
0.000166635
-2.22796e-07
0.000166682
-2.16013e-07
0.000166729
-2.08464e-07
0.000166775
-2.0041e-07
0.00016682
-1.92043e-07
0.000166864
-1.83514e-07
0.000166908
-1.74943e-07
0.00016695
-1.66421e-07
0.000166992
-1.58023e-07
0.000167033
-1.49806e-07
0.000167074
-1.41816e-07
0.000167114
-1.34087e-07
0.000167153
-1.26649e-07
0.000167191
-1.1952e-07
0.000167229
-1.12717e-07
0.000167266
-1.06249e-07
0.000167302
-1.00122e-07
0.000167338
-9.43386e-08
0.000167373
-8.88986e-08
0.000167407
-8.38e-08
0.000167441