/*--------------------------------*- C++ -*----------------------------------*\
| =========                 |                                                 |
| \\      /  F ield         | OpenFOAM: The Open Source CFD Toolbox           |
|  \\    /   O peration     | Version:  4.1                                   |
|   \\  /    A nd           | Web:      www.OpenFOAM.org                      |
|    \\/     M anipulation  |                                                 |
\*---------------------------------------------------------------------------*/
FoamFile
{
    version     2.0;
    format      ascii;
    class       volVectorField;
    location    "1000";
    object      U;
}
// * * * * * * * * * * * * * * * * * * * * * * * * * * * * * * * * * * * * * //

dimensions      [0 1 -1 0 0 0 0];

internalField   nonuniform List<vector> 
6820
(
(7.30076 0.0105784 0)
(7.26066 0.0145399 0)
(7.22719 0.0116116 0)
(7.19817 0.00889172 0)
(7.17426 0.00729665 0)
(7.15367 0.00634268 0)
(7.13496 0.00573836 0)
(7.11768 0.00533696 0)
(7.10162 0.00504566 0)
(7.08659 0.00481608 0)
(7.07241 0.00462889 0)
(7.05895 0.00447614 0)
(7.04611 0.00435325 0)
(7.0338 0.00425722 0)
(7.02193 0.00418639 0)
(7.01043 0.00414017 0)
(6.99921 0.00411903 0)
(6.98822 0.00412452 0)
(6.97736 0.00415954 0)
(6.96655 0.00422877 0)
(6.95572 0.00433925 0)
(6.94473 0.00450162 0)
(6.93346 0.0047321 0)
(6.92173 0.00505623 0)
(6.9093 0.00551584 0)
(6.89579 0.00618423 0)
(6.88068 0.00719743 0)
(6.86285 0.00882922 0)
(6.8411 0.0117047 0)
(6.8091 0.0171945 0)
(6.77016 0.028656 0)
(6.65296 0.0702447 0)
(6.6399 -0.0294858 0)
(7.3396 0.0129479 0)
(7.34154 0.0168192 0)
(7.32732 0.0138363 0)
(7.30715 0.0119873 0)
(7.28756 0.0109487 0)
(7.26941 0.0100963 0)
(7.25237 0.00941833 0)
(7.23638 0.0089035 0)
(7.22139 0.00849446 0)
(7.20725 0.0081584 0)
(7.19383 0.00788292 0)
(7.18104 0.00766002 0)
(7.1688 0.00748326 0)
(7.15703 0.00734852 0)
(7.14567 0.00725386 0)
(7.13465 0.00719904 0)
(7.12392 0.00718542 0)
(7.11342 0.00721622 0)
(7.10308 0.00729685 0)
(7.09285 0.00743563 0)
(7.08265 0.00764489 0)
(7.0724 0.00794292 0)
(7.062 0.00835724 0)
(7.05135 0.0089304 0)
(7.0403 0.00973146 0)
(7.02865 0.0108758 0)
(7.01619 0.0125806 0)
(7.00247 0.0152258 0)
(6.9876 0.0197888 0)
(6.96985 0.0276033 0)
(6.955 0.04546 0)
(6.93765 0.0768912 0)
(6.97927 0.170817 0)
(7.33613 0.0108741 0)
(7.34462 0.0173199 0)
(7.34579 0.0178695 0)
(7.34012 0.017878 0)
(7.33147 0.0174235 0)
(7.3215 0.0166039 0)
(7.31078 0.0157927 0)
(7.29981 0.0151129 0)
(7.2889 0.0145451 0)
(7.27817 0.014068 0)
(7.26765 0.0136718 0)
(7.25736 0.0133483 0)
(7.2473 0.0130906 0)
(7.23746 0.0128951 0)
(7.2278 0.0127607 0)
(7.21831 0.0126884 0)
(7.20895 0.0126815 0)
(7.19968 0.0127458 0)
(7.19046 0.0128907 0)
(7.18123 0.0131295 0)
(7.17195 0.0134817 0)
(7.16254 0.0139754 0)
(7.15292 0.0146517 0)
(7.14298 0.0155724 0)
(7.13258 0.0168334 0)
(7.12156 0.0185856 0)
(7.10971 0.0210939 0)
(7.09672 0.0247712 0)
(7.08259 0.0305479 0)
(7.0667 0.0394889 0)
(7.05209 0.0556587 0)
(7.03857 0.079973 0)
(7.0509 0.126595 0)
(7.33465 0.00788231 0)
(7.34191 0.0151073 0)
(7.34712 0.0174405 0)
(7.34828 0.0186842 0)
(7.34686 0.0192151 0)
(7.3437 0.0191485 0)
(7.3391 0.0188425 0)
(7.33348 0.0184844 0)
(7.32722 0.0181219 0)
(7.32055 0.0177793 0)
(7.31362 0.017476 0)
(7.30651 0.0172219 0)
(7.2993 0.0170221 0)
(7.29201 0.0168805 0)
(7.28467 0.016802 0)
(7.27728 0.0167925 0)
(7.26984 0.0168597 0)
(7.26234 0.017014 0)
(7.25476 0.0172695 0)
(7.24705 0.0176457 0)
(7.23919 0.0181692 0)
(7.23112 0.0188775 0)
(7.22278 0.0198237 0)
(7.21408 0.0210854 0)
(7.20493 0.0227784 0)
(7.1952 0.0250773 0)
(7.18478 0.0282653 0)
(7.17352 0.0327576 0)
(7.16155 0.0393349 0)
(7.14889 0.0488161 0)
(7.13748 0.0634317 0)
(7.12827 0.0825344 0)
(7.13117 0.111079 0)
(7.334 0.00602356 0)
(7.33938 0.0130426 0)
(7.3447 0.0160232 0)
(7.34792 0.0178452 0)
(7.34963 0.0190478 0)
(7.35018 0.0196455 0)
(7.34954 0.0198901 0)
(7.34784 0.01997 0)
(7.34532 0.0199575 0)
(7.34218 0.0198958 0)
(7.33852 0.0198214 0)
(7.33444 0.0197592 0)
(7.33004 0.0197258 0)
(7.32535 0.0197344 0)
(7.32043 0.0197971 0)
(7.31529 0.019926 0)
(7.30995 0.0201345 0)
(7.30442 0.0204382 0)
(7.29868 0.020857 0)
(7.29273 0.021416 0)
(7.28653 0.022149 0)
(7.28006 0.0231011 0)
(7.27327 0.0243349 0)
(7.26611 0.0259381 0)
(7.25853 0.0280366 0)
(7.25046 0.0308112 0)
(7.24187 0.0345331 0)
(7.23276 0.039574 0)
(7.22335 0.0465254 0)
(7.21399 0.0559585 0)
(7.20606 0.0689896 0)
(7.20084 0.0849639 0)
(7.20248 0.105309 0)
(7.33365 0.00477998 0)
(7.33758 0.0112542 0)
(7.34215 0.0145219 0)
(7.34564 0.0166276 0)
(7.34826 0.0181727 0)
(7.35025 0.0191685 0)
(7.35148 0.0197979 0)
(7.35195 0.0202311 0)
(7.35176 0.0205405 0)
(7.35098 0.0207678 0)
(7.34969 0.0209513 0)
(7.34794 0.021121 0)
(7.34578 0.0212991 0)
(7.34327 0.0215042 0)
(7.34043 0.0217535 0)
(7.33729 0.022064 0)
(7.33386 0.0224539 0)
(7.33016 0.0229434 0)
(7.32619 0.0235571 0)
(7.32193 0.0243253 0)
(7.31739 0.0252869 0)
(7.31253 0.0264926 0)
(7.30735 0.0280105 0)
(7.30181 0.0299322 0)
(7.29589 0.0323839 0)
(7.28958 0.0355371 0)
(7.28293 0.0396296 0)
(7.27602 0.0449644 0)
(7.26913 0.0519527 0)
(7.26273 0.0609462 0)
(7.25782 0.0724177 0)
(7.25549 0.0858003 0)
(7.25759 0.100965 0)
(7.33343 0.00388672 0)
(7.33634 0.00974907 0)
(7.34013 0.0131375 0)
(7.34337 0.0153879 0)
(7.34606 0.0170933 0)
(7.34839 0.018308 0)
(7.35029 0.0191733 0)
(7.35169 0.0198403 0)
(7.35263 0.0203808 0)
(7.35314 0.0208339 0)
(7.35324 0.0212347 0)
(7.35295 0.021613 0)
(7.3523 0.021992 0)
(7.35131 0.0223918 0)
(7.34999 0.022832 0)
(7.34837 0.0233321 0)
(7.34644 0.0239129 0)
(7.34422 0.024598 0)
(7.34171 0.025415 0)
(7.3389 0.0263974 0)
(7.3358 0.0275873 0)
(7.33239 0.0290381 0)
(7.32866 0.030819 0)
(7.32462 0.03302 0)
(7.32027 0.0357591 0)
(7.31564 0.0391881 0)
(7.31082 0.0435012 0)
(7.30595 0.0489253 0)
(7.30132 0.0557224 0)
(7.29739 0.0640732 0)
(7.29487 0.0740989 0)
(7.29457 0.0853048 0)
(7.29735 0.0971227 0)
(7.3333 0.00323157 0)
(7.33547 0.00850278 0)
(7.33859 0.0118948 0)
(7.3415 0.0142189 0)
(7.34402 0.0160058 0)
(7.34631 0.0173488 0)
(7.34832 0.018361 0)
(7.35001 0.0191761 0)
(7.35138 0.0198683 0)
(7.35246 0.0204773 0)
(7.35324 0.0210367 0)
(7.35373 0.0215752 0)
(7.35393 0.0221162 0)
(7.35385 0.0226801 0)
(7.35349 0.0232869 0)
(7.35287 0.0239572 0)
(7.35197 0.024713 0)
(7.3508 0.0255794 0)
(7.34937 0.0265853 0)
(7.34766 0.0277659 0)
(7.34568 0.029164 0)
(7.34343 0.0308328 0)
(7.34091 0.032839 0)
(7.33814 0.0352662 0)
(7.33514 0.0382183 0)
(7.33197 0.0418215 0)
(7.32874 0.0462243 0)
(7.32561 0.0515831 0)
(7.32287 0.0580466 0)
(7.32088 0.0656765 0)
(7.32018 0.0744202 0)
(7.3213 0.0838579 0)
(7.32466 0.093403 0)
(7.33321 0.00274265 0)
(7.33487 0.00747188 0)
(7.33744 0.0107863 0)
(7.34 0.01314 0)
(7.34231 0.0149712 0)
(7.34445 0.0163959 0)
(7.3464 0.017508 0)
(7.34812 0.0184241 0)
(7.3496 0.0192192 0)
(7.35087 0.0199356 0)
(7.35192 0.0206071 0)
(7.35275 0.0212623 0)
(7.35337 0.021925 0)
(7.35377 0.0226162 0)
(7.35395 0.0233561 0)
(7.35391 0.0241657 0)
(7.35364 0.0250677 0)
(7.35315 0.0260874 0)
(7.35243 0.0272543 0)
(7.35149 0.0286031 0)
(7.35032 0.0301757 0)
(7.34893 0.0320225 0)
(7.34733 0.0342049 0)
(7.34555 0.0367966 0)
(7.34363 0.0398845 0)
(7.34165 0.0435674 0)
(7.33971 0.0479511 0)
(7.33798 0.0531331 0)
(7.33671 0.0591815 0)
(7.33619 0.0660834 0)
(7.3368 0.0737115 0)
(7.33889 0.0817168 0)
(7.34265 0.0896092 0)
(7.33315 0.00236905 0)
(7.33444 0.00661503 0)
(7.33656 0.00980008 0)
(7.33882 0.0121486 0)
(7.34092 0.0140002 0)
(7.3429 0.015478 0)
(7.34474 0.0166633 0)
(7.3464 0.0176555 0)
(7.34787 0.0185278 0)
(7.34918 0.0193244 0)
(7.35031 0.0200794 0)
(7.35127 0.020822 0)
(7.35207 0.0215769 0)
(7.35269 0.0223657 0)
(7.35314 0.0232092 0)
(7.35341 0.0241288 0)
(7.3535 0.0251473 0)
(7.35342 0.0262899 0)
(7.35315 0.0275855 0)
(7.35271 0.0290676 0)
(7.35209 0.0307755 0)
(7.35131 0.0327553 0)
(7.35038 0.0350611 0)
(7.34935 0.0377547 0)
(7.34826 0.0409052 0)
(7.34718 0.0445854 0)
(7.34624 0.0488642 0)
(7.34558 0.0537933 0)
(7.3454 0.0593874 0)
(7.34594 0.0655911 0)
(7.34745 0.0722548 0)
(7.35015 0.0790928 0)
(7.35411 0.0857255 0)
(7.33312 0.00207623 0)
(7.33413 0.00589792 0)
(7.3359 0.00892326 0)
(7.33788 0.0112374 0)
(7.33979 0.0130902 0)
(7.34161 0.0146004 0)
(7.34333 0.0158399 0)
(7.34492 0.0168928 0)
(7.34635 0.0178275 0)
(7.34764 0.018689 0)
(7.34879 0.0195113 0)
(7.34979 0.0203241 0)
(7.35066 0.0211526 0)
(7.35138 0.022019 0)
(7.35196 0.0229448 0)
(7.3524 0.0239514 0)
(7.3527 0.0250616 0)
(7.35286 0.0263002 0)
(7.35287 0.0276948 0)
(7.35276 0.0292769 0)
(7.35251 0.0310822 0)
(7.35216 0.0331516 0)
(7.35172 0.0355305 0)
(7.35124 0.0382688 0)
(7.35077 0.0414184 0)
(7.35038 0.0450286 0)
(7.35018 0.0491393 0)
(7.3503 0.0537685 0)
(7.35091 0.0588977 0)
(7.35216 0.0644514 0)
(7.35425 0.0702827 0)
(7.35729 0.0761616 0)
(7.36131 0.0818024 0)
(7.33309 0.00184092 0)
(7.33391 0.00529235 0)
(7.33539 0.00814287 0)
(7.33713 0.0103992 0)
(7.33886 0.0122366 0)
(7.34055 0.013762 0)
(7.34216 0.0150398 0)
(7.34367 0.0161409 0)
(7.34505 0.0171273 0)
(7.34631 0.0180434 0)
(7.34745 0.0189228 0)
(7.34847 0.0197949 0)
(7.34937 0.0206851 0)
(7.35015 0.021616 0)
(7.35081 0.0226091 0)
(7.35135 0.0236859 0)
(7.35178 0.0248687 0)
(7.3521 0.0261814 0)
(7.35231 0.02765 0)
(7.35242 0.0293032 0)
(7.35245 0.0311727 0)
(7.35241 0.0332931 0)
(7.35234 0.0357017 0)
(7.35227 0.0384363 0)
(7.35227 0.0415335 0)
(7.35239 0.0450233 0)
(7.35274 0.0489232 0)
(7.35343 0.0532284 0)
(7.35457 0.0579017 0)
(7.3563 0.0628613 0)
(7.35873 0.0679745 0)
(7.36193 0.0730579 0)
(7.3659 0.077899 0)
(7.33307 0.0016473 0)
(7.33374 0.00477545 0)
(7.33499 0.0074463 0)
(7.33652 0.00962661 0)
(7.3381 0.0114342 0)
(7.33966 0.01296 0)
(7.34117 0.0142618 0)
(7.34261 0.0153992 0)
(7.34395 0.0164278 0)
(7.34518 0.0173898 0)
(7.34631 0.018318 0)
(7.34734 0.0192411 0)
(7.34826 0.0201841 0)
(7.34909 0.0211695 0)
(7.34981 0.0222187 0)
(7.35043 0.0233527 0)
(7.35096 0.0245929 0)
(7.3514 0.0259619 0)
(7.35176 0.0274835 0)
(7.35205 0.0291834 0)
(7.3523 0.0310887 0)
(7.35251 0.0332281 0)
(7.35273 0.0356303 0)
(7.35299 0.0383227 0)
(7.35335 0.0413286 0)
(7.35387 0.0446629 0)
(7.35463 0.048327 0)
(7.35572 0.0523016 0)
(7.35724 0.0565405 0)
(7.35927 0.060964 0)
(7.36189 0.0654574 0)
(7.36513 0.0698755 0)
(7.36898 0.0740603 0)
(7.33306 0.00148441 0)
(7.33362 0.00432883 0)
(7.33469 0.00682161 0)
(7.33604 0.00891272 0)
(7.33747 0.0106778 0)
(7.33892 0.0121911 0)
(7.34034 0.0135037 0)
(7.34172 0.0146662 0)
(7.34301 0.0157274 0)
(7.34423 0.0167267 0)
(7.34535 0.0176958 0)
(7.34639 0.018662 0)
(7.34734 0.0196497 0)
(7.3482 0.0206809 0)
(7.34898 0.0217763 0)
(7.34967 0.022956 0)
(7.35029 0.0242405 0)
(7.35085 0.0256503 0)
(7.35134 0.027207 0)
(7.3518 0.0289327 0)
(7.35223 0.03085 0)
(7.35266 0.0329816 0)
(7.35312 0.0353487 0)
(7.35365 0.0379694 0)
(7.3543 0.0408564 0)
(7.35514 0.0440131 0)
(7.35621 0.0474299 0)
(7.3576 0.0510794 0)
(7.35937 0.0549128 0)
(7.36159 0.0588568 0)
(7.36429 0.0628148 0)
(7.36751 0.0666724 0)
(7.37121 0.0703118 0)
(7.33305 0.00134455 0)
(7.33353 0.00393788 0)
(7.33445 0.0062578 0)
(7.33565 0.00825053 0)
(7.33696 0.00996233 0)
(7.3383 0.0114517 0)
(7.33965 0.0127631 0)
(7.34097 0.0139396 0)
(7.34223 0.0150237 0)
(7.34342 0.0160518 0)
(7.34454 0.0170535 0)
(7.3456 0.0180548 0)
(7.34657 0.019079 0)
(7.34748 0.0201473 0)
(7.34831 0.0212793 0)
(7.34908 0.0224941 0)
(7.34979 0.0238104 0)
(7.35045 0.0252469 0)
(7.35108 0.0268225 0)
(7.35168 0.0285556 0)
(7.35228 0.0304647 0)
(7.35291 0.0325666 0)
(7.35358 0.0348759 0)
(7.35435 0.0374031 0)
(7.35524 0.0401525 0)
(7.35632 0.0431194 0)
(7.35764 0.0462874 0)
(7.35925 0.0496253 0)
(7.36119 0.0530854 0)
(7.36353 0.0566029 0)
(7.36626 0.0600978 0)
(7.36942 0.0634801 0)
(7.37295 0.0666616 0)
(7.33304 0.00122215 0)
(7.33345 0.00359096 0)
(7.33426 0.00574485 0)
(7.33534 0.00763316 0)
(7.33654 0.00928249 0)
(7.3378 0.0107378 0)
(7.33907 0.012037 0)
(7.34034 0.013217 0)
(7.34157 0.0143145 0)
(7.34275 0.0153623 0)
(7.34387 0.0163881 0)
(7.34494 0.0174162 0)
(7.34595 0.0184685 0)
(7.3469 0.0195648 0)
(7.34779 0.0207238 0)
(7.34864 0.0219629 0)
(7.34944 0.0232992 0)
(7.35021 0.0247492 0)
(7.35096 0.0263287 0)
(7.3517 0.0280531 0)
(7.35246 0.0299363 0)
(7.35326 0.0319904 0)
(7.35412 0.0342243 0)
(7.35509 0.0366424 0)
(7.3562 0.0392427 0)
(7.35748 0.042015 0)
(7.35899 0.0449393 0)
(7.36076 0.0479835 0)
(7.36283 0.0511034 0)
(7.36522 0.0542427 0)
(7.36796 0.057336 0)
(7.37103 0.0603128 0)
(7.37441 0.0631065 0)
(7.33304 0.00111312 0)
(7.3334 0.00327874 0)
(7.33411 0.00527381 0)
(7.33508 0.00705385 0)
(7.33619 0.00863303 0)
(7.33737 0.0100452 0)
(7.33859 0.0113222 0)
(7.33981 0.0124956 0)
(7.34102 0.0135969 0)
(7.34219 0.0146555 0)
(7.34332 0.0156966 0)
(7.34441 0.0167428 0)
(7.34545 0.0178144 0)
(7.34645 0.0189297 0)
(7.3474 0.0201058 0)
(7.34832 0.0213587 0)
(7.34921 0.0227034 0)
(7.35009 0.0241541 0)
(7.35096 0.025724 0)
(7.35183 0.0274251 0)
(7.35274 0.0292676 0)
(7.3537 0.0312593 0)
(7.35473 0.0334043 0)
(7.35588 0.0357025 0)
(7.35716 0.0381474 0)
(7.35861 0.0407257 0)
(7.36027 0.0434156 0)
(7.36216 0.0461861 0)
(7.36431 0.0489974 0)
(7.36674 0.0518019 0)
(7.36945 0.0545461 0)
(7.37244 0.0571747 0)
(7.37567 0.0596373 0)
(7.33304 0.00101432 0)
(7.33335 0.00299366 0)
(7.334 0.00483666 0)
(7.33488 0.00650607 0)
(7.33591 0.0080086 0)
(7.33703 0.00936943 0)
(7.33819 0.0106151 0)
(7.33938 0.0117722 0)
(7.34056 0.012868 0)
(7.34173 0.0139283 0)
(7.34287 0.014976 0)
(7.34398 0.0160315 0)
(7.34506 0.0171133 0)
(7.34611 0.0182382 0)
(7.34713 0.0194217 0)
(7.34812 0.0206779 0)
(7.3491 0.0220199 0)
(7.35008 0.0234595 0)
(7.35106 0.0250073 0)
(7.35206 0.0266724 0)
(7.3531 0.0284616 0)
(7.35421 0.0303791 0)
(7.35539 0.0324254 0)
(7.35669 0.0345969 0)
(7.35812 0.0368843 0)
(7.35971 0.0392726 0)
(7.36148 0.0417398 0)
(7.36347 0.0442572 0)
(7.36567 0.0467898 0)
(7.36811 0.0492974 0)
(7.37079 0.0517369 0)
(7.37369 0.0540648 0)
(7.37679 0.0562427 0)
(7.33303 0.000923334 0)
(7.33332 0.00272956 0)
(7.33391 0.0044263 0)
(7.33472 0.00598352 0)
(7.33569 0.00740382 0)
(7.33675 0.00870592 0)
(7.33787 0.00991157 0)
(7.33903 0.0110433 0)
(7.3402 0.0121246 0)
(7.34137 0.0131776 0)
(7.34252 0.0142229 0)
(7.34366 0.0152788 0)
(7.34477 0.0163619 0)
(7.34587 0.0174872 0)
(7.34695 0.0186684 0)
(7.34802 0.0199178 0)
(7.34909 0.0212464 0)
(7.35016 0.022664 0)
(7.35125 0.0241786 0)
(7.35237 0.0257967 0)
(7.35353 0.0275221 0)
(7.35477 0.0293563 0)
(7.35609 0.0312971 0)
(7.35751 0.0333382 0)
(7.35906 0.035469 0)
(7.36076 0.0376736 0)
(7.36263 0.0399312 0)
(7.36468 0.0422157 0)
(7.36692 0.0444967 0)
(7.36936 0.0467409 0)
(7.37199 0.0489134 0)
(7.37481 0.0509799 0)
(7.37778 0.0529112 0)
(7.33303 0.000838178 0)
(7.33329 0.00248125 0)
(7.33383 0.00403636 0)
(7.3346 0.00548014 0)
(7.33551 0.00681329 0)
(7.33653 0.00804983 0)
(7.33762 0.0092075 0)
(7.33876 0.0103053 0)
(7.33992 0.0113631 0)
(7.34109 0.0124001 0)
(7.34226 0.0134342 0)
(7.34342 0.0144816 0)
(7.34458 0.015557 0)
(7.34573 0.0166735 0)
(7.34687 0.017843 0)
(7.34801 0.019076 0)
(7.34916 0.0203814 0)
(7.35032 0.021767 0)
(7.35151 0.0232386 0)
(7.35274 0.0248002 0)
(7.35402 0.0264536 0)
(7.35536 0.0281977 0)
(7.3568 0.0300284 0)
(7.35833 0.0319381 0)
(7.35999 0.0339153 0)
(7.36178 0.0359443 0)
(7.36372 0.0380057 0)
(7.36581 0.0400765 0)
(7.36807 0.0421306 0)
(7.3705 0.0441405 0)
(7.37308 0.0460779 0)
(7.37581 0.047916 0)
(7.37868 0.0496322 0)
(7.33303 0.000757223 0)
(7.33327 0.00224432 0)
(7.33378 0.00366108 0)
(7.3345 0.00499011 0)
(7.33538 0.00623157 0)
(7.33636 0.00739616 0)
(7.33743 0.00849831 0)
(7.33855 0.00955394 0)
(7.3397 0.0105797 0)
(7.34088 0.0115921 0)
(7.34207 0.0126064 0)
(7.34327 0.0136367 0)
(7.34446 0.0146957 0)
(7.34566 0.0157946 0)
(7.34687 0.0169434 0)
(7.34808 0.0181508 0)
(7.3493 0.0194239 0)
(7.35055 0.0207685 0)
(7.35183 0.0221886 0)
(7.35316 0.023686 0)
(7.35454 0.0252608 0)
(7.35599 0.0269101 0)
(7.35752 0.0286285 0)
(7.35915 0.0304076 0)
(7.36089 0.0322356 0)
(7.36275 0.0340979 0)
(7.36474 0.0359766 0)
(7.36687 0.0378517 0)
(7.36913 0.039701 0)
(7.37154 0.0415018 0)
(7.37407 0.0432315 0)
(7.37673 0.0448687 0)
(7.37948 0.0463963 0)
(7.33303 0.000679062 0)
(7.33326 0.00201491 0)
(7.33374 0.00329518 0)
(7.33443 0.00450779 0)
(7.33528 0.00565316 0)
(7.33624 0.00673972 0)
(7.33728 0.00777922 0)
(7.3384 0.00878484 0)
(7.33956 0.00977048 0)
(7.34075 0.0107499 0)
(7.34196 0.0117361 0)
(7.34319 0.0127409 0)
(7.34443 0.013775 0)
(7.34568 0.0148478 0)
(7.34694 0.0159675 0)
(7.34822 0.0171409 0)
(7.34952 0.0183735 0)
(7.35085 0.0196693 0)
(7.35221 0.0210305 0)
(7.35362 0.0224575 0)
(7.35509 0.0239487 0)
(7.35663 0.0255002 0)
(7.35825 0.0271057 0)
(7.35996 0.0287564 0)
(7.36176 0.030441 0)
(7.36368 0.0321457 0)
(7.36571 0.0338548 0)
(7.36785 0.0355507 0)
(7.37011 0.037215 0)
(7.37249 0.0388288 0)
(7.37498 0.0403741 0)
(7.37756 0.0418338 0)
(7.38022 0.0431949 0)
(7.33303 0.000602447 0)
(7.33325 0.00178952 0)
(7.33371 0.00293372 0)
(7.33438 0.00402766 0)
(7.33521 0.0050725 0)
(7.33615 0.00607514 0)
(7.33719 0.00704514 0)
(7.3383 0.0079933 0)
(7.33947 0.008931 0)
(7.34068 0.00986953 0)
(7.34192 0.0108196 0)
(7.34318 0.0117908 0)
(7.34446 0.012792 0)
(7.34576 0.0138308 0)
(7.34708 0.0149135 0)
(7.34842 0.0160453 0)
(7.34979 0.0172301 0)
(7.35119 0.0184703 0)
(7.35264 0.0197667 0)
(7.35413 0.0211183 0)
(7.35568 0.0225225 0)
(7.35729 0.0239746 0)
(7.35898 0.0254679 0)
(7.36075 0.0269935 0)
(7.36261 0.0285409 0)
(7.36457 0.0300974 0)
(7.36662 0.0316491 0)
(7.36878 0.0331811 0)
(7.37103 0.0346779 0)
(7.37338 0.036124 0)
(7.37581 0.0375049 0)
(7.37832 0.0388071 0)
(7.3809 0.0400204 0)
(7.33302 0.000526225 0)
(7.33324 0.00156488 0)
(7.3337 0.00257196 0)
(7.33435 0.00354422 0)
(7.33517 0.00448387 0)
(7.3361 0.00539678 0)
(7.33714 0.00629068 0)
(7.33826 0.00717427 0)
(7.33944 0.00805663 0)
(7.34067 0.00894674 0)
(7.34194 0.00985303 0)
(7.34324 0.0107832 0)
(7.34456 0.011744 0)
(7.34591 0.0127413 0)
(7.34728 0.0137799 0)
(7.34869 0.0148633 0)
(7.35012 0.0159938 0)
(7.35159 0.0171727 0)
(7.35311 0.0183993 0)
(7.35467 0.019672 0)
(7.35629 0.020987 0)
(7.35797 0.0223393 0)
(7.35971 0.023722 0)
(7.36154 0.0251267 0)
(7.36344 0.0265433 0)
(7.36543 0.0279608 0)
(7.3675 0.0293669 0)
(7.36965 0.0307488 0)
(7.37189 0.0320937 0)
(7.37421 0.0333889 0)
(7.37659 0.0346226 0)
(7.37904 0.0357842 0)
(7.38154 0.0368659 0)
(7.33302 0.000449281 0)
(7.33324 0.00133783 0)
(7.33369 0.00220516 0)
(7.33434 0.00305189 0)
(7.33515 0.00388134 0)
(7.33609 0.00469867 0)
(7.33714 0.00551009 0)
(7.33827 0.00632234 0)
(7.33947 0.00714239 0)
(7.34073 0.007977 0)
(7.34202 0.00883249 0)
(7.34336 0.00971454 0)
(7.34473 0.0106281 0)
(7.34612 0.0115773 0)
(7.34755 0.0125652 0)
(7.34901 0.0135941 0)
(7.35051 0.014665 0)
(7.35204 0.0157778 0)
(7.35362 0.016931 0)
(7.35524 0.018122 0)
(7.35692 0.0193467 0)
(7.35865 0.0205998 0)
(7.36045 0.0218744 0)
(7.36232 0.0231626 0)
(7.36426 0.0244553 0)
(7.36626 0.0257426 0)
(7.36834 0.0270138 0)
(7.3705 0.0282582 0)
(7.37271 0.029465 0)
(7.375 0.030624 0)
(7.37733 0.0317256 0)
(7.37972 0.0327613 0)
(7.38215 0.0337251 0)
(7.33302 0.00037049 0)
(7.33324 0.00110512 0)
(7.33369 0.00182848 0)
(7.33435 0.00254478 0)
(7.33517 0.00325856 0)
(7.33612 0.00397442 0)
(7.33718 0.00469714 0)
(7.33833 0.00543166 0)
(7.33955 0.00618289 0)
(7.34084 0.00695548 0)
(7.34217 0.00775368 0)
(7.34354 0.00858125 0)
(7.34496 0.00944134 0)
(7.3464 0.0103364 0)
(7.34788 0.0112682 0)
(7.3494 0.0122374 0)
(7.35095 0.013244 0)
(7.35254 0.0142869 0)
(7.35417 0.0153639 0)
(7.35585 0.0164717 0)
(7.35758 0.0176059 0)
(7.35936 0.018761 0)
(7.3612 0.0199306 0)
(7.3631 0.0211071 0)
(7.36506 0.0222825 0)
(7.36709 0.0234479 0)
(7.36917 0.0245943 0)
(7.37131 0.0257125 0)
(7.37351 0.0267936 0)
(7.37576 0.0278292 0)
(7.37805 0.0288116 0)
(7.38038 0.029734 0)
(7.38274 0.030592 0)
(7.33302 0.000288653 0)
(7.33325 0.000863324 0)
(7.3337 0.0014367 0)
(7.33437 0.00201655 0)
(7.3352 0.00260865 0)
(7.33617 0.00321703 0)
(7.33726 0.00384503 0)
(7.33844 0.00449581 0)
(7.33969 0.00517226 0)
(7.34101 0.00587694 0)
(7.34238 0.00661206 0)
(7.3438 0.00737949 0)
(7.34525 0.00818064 0)
(7.34675 0.00901644 0)
(7.34828 0.00988717 0)
(7.34984 0.0107925 0)
(7.35144 0.0117312 0)
(7.35309 0.0127013 0)
(7.35477 0.0137001 0)
(7.3565 0.0147239 0)
(7.35827 0.015768 0)
(7.36009 0.0168271 0)
(7.36197 0.017895 0)
(7.3639 0.0189649 0)
(7.36587 0.0200295 0)
(7.36791 0.021081 0)
(7.36999 0.0221118 0)
(7.37212 0.023114 0)
(7.37429 0.0240803 0)
(7.37651 0.0250039 0)
(7.37876 0.0258784 0)
(7.38103 0.0266987 0)
(7.38333 0.027461 0)
(7.33303 0.000202418 0)
(7.33325 0.000608551 0)
(7.33373 0.00102392 0)
(7.33441 0.00146006 0)
(7.33527 0.00192389 0)
(7.33627 0.00241868 0)
(7.33739 0.00294621 0)
(7.3386 0.00350773 0)
(7.33989 0.00410406 0)
(7.34125 0.00473565 0)
(7.34266 0.00540266 0)
(7.34412 0.0061051 0)
(7.34562 0.0068427 0)
(7.34716 0.0076149 0)
(7.34874 0.0084207 0)
(7.35035 0.00925863 0)
(7.352 0.0101266 0)
(7.35369 0.011022 0)
(7.35542 0.0119416 0)
(7.35719 0.0128812 0)
(7.359 0.0138364 0)
(7.36086 0.0148018 0)
(7.36276 0.0157717 0)
(7.36471 0.0167399 0)
(7.3667 0.0176998 0)
(7.36874 0.0186448 0)
(7.37081 0.0195682 0)
(7.37293 0.0204636 0)
(7.37508 0.0213248 0)
(7.37726 0.0221462 0)
(7.37947 0.0229228 0)
(7.3817 0.0236504 0)
(7.38394 0.0243261 0)
(7.33303 0.000110176 0)
(7.33327 0.000336192 0)
(7.33376 0.000583221 0)
(7.33448 0.000866977 0)
(7.33537 0.00119536 0)
(7.33641 0.00157045 0)
(7.33756 0.0019921 0)
(7.33882 0.00245946 0)
(7.34015 0.00297113 0)
(7.34156 0.00352532 0)
(7.34301 0.0041201 0)
(7.34452 0.00475358 0)
(7.34607 0.00542389 0)
(7.34765 0.00612902 0)
(7.34928 0.00686679 0)
(7.35094 0.00763473 0)
(7.35263 0.00843003 0)
(7.35437 0.00924945 0)
(7.35614 0.0100893 0)
(7.35794 0.0109454 0)
(7.35979 0.0118132 0)
(7.36167 0.0126877 0)
(7.3636 0.0135635 0)
(7.36556 0.0144349 0)
(7.36756 0.0152963 0)
(7.3696 0.0161417 0)
(7.37167 0.0169657 0)
(7.37377 0.0177626 0)
(7.3759 0.0185275 0)
(7.37805 0.0192558 0)
(7.38022 0.0199433 0)
(7.3824 0.0205867 0)
(7.38459 0.0211839 0)
(7.33303 9.89409e-06 0)
(7.33328 4.04561e-05 0)
(7.33381 0.000106022 0)
(7.33457 0.000227202 0)
(7.33551 0.000412491 0)
(7.3366 0.000661941 0)
(7.3378 0.000972847 0)
(7.33911 0.00134193 0)
(7.34049 0.00176536 0)
(7.34195 0.00223891 0)
(7.34345 0.00275846 0)
(7.34501 0.00332022 0)
(7.3466 0.00392065 0)
(7.34824 0.0045564 0)
(7.34991 0.00522413 0)
(7.35161 0.00592048 0)
(7.35335 0.00664193 0)
(7.35512 0.00738479 0)
(7.35693 0.00814508 0)
(7.35877 0.00891858 0)
(7.36064 0.00970076 0)
(7.36255 0.0104869 0)
(7.36449 0.0112721 0)
(7.36647 0.0120512 0)
(7.36847 0.0128193 0)
(7.37051 0.0135712 0)
(7.37257 0.0143023 0)
(7.37466 0.0150078 0)
(7.37676 0.0156837 0)
(7.37888 0.0163261 0)
(7.38102 0.0169319 0)
(7.38316 0.0174982 0)
(7.3853 0.0180236 0)
(7.33303 -0.000101142 0)
(7.33331 -0.000286321 0)
(7.33388 -0.000418787 0)
(7.33469 -0.000471948 0)
(7.3357 -0.000437626 0)
(7.33685 -0.000319264 0)
(7.33812 -0.000123013 0)
(7.33948 0.000144877 0)
(7.34093 0.000477645 0)
(7.34244 0.000868298 0)
(7.344 0.00131038 0)
(7.3456 0.00179823 0)
(7.34724 0.00232679 0)
(7.34893 0.00289143 0)
(7.35064 0.0034878 0)
(7.35239 0.00411173 0)
(7.35417 0.00475916 0)
(7.35597 0.00542597 0)
(7.35781 0.00610799 0)
(7.35968 0.00680096 0)
(7.36158 0.00750049 0)
(7.36351 0.00820212 0)
(7.36547 0.0089013 0)
(7.36745 0.00959353 0)
(7.36946 0.0102743 0)
(7.37149 0.0109394 0)
(7.37355 0.0115847 0)
(7.37562 0.0122062 0)
(7.3777 0.0128006 0)
(7.37979 0.0133648 0)
(7.38189 0.0138962 0)
(7.384 0.0143924 0)
(7.3861 0.0148524 0)
(7.33303 -0.000226772 0)
(7.33334 -0.000654866 0)
(7.33397 -0.00100619 0)
(7.33487 -0.00124678 0)
(7.33595 -0.00137111 0)
(7.33718 -0.00138859 0)
(7.33853 -0.00130964 0)
(7.33997 -0.0011438 0)
(7.34148 -0.000901347 0)
(7.34305 -0.000592745 0)
(7.34467 -0.000227265 0)
(7.34632 0.00018728 0)
(7.34802 0.000644165 0)
(7.34975 0.00113746 0)
(7.35151 0.00166188 0)
(7.3533 0.00221261 0)
(7.35511 0.00278515 0)
(7.35696 0.00337519 0)
(7.35883 0.00397852 0)
(7.36072 0.00459096 0)
(7.36264 0.00520836 0)
(7.36459 0.00582661 0)
(7.36656 0.00644162 0)
(7.36855 0.00704938 0)
(7.37056 0.00764603 0)
(7.37259 0.00822784 0)
(7.37464 0.00879135 0)
(7.37669 0.00933336 0)
(7.37875 0.009851 0)
(7.38082 0.0103418 0)
(7.38289 0.0108035 0)
(7.38496 0.0112346 0)
(7.38703 0.0116341 0)
(7.33304 -0.000372727 0)
(7.33339 -0.00108107 0)
(7.3341 -0.00167758 0)
(7.33511 -0.00211888 0)
(7.3363 -0.00240731 0)
(7.33763 -0.00256344 0)
(7.33907 -0.00260403 0)
(7.34059 -0.00254238 0)
(7.34218 -0.00239235 0)
(7.34382 -0.00216755 0)
(7.3455 -0.00187963 0)
(7.34722 -0.00153824 0)
(7.34897 -0.00115172 0)
(7.35074 -0.000727323 0)
(7.35254 -0.000271386 0)
(7.35437 0.000210498 0)
(7.35623 0.000713278 0)
(7.3581 0.0012323 0)
(7.36 0.00176318 0)
(7.36192 0.00230176 0)
(7.36387 0.00284406 0)
(7.36583 0.00338622 0)
(7.36781 0.00392454 0)
(7.36981 0.00445549 0)
(7.37182 0.00497568 0)
(7.37385 0.00548197 0)
(7.37588 0.00597144 0)
(7.37793 0.00644143 0)
(7.37997 0.0068896 0)
(7.38202 0.00731389 0)
(7.38407 0.0077126 0)
(7.38611 0.00808426 0)
(7.38814 0.00842815 0)
(7.33305 -0.000548119 0)
(7.33346 -0.00158897 0)
(7.3343 -0.00246416 0)
(7.33545 -0.00312075 0)
(7.33678 -0.00357579 0)
(7.33823 -0.00386423 0)
(7.33978 -0.00401137 0)
(7.3414 -0.00403867 0)
(7.34308 -0.00396798 0)
(7.3448 -0.00381826 0)
(7.34655 -0.00360393 0)
(7.34834 -0.00333614 0)
(7.35014 -0.0030241 0)
(7.35197 -0.00267549 0)
(7.35382 -0.00229673 0)
(7.35569 -0.00189335 0)
(7.35759 -0.00147022 0)
(7.3595 -0.00103177 0)
(7.36143 -0.000582104 0)
(7.36338 -0.000125087 0)
(7.36534 0.000335631 0)
(7.36732 0.000796572 0)
(7.36932 0.00125443 0)
(7.37132 0.00170606 0)
(7.37334 0.00214855 0)
(7.37536 0.00257915 0)
(7.37739 0.00299537 0)
(7.37943 0.00339498 0)
(7.38146 0.00377602 0)
(7.38349 0.00413681 0)
(7.38551 0.004476 0)
(7.38752 0.00479253 0)
(7.38952 0.00508603 0)
(7.33306 -0.000769869 0)
(7.33358 -0.0022186 0)
(7.3346 -0.00340255 0)
(7.33596 -0.00428354 0)
(7.33747 -0.00492414 0)
(7.33908 -0.00537262 0)
(7.34077 -0.00564917 0)
(7.34252 -0.00577662 0)
(7.34429 -0.00578437 0)
(7.3461 -0.00569825 0)
(7.34793 -0.00553756 0)
(7.34978 -0.00531746 0)
(7.35165 -0.00505049 0)
(7.35353 -0.00474685 0)
(7.35543 -0.00441464 0)
(7.35735 -0.00406039 0)
(7.35929 -0.00368951 0)
(7.36124 -0.00330659 0)
(7.36321 -0.00291561 0)
(7.36519 -0.00252009 0)
(7.36718 -0.00212321 0)
(7.36918 -0.00172788 0)
(7.37119 -0.00133678 0)
(7.37321 -0.000952412 0)
(7.37523 -0.000577072 0)
(7.37725 -0.000212864 0)
(7.37928 0.000138301 0)
(7.3813 0.000474719 0)
(7.38331 0.000794884 0)
(7.38531 0.00109749 0)
(7.38731 0.00138142 0)
(7.38929 0.00164568 0)
(7.39125 0.00188969 0)
(7.33308 -0.00106656 0)
(7.33378 -0.00306809 0)
(7.3351 -0.00458476 0)
(7.33672 -0.00560822 0)
(7.33845 -0.00632215 0)
(7.34025 -0.00683667 0)
(7.34214 -0.00718674 0)
(7.34406 -0.00740009 0)
(7.346 -0.00750723 0)
(7.34796 -0.00753062 0)
(7.34991 -0.00748476 0)
(7.35188 -0.00738086 0)
(7.35385 -0.00722869 0)
(7.35582 -0.00703652 0)
(7.3578 -0.00681129 0)
(7.35979 -0.00655896 0)
(7.36177 -0.00628478 0)
(7.36376 -0.00599344 0)
(7.36575 -0.00568915 0)
(7.36775 -0.00537568 0)
(7.36974 -0.0050565 0)
(7.37173 -0.00473473 0)
(7.37372 -0.00441323 0)
(7.3757 -0.0040946 0)
(7.37768 -0.00378119 0)
(7.37964 -0.00347511 0)
(7.3816 -0.00317823 0)
(7.38354 -0.00289218 0)
(7.38546 -0.00261837 0)
(7.38737 -0.00235793 0)
(7.38926 -0.00211177 0)
(7.39112 -0.00188048 0)
(7.39296 -0.00166426 0)
(7.3331 -0.00144798 0)
(7.33415 -0.00420804 0)
(7.33607 -0.00631358 0)
(7.33822 -0.00776573 0)
(7.34032 -0.0087499 0)
(7.34242 -0.00937535 0)
(7.34457 -0.00971997 0)
(7.34674 -0.00986628 0)
(7.3489 -0.00988108 0)
(7.35104 -0.0098067 0)
(7.35317 -0.00967011 0)
(7.35527 -0.00949038 0)
(7.35735 -0.00928093 0)
(7.35939 -0.00905062 0)
(7.3614 -0.00880529 0)
(7.36337 -0.00854899 0)
(7.36531 -0.00828472 0)
(7.36722 -0.00801481 0)
(7.36908 -0.00774117 0)
(7.37092 -0.00746551 0)
(7.37272 -0.00718942 0)
(7.37449 -0.00691442 0)
(7.37623 -0.00664196 0)
(7.37794 -0.00637346 0)
(7.37962 -0.00611026 0)
(7.38127 -0.00585365 0)
(7.38289 -0.00560481 0)
(7.38448 -0.00536485 0)
(7.38604 -0.00513475 0)
(7.38757 -0.00491544 0)
(7.38907 -0.00470779 0)
(7.39054 -0.00451267 0)
(7.39199 -0.0043308 0)
(7.33311 -0.00228417 0)
(7.33485 -0.00521432 0)
(7.33794 -0.00688095 0)
(7.34136 -0.00825362 0)
(7.34468 -0.00954453 0)
(7.34787 -0.0106138 0)
(7.35088 -0.0114195 0)
(7.35363 -0.0120091 0)
(7.3561 -0.012423 0)
(7.35832 -0.0126827 0)
(7.36029 -0.0128085 0)
(7.36204 -0.0128235 0)
(7.36359 -0.0127494 0)
(7.36497 -0.0126041 0)
(7.36618 -0.0124028 0)
(7.36726 -0.0121582 0)
(7.36822 -0.0118811 0)
(7.36908 -0.0115803 0)
(7.36986 -0.011263 0)
(7.37055 -0.0109351 0)
(7.37119 -0.0106014 0)
(7.37177 -0.0102659 0)
(7.37231 -0.00993193 0)
(7.37281 -0.00960205 0)
(7.37328 -0.00927844 0)
(7.37373 -0.00896288 0)
(7.37415 -0.00865677 0)
(7.37456 -0.00836121 0)
(7.37495 -0.00807706 0)
(7.37532 -0.00780491 0)
(7.37568 -0.00754514 0)
(7.37603 -0.00729797 0)
(7.37636 -0.00706329 0)
(7.3363 -0.00651749 0)
(7.34557 -0.0134875 0)
(7.35343 -0.0156878 0)
(7.35888 -0.0161921 0)
(7.36267 -0.0161565 0)
(7.36523 -0.0157427 0)
(7.36659 -0.0150803 0)
(7.36685 -0.0143355 0)
(7.36623 -0.0136014 0)
(7.36494 -0.0129061 0)
(7.36313 -0.0122563 0)
(7.36094 -0.0116546 0)
(7.35847 -0.0111 0)
(7.35582 -0.0105885 0)
(7.35304 -0.0101151 0)
(7.35021 -0.00967497 0)
(7.34735 -0.00926404 0)
(7.34452 -0.00887873 0)
(7.34172 -0.00851612 0)
(7.33899 -0.00817384 0)
(7.33633 -0.00785001 0)
(7.33376 -0.00754319 0)
(7.33128 -0.00725225 0)
(7.3289 -0.00697632 0)
(7.32662 -0.00671471 0)
(7.32443 -0.00646691 0)
(7.32235 -0.00623246 0)
(7.32036 -0.00601098 0)
(7.31847 -0.00580209 0)
(7.31667 -0.00560539 0)
(7.31496 -0.00542033 0)
(7.31334 -0.00524627 0)
(7.3118 -0.00508174 0)
(7.32508 -0.00547003 0)
(7.31334 -0.0121257 0)
(7.29927 -0.0150438 0)
(7.28288 -0.0161335 0)
(7.26681 -0.0163132 0)
(7.25211 -0.0158774 0)
(7.23866 -0.0150378 0)
(7.22631 -0.0139942 0)
(7.21505 -0.0128822 0)
(7.20483 -0.0117763 0)
(7.19555 -0.0107173 0)
(7.18712 -0.00972842 0)
(7.17943 -0.00882094 0)
(7.17242 -0.00799759 0)
(7.166 -0.00725601 0)