/*--------------------------------*- C++ -*----------------------------------*\
| =========                 |                                                 |
| \\      /  F ield         | OpenFOAM: The Open Source CFD Toolbox           |
|  \\    /   O peration     | Version:  4.1                                   |
|   \\  /    A nd           | Web:      www.OpenFOAM.org                      |
|    \\/     M anipulation  |                                                 |
\*---------------------------------------------------------------------------*/
FoamFile
{
    version     2.0;
    format      ascii;
    class       volScalarField;
    location    "1300";
    object      p;
}
// * * * * * * * * * * * * * * * * * * * * * * * * * * * * * * * * * * * * * //

dimensions      [0 2 -2 0 0 0 0];

internalField   nonuniform List<scalar> 
26785
(
11.4743
19.8504
26.0435
30.5515
34.1558
36.8468
38.7742
40.362
41.839
43.2613
44.6454
45.989
47.2811
48.4951
49.5879
50.5138
51.2514
51.798
52.1437
52.1957
51.8164
50.8317
49.0336
46.3252
42.7386
38.4483
33.778
29.1562
25.0224
21.7293
19.4787
18.2913
18.0227
18.4261
19.2136
20.1166
20.9493
21.6543
22.2868
22.9125
23.4855
23.7852
23.4337
21.9949
19.1163
14.6196
8.49195
0.843916
-8.14312
-18.273
-29.2368
-40.5164
-51.4312
-60.8741
-67.3344
-70.0189
-68.8645
-64.5495
-58.5121
-52.0733
-46.0005
-40.6087
-35.9543
-31.9759
-28.5744
-25.6513
-23.1211
-20.9142
-18.9748
-17.2587
-15.7308
-14.3634
-13.1342
-12.0254
-11.0222
-10.1124
-9.28467
-8.52823
-7.83214
-7.18517
-6.57587
-5.99288
-5.42512
-4.86207
-4.29404
-3.71282
-3.1128
-2.4924
-1.85574
-1.21319
-0.581937
0.0167652
0.555912
1.01234
1.35023
1.56198
1.57949
1.46203
1.03993
0.491825
11.507
19.85
26.0376
30.5475
34.1533
36.8436
38.7693
40.3569
41.8345
43.2578
44.6434
45.9886
47.2821
48.4975
49.5914
50.5175
51.2552
51.8022
52.1497
52.2045
51.8286
50.8472
49.0486
46.3355
42.7402
38.4381
33.7555
29.1233
24.9823
21.6861
19.4369
18.2547
17.9938
18.4069
19.2034
20.1118
20.9439
21.6438
22.2712
22.8962
23.4746
23.7826
23.436
21.9926
19.098
14.5775
8.42369
0.751217
-8.25597
-18.4035
-29.3875
-40.6898
-51.6359
-61.1324
-67.6351
-70.3444
-69.1966
-64.8355
-58.728
-52.2278
-46.1116
-40.6918
-36.0197
-32.0297
-28.6202
-25.6908
-23.1557
-20.9447
-19.0018
-17.2827
-15.7523
-14.3825
-13.1512
-12.0405
-11.0356
-10.1241
-9.29496
-8.5373
-7.84024
-7.19258
-6.58294
-6.00001
-5.43278
-4.87077
-4.30427
-3.72493
-3.1269
-2.50827
-1.87278
-1.23046
-0.598272
0.00272697
0.545545
1.00724
1.3516
1.57216
1.597
1.49257
1.06089
0.541262
11.5294
19.8383
26.0209
30.5367
34.1469
36.8368
38.7594
40.3468
41.8256
43.2512
44.6399
45.9882
47.2847
48.5033
49.5997
50.5263
51.2639
51.8118
52.1629
52.2232
51.8537
50.8777
49.0765
46.3522
42.7374
38.4099
33.7006
29.0451
24.8879
21.585
19.34
18.1718
17.9325
18.3709
19.1899
20.1102
20.9402
21.6282
22.2446
22.8693
23.46
23.7862
23.4508
21.9998
19.0765
14.5138
8.31509
0.602898
-8.43326
-18.6014
-29.606
-40.9278
-51.9082
-61.514
-68.1598
-70.9634
-69.85
-65.4032
-59.1567
-52.534
-46.3318
-40.857
-36.1506
-32.138
-28.7125
-25.7709
-23.2259
-21.0066
-19.0567
-17.3316
-15.7959
-14.4214
-13.1859
-12.0712
-11.0626
-10.1479
-9.3159
-8.55589
-7.85706
-7.20824
-6.59811
-6.01542
-5.44921
-4.88898
-4.32497
-3.74866
-3.15382
-2.53804
-1.90443
-1.26242
-0.628484
-0.0232759
0.526313
0.997811
1.35431
1.59157
1.63053
1.55191
1.10293
0.640681
11.5463
19.8293
26.0028
30.5241
34.1398
36.8285
38.7461
40.3329
41.8134
43.2423
44.6357
45.9886
47.2897
48.5132
49.6132
50.5402
51.2774
51.8266
52.1831
52.2513
51.8907
50.9216
49.1146
46.3706
42.722
38.3514
33.5981
28.9057
24.7246
21.4141
19.1793
18.037
17.8334
18.3116
19.1643
20.1016
20.9284
21.5995
22.201
22.826
23.4349
23.7879
23.4709
22.014
19.0562
14.4412
8.1869
0.426433
-8.64269
-18.8317
-29.8576
-41.1981
-52.2038
-61.9218
-68.7458
-71.6705
-70.6513
-66.1424
-59.7397
-52.9647
-46.6494
-41.0995
-36.3442
-32.2987
-28.8495
-25.8895
-23.3297
-21.098
-19.1377
-17.4036
-15.86
-14.4786
-13.2367
-12.1163
-11.1025
-10.1831
-9.34708
-8.58398
-7.883
-7.23297
-6.62252
-6.04038
-5.47555
-4.91752
-4.35646
-3.78369
-3.19264
-2.58033
-1.94908
-1.30745
-0.671213
-0.0603392
0.498521
0.983597
1.35716
1.61817
1.67775
1.638
1.16729
0.795172
11.5517
19.8137
25.9792
30.5089
34.1319
36.8193
38.7303
40.3165
41.7992
43.2322
44.6318
45.9907
47.2976
48.5272
49.6315
50.5586
51.2952
51.8461
52.2096
52.2877
51.9378
50.9764
49.1581
46.3826
42.683
38.2502
33.4368
28.6974
24.4888
21.1735
18.9576
17.8534
17.6995
18.2313
19.1289
20.0896
20.9135
21.5644
22.1474
22.7722
23.4032
23.7898
23.4968
22.0345
19.0368
14.3601
8.04119
0.226659
-8.87539
-19.0799
-30.1211
-41.4734
-52.4933
-62.3262
-69.3699
-72.4334
-71.5439
-66.9925
-60.4263
-53.4825
-47.0386
-41.4014
-36.5884
-32.5035
-29.0251
-26.0424
-23.4639
-21.2167
-19.2431
-17.4975
-15.9439
-14.5535
-13.3035
-12.1755
-11.155
-10.2297
-9.38884
-8.62207
-7.91868
-7.26748
-6.65698
-6.07574
-5.51266
-4.9571
-4.39916
-3.83001
-3.24279
-2.63396
-2.00505
-1.36361
-0.724555
-0.106912
0.463095
0.964623
1.35916
1.64983
1.73621
1.74846
1.2559
1.01228
11.5779
19.7922
25.9495
30.4915
34.1248
36.811
38.7136
40.2988
41.784
43.222
44.6288
45.9945
47.3079
48.5446
49.6536
50.5803
51.3161
51.8693
52.2413
52.3314
51.9938
51.0399
49.2028
46.3814
42.6123
38.0999
33.215
28.4237
24.1881
20.8726
18.6839
17.6279
17.5345
18.131
19.0829
20.0723
20.8942
21.5218
22.0825
22.7054
23.3601
23.7844
23.5195
22.0525
19.0097
14.2632
7.87416
0.00578502
-9.12233
-19.3314
-30.3785
-41.7356
-52.7546
-62.6848
-69.9599
-73.1796
-72.4464
-67.8784
-61.1572
-54.0451
-47.4707
-41.7437
-36.8705
-32.7433
-29.233
-26.2248
-23.625
-21.3596
-19.3704
-17.6113
-16.0457
-14.6447
-13.385
-12.2483
-11.2198
-10.2876
-9.44113
-8.67027
-7.96437
-7.31213
-6.70187
-6.12191
-5.5609
-5.00803
-4.45326
-3.88763
-3.30403
-2.69844
-2.07161
-1.43003
-0.787646
-0.162371
0.420183
0.940252
1.35879
1.68377
1.80285
1.8797
1.37065
1.30063
11.635
19.7739
25.9191
30.4752
34.1206
36.8052
38.6973
40.281
41.7686
43.2119
44.6269
45.9996
47.3198
48.5639
49.6775
50.6033
51.3384
51.8948
52.2773
52.3813
52.0572
51.1101
49.2441
46.3611
42.5056
37.9017
32.9401
28.0966
23.8366
20.5254
18.37
17.3692
17.3436
18.0133
19.0269
20.0501
20.871
21.4731
22.0075
22.6252
23.3028
23.7662
23.5303
22.0525
18.9519
14.1261
7.66746
-0.245227
-9.38372
-19.5787
-30.6169
-41.9696
-52.9745
-62.9834
-70.4945
-73.8962
-73.327
-68.7592
-61.8927
-54.6194
-47.9203
-42.1077
-37.1767
-33.0081
-29.4656
-26.4307
-23.8082
-21.5232
-19.5169
-17.7427
-16.1639
-14.7509
-13.4804
-12.3338
-11.2963
-10.3564
-9.50373
-8.72843
-8.01992
-7.36678
-6.75706
-6.17874
-5.62013
-5.07014
-4.51857
-3.9563
-3.37602
-2.77329
-2.14814
-1.50601
-0.859851
-0.226342
0.369694
0.909586
1.35419
1.7166
1.87381
2.026
1.51317
1.66623
11.679
19.7507
25.8867
30.4608
34.121
36.8035
38.6824
40.2638
41.7533
43.202
44.6253
46.0049
47.3318
48.5833
49.7013
50.6255
51.3602
51.9215
52.3165
52.4364
52.1269
51.1847
49.2778
46.3186
42.365
37.6642
32.6272
27.7354
23.4546
20.1507
18.0317
17.0885
17.1332
17.8805
18.9611
20.0218
20.843
21.4177
21.9217
22.5297
23.2257
23.7222
23.5014
21.9879
18.8112
13.9079
7.3965
-0.53816
-9.66267
-19.8186
-30.8286
-42.1656
-53.1405
-63.2046
-70.9534
-74.5684
-74.153
-69.5969
-62.5971
-55.1759
-48.3647
-42.4765
-37.4943
-33.2882
-29.7155
-26.6544
-24.0089
-21.7036
-19.6793
-17.8893
-16.2963
-14.8705
-13.5883
-12.4309
-11.3838
-10.4355
-9.57608
-8.79606
-8.08489
-7.43099
-6.82208
-6.24573
-5.68983
-5.14295
-4.59461
-4.03557
-3.45833
-2.85808
-2.23422
-1.59116
-0.94089
-0.29881
0.311215
0.871416
1.34316
1.74418
1.94418
2.17854
1.68461
2.10834
11.7131
19.7309
25.8558
30.4499
34.1271
36.8067
38.6693
40.2472
41.7376
43.1913
44.6229
46.009
47.3425
48.601
49.7229
50.6446
51.3798
51.9485
52.3576
52.4953
52.2012
51.2612
49.3006
46.2543
42.1994
37.4071
32.3051
27.3737
23.076
19.7787
17.6931
16.8022
16.9127
17.7366
18.8853
19.9857
20.8089
21.3554
21.8256
22.4172
23.1179
23.6214
23.373
21.7922
18.5428
13.5848
7.04772
-0.881124
-9.9627
-20.0498
-31.0078
-42.3161
-53.2461
-63.3435
-71.3228
-75.1716
-74.8948
-70.3611
-63.2419
-55.6903
-48.7844
-42.8348
-37.8118
-33.5747
-29.9753
-26.89
-24.2223
-21.8968
-19.8544
-18.0481
-16.4405
-15.0015
-13.7071
-12.5385
-11.4811
-10.5239
-9.65737
-8.87239
-8.15851
-7.50397
-6.89613
-6.32207
-5.76918
-5.22562
-4.68061
-4.1247
-3.55028
-2.95223
-2.32939
-1.68514
-1.03062
-0.379936
0.244154
0.824326
1.32321
1.76179
2.00806
2.3243
1.88337
2.61136
11.7365
19.713
25.8268
30.4436
34.1398
36.8152
38.6577
40.2308
41.7207
43.1787
44.6183
46.0107
47.3508
48.6164
49.7412
50.6592
51.396
51.9745
52.3984
52.5568
52.2784
51.3366
49.3102
46.1746
42.0324
37.173
32.03
27.0741
22.7634
19.4664
17.3999
16.5422
16.7001
17.5881
18.7984
19.9369
20.7636
21.2842
21.7212
22.2856
22.9599
23.4209
23.1054
21.4567
18.1523
13.1585
6.61918
-1.27539
-10.2832
-20.2691
-31.149
-42.4146
-53.2837
-63.3919
-71.5847
-75.6671
-75.5205
-71.0249
-63.8035
-56.1426
-49.1634
-43.17
-38.1188
-33.8592
-30.2384
-27.1319
-24.4436
-22.099
-20.0389
-18.2165
-16.5943
-15.142
-13.8352
-12.655
-11.587
-10.6204
-9.74653
-8.95643
-8.23984
-7.58479
-6.97822
-6.40673
-5.85715
-5.31713
-4.77555
-4.22277
-3.65106
-3.05506
-2.43311
-1.78762
-1.12893
-0.469954
0.167828
0.766804
1.29172
1.76439
2.05886
2.4458
2.10078
3.12754
11.7662
19.6965
25.799
30.4419
34.1594
36.8287
38.6472
40.2139
41.7016
43.163
44.6104
46.0085
47.3558
48.6292
49.7564
50.6701
51.4092
51.9965
52.4367
52.6198
52.3558
51.4055
49.3063
46.0976
41.9027
37.0054
31.8459
26.888
22.5828
19.2936
17.2362
16.3846
16.5545
17.4707
18.7112
19.8646
20.6853
21.1868
21.5997
22.1276
22.7491
23.1394
22.7424
21.0193
17.658
12.6384
6.11797
-1.71564
-10.621
-20.4737
-31.2476
-42.4573
-53.2496
-63.3421
-71.7262
-76.0362
-76.0095
-71.5681
-64.2637
-56.5171
-49.4884
-43.4712
-38.4066
-34.1345
-30.4986
-27.3748
-24.6684
-22.306
-20.2292
-18.3915
-16.7551
-15.2897
-13.9706
-12.7788
-11.7
-10.7239
-9.84236
-9.04705
-8.32778
-7.67233
-7.06725
-6.49856
-5.95252
-5.41625
-4.87822
-4.3286
-3.75961
-3.16569
-2.54474
-1.89819
-1.23568
-0.569097
0.0815402
0.697407
1.24617
1.74713
2.08973
2.52201
2.31187
3.55509
11.8078
19.6858
25.7742
30.4455
34.1858
36.847
38.6372
40.1959
41.6795
43.1432
44.5978
46.0012
47.3562
48.6389
49.768
50.6774
51.42
52.0118
52.4717
52.683
52.4263
51.458
49.2895
46.0139
41.766
36.8384
31.6919
26.7708
22.5104
19.2637
17.2338
16.3823
16.5326
17.4217
18.6314
19.7564
20.5624
21.063
21.47
21.9682
22.5262
22.8172
22.3113
20.4983
17.0786
12.0423
5.5561
-2.19627
-10.9747
-20.6635
-31.3019
-42.4415
-53.1397
-63.1839
-71.7316
-76.2724
-76.3449
-71.9742
-64.6081
-56.8015
-49.7493
-43.7297
-38.6677
-34.394
-30.7502
-27.6137
-24.8923
-22.5142
-20.4222
-18.5701
-16.9204
-15.4424
-14.1114
-12.9081
-11.8185
-10.8328
-9.94355
-9.14301
-8.42112
-7.76543
-7.162
-6.59632
-6.05401
-5.52164
-4.98729
-4.44092
-3.87478
-3.28313
-2.66351
-2.01634
-1.35066
-0.677535
-0.015336
0.614965
1.18428
1.70633
2.09476
2.53034
2.47345
3.748
11.8346
19.677
25.752
30.4544
34.2188
36.8693
38.6267
40.1761
41.6534
43.1182
44.5794
45.9876
47.3512
48.6449
49.7751
50.6815
51.4268
52.0183
52.504
52.7414
52.4726
51.4704
49.2016
45.814
41.5375
36.6425
31.5374
26.6626
22.4534
19.2575
17.2671
16.4206
16.5462
17.3958
18.565
19.6585
20.4477
20.942
21.334
21.7863
22.2582
22.437
21.8209
19.9176
16.4398
11.3891
4.9444
-2.7125
-11.3438
-20.8401
-31.3122
-42.3662
-52.9503
-62.9082
-71.594
-76.3888
-76.5221
-72.2318
-64.8265
-56.9869
-49.938
-43.9386
-38.896
-34.6324
-30.9883
-27.8441
-25.1112
-22.72
-20.6146
-18.7495
-17.0876
-15.5979
-14.2556
-13.0413
-11.9411
-10.9457
-10.0487
-9.24301
-8.51865
-7.86286
-7.26123
-6.69868
-6.16022
-5.63188
-5.10129
-4.55832
-3.99526
-3.40628
-2.78857
-2.14148
-1.47357
-0.795328
-0.123263
0.518768
1.10429
1.63984
2.068
2.45146
2.54703
3.59409
11.8484
19.6738
25.7328
30.4682
34.2577
36.8949
38.6151
40.1538
41.6223
43.0872
44.5542
45.9663
47.3398
48.6467
49.7774
50.6848
51.4259
52.016
52.5334
52.7756
52.4679
51.3744
48.9762
45.5537
41.289
36.4294
31.3641
26.5319
22.3691
19.2207
17.2733
16.437
16.5414
17.3476
18.4712
19.5315
20.2998
20.7797
21.1477
21.5492
21.9393
22.0168
21.2959
19.3013
15.7626
10.6963
4.29526
-3.25742
-11.7266
-21.0065
-31.2817
-42.2328
-52.6797
-62.5083
-71.3078
-76.3876
-76.5382
-72.3348
-64.9125
-57.0671
-50.049
-44.0926
-39.0865
-34.8448
-31.2084
-28.0621
-25.3213
-22.9198
-20.8033
-18.9271
-17.2543
-15.7541
-14.4014
-13.1766
-12.066
-11.0611
-10.1564
-9.34572
-8.61907
-7.96334
-7.36364
-6.80431
-6.26976
-5.7455
-5.21876
-4.67932
-4.11969
-3.53395
-2.91893
-2.27289
-1.60398
-0.922368
-0.242405
0.408671
1.00483
1.54648
2.00495
2.28115
2.53331
3.12366
11.8472
19.6744
25.7169
30.4869
34.3023
36.923
38.6015
40.1286
41.5857
43.0492
44.5211
45.9362
47.3213
48.6434
49.7748
50.6871
51.4143
52.0073
52.553
52.7612
52.3783
51.1501
48.6949
45.2746
41.0309
36.2075
31.1788
26.3825
22.2578
19.1496
17.2431
16.4174
16.5033
17.2658
18.3416
19.3707
20.1192
20.5823
20.9236
21.2759
21.59
21.5719
20.7489
18.664
15.0645
9.98106
3.6224
-3.82302
-12.1211
-21.1661
-31.2153
-42.0454
-52.3327
-61.9878
-70.8646
-76.2308
-76.3765
-72.2771
-64.8624
-57.039
-50.0789
-44.1881
-39.2355
-35.0276
-31.407
-28.2638
-25.5193
-23.1107
-20.9854
-19.1001
-17.4182
-15.9089
-14.5467
-13.3122
-12.1917
-11.1775
-10.2653
-9.44979
-8.72109
-8.0656
-7.46791
-6.91182
-6.38119
-5.86102
-5.33815
-4.80242
-4.24666
-3.66487
-3.05358
-2.40981
-1.74135
-1.05825
-0.372622
0.284819
0.884304
1.42558
1.90658
2.03181
2.44258
2.50649
11.8453
19.6754
25.702
30.5097
34.3519
36.9528
38.5855
40.1001
41.5429
43.0036
44.4788
45.8962
47.2949
48.6343
49.769
50.6845
51.3931
51.9941
52.5406
52.6993
52.1767
50.8518
48.3974
44.9912
40.7706
35.9804
30.9839
26.2198
22.1315
19.0613
17.1932
16.3731
16.4401
17.1596
18.1839
19.1795
19.9086
20.3542
20.6669
20.9717
21.2144
21.1058
20.186
18.0159
14.3588
9.25787
2.93802
-4.40152
-12.5239
-21.3206
-31.1165
-41.806
-51.9171
-61.3567
-70.264
-75.8996
-76.0407
-72.0605
-64.6765
-56.9015
-50.0258
-44.2226
-39.3401
-35.1778
-31.5807
-28.4462
-25.7022
-23.2896
-21.1584
-19.2662
-17.5771
-16.0602
-14.69
-13.4466
-12.3167
-11.2934
-10.3739
-9.55386
-8.82338
-8.16832
-7.57272
-7.01985
-6.49307
-5.97694
-5.45795
-4.9261
-4.37473
-3.79775
-3.19141
-2.55137
-1.8849
-1.2023
-0.513727
0.147217
0.740698
1.2783
1.77304
1.73617
2.40044
1.96228
11.8525
19.6802
25.6891
30.5364
34.4058
36.9836
38.5661
40.0677
41.4933
42.9496
44.4262
45.8456
47.2606
48.6186
49.7654
50.6758
51.3687
51.9711
52.4865
52.5569
51.8727
50.5365
48.0897
44.6961
40.4972
35.7389
30.7755
26.0454
21.9968
18.9638
17.1297
16.3042
16.3459
17.0212
17.992
18.9508
19.6619
20.0932
20.38
20.6405
20.8161
20.6216
19.6107
17.3626
13.6538
8.53656
2.25152
-4.98575
-12.9292
-21.4676
-30.9859
-41.5108
-51.4314
-60.6164
-69.5008
-75.3999
-75.5592
-71.6933
-64.3575
-56.6559
-49.8897
-44.195
-39.3985
-35.293
-31.727
-28.6066
-25.8671
-23.4541
-21.3198
-19.4232
-17.7289
-16.2063
-14.8294
-13.5782
-12.4395
-11.4074
-10.4809
-9.65658
-8.92463
-8.27019
-7.67672
-7.12699
-6.60396
-6.09181
-5.57664
-5.04886
-4.50246
-3.93127
-3.33128
-2.69659
-2.03377
-1.35392
-0.665609
-0.0044242
0.573489
1.10553
1.59844
1.46033
2.33071
1.53822
11.8486
19.685
25.6776
30.5669
34.4638
37.0144
38.5427
40.0309
41.4361
42.8863
44.3625
45.784
47.2179
48.5949
49.7633
50.6588
51.3472
51.9297
52.3821
52.2568
51.5145
50.2042
47.7584
44.379
40.2054
35.4819
30.5529
25.8568
21.8487
18.8511
17.0478
16.2057
16.2164
16.8471
17.7647
18.6841
19.3772
19.7999
20.0677
20.2866
20.3981
20.1212
19.0248
16.7068
12.9534
7.82264
1.56891
-5.56999
-13.3306
-21.6015
-30.8219
-41.1504
-50.8579
-59.7427
-68.5333
-74.7118
-74.97
-71.1854
-63.9098
-56.3049
-49.6717
-44.1051
-39.4098
-35.3716
-31.8438
-28.7425
-26.0116
-23.6017
-21.4673
-19.5689
-17.8718
-16.3454
-14.9634
-13.7057
-12.5588
-11.5182
-10.5848
-9.7566
-9.02352
-8.36988
-7.77855
-7.23185
-6.71242
-6.20414
-5.69273
-5.1692
-4.6284
-4.06408
-3.47201
-2.84447
-2.18728
-1.51267
-0.827965
-0.170681
0.38435
0.902575
1.39014
1.24719
2.04351
1.18819
11.8347
19.6918
25.6669
30.6007
34.5251
37.0445
38.5149
39.9892
41.3705
42.8132
44.2873
45.7122
47.1672
48.5651
49.7581
50.6341
51.3216
51.8669
52.1252
51.8558
51.1361
49.8399
47.3992
44.0409
39.8999
35.215
30.3203
25.6553
21.6868
18.7226
16.9486
16.077
16.049
16.6328
17.4973
18.3772
19.0512
19.4697
19.7286
19.9124
19.9622
19.606
18.4296
16.0495
12.2591
7.11838
0.89323
-6.15065
-13.7225
-21.7172
-30.6241
-40.7159
-50.1778
-58.7033
-67.2929
-73.8041
-74.3197
-70.5397
-63.3369
-55.8524
-49.374
-43.9536
-39.3737
-35.4127
-31.9295
-28.852
-26.1338
-23.7305
-21.5992
-19.7016
-18.0041
-16.4759
-15.0906
-13.8276
-12.6734
-11.6245
-10.6844
-9.85263
-9.11875
-8.46607
-7.87685
-7.33301
-6.81702
-6.31253
-5.80477
-5.28567
-4.75112
-4.19489
-3.6126
-2.99438
-2.34475
-1.67756
-1.00057
-0.352461
0.175187
0.664699
1.192
1.08645
1.68111
0.954928
11.8084
19.6994
25.6574
30.6375
34.5894
37.0731
38.4818
39.9419
41.2961
42.7301
44.2008
45.6312
47.1083
48.5302
49.7412
50.6069
51.2808
51.7152
51.7272
51.4298
50.7335
49.4403
47.0149
43.6866
39.586
34.9439
30.0822
25.4435
21.5115
18.5776
16.832
15.9154
15.8395
16.3734
17.1849
18.0271
18.6822
19.0987
19.3574
19.5175
19.5101
19.0774
17.8265
15.3917
11.5714
6.42449
0.225692
-6.72632
-14.1028
-21.8118
-30.3941
-40.2124
-49.3981
-57.4991
-65.7573
-72.6933
-73.5935
-69.7065
-62.6296
-55.3008
-48.9993
-43.7421
-39.2906
-35.4157
-31.9828
-28.9334
-26.2318
-23.8387
-21.7134
-19.8196
-18.1241
-16.5963
-15.2097
-13.9428
-12.782
-11.7251
-10.7785
-9.94338
-9.20903
-8.55745
-7.97028
-7.42908
-6.91639
-6.41561
-5.91135
-5.39678
-4.86927
-4.32267
-3.7523
-3.14541
-2.50467
-1.84753
-1.18418
-0.550451
-0.0531093
0.401414
0.990034
0.872126
1.35873
0.748261
11.7845
19.7027
25.6464
30.6766
34.6563
37.0994
38.4432
39.8881
41.2127
42.6375
44.1043
45.5422
47.0424
48.4954
49.7164
50.5687
51.1866
51.4118
51.2933
50.9856
50.3005
49.0089
46.6087
43.3194
39.2674
34.6722
29.8415
25.2227
21.3209
18.4118
16.6969
15.7185
15.5853
16.0661
16.8245
17.6312
18.27
18.6853
18.9476
19.0958
19.0417
18.5368
17.2167
14.7344
10.8909
5.74149
-0.433094
-7.29712
-14.4719
-21.8832
-30.1363
-39.6672
-48.553
-56.1737
-64.0131
-71.3681
-72.6947
-68.5884
-61.7705
-54.652
-48.551
-43.4725
-39.1614
-35.3807
-32.0029
-28.9853
-26.3041
-23.9246
-21.8086
-19.9213
-18.2304
-16.7055
-15.3194
-14.0503
-12.8836
-11.8188
-10.8657
-10.0276
-9.2931
-8.64273
-8.05749
-7.5187
-7.0092
-6.51212
-6.0111
-5.50123
-4.9819
-4.44673
-3.88989
-3.29547
-2.66583
-2.02307
-1.37822
-0.763709
-0.298398
0.1206
0.720149
0.628526
1.07847
0.506618
11.7786
19.7056
25.6341
30.7171
34.725
37.1223
38.3985
39.8274
41.121
42.5364
43.9998
45.4455
46.969
48.4597
49.6878
50.4952
50.9795
51.0319
50.858
50.5105
49.8347
48.5491
46.1825
42.9403
38.9445
34.401
29.5973
24.9914
21.1136
18.2195
16.5422
15.4843
15.2844
15.7089
16.4142
17.1876
17.8132
18.2299
18.4962
18.6377
18.5513
17.9848
16.6012
14.0779
10.218
5.07032
-1.08226
-7.86354
-14.8302
-21.9279
-29.8595
-39.1171
-47.6718
-54.7654
-62.19
-69.7944
-71.7007
-67.2744
-60.7893
-53.9187
-48.035
-43.1479
-38.9877
-35.3079
-31.9892
-29.0068
-26.3493
-23.9869
-21.8833
-20.0054
-18.3218
-16.8021
-15.4189
-14.1491
-12.9773
-11.9045
-10.9449
-10.1041
-9.36974
-8.72063
-8.13718
-7.60055
-7.09423
-6.60088
-6.1028
-5.59811
-5.08829
-4.56576
-4.02321
-3.44298
-2.82821
-2.2019
-1.5771
-0.992882
-0.562421
-0.188833
0.366742
0.39446
0.820825
0.289935
11.7666
19.7057
25.6212
30.7589
34.7946
37.1404
38.3471
39.7593
41.0222
42.4283
43.8893
45.3419
46.8883
48.4158
49.6309
50.3512
50.6717
50.6342
50.3989
50.0025
49.3363
48.0636
45.736
42.5468
38.6137
34.1271
29.345
24.74
20.8904
17.9929
16.3669
15.2119
14.9362
15.3015
15.9533
16.6952
17.3107
17.7322
18.0043
18.1391
18.0279
17.4163
15.9802
13.4224
9.55281
4.41234
-1.7205
-8.42557
-15.1759
-21.9419
-29.5758
-38.5807
-46.7418
-53.2452
-60.2796
-68.1185
-70.7046
-66.1539
-59.7913
-53.1293
-47.4615
-42.7726
-38.7715
-35.1979
-31.9413
-28.9968
-26.3665
-24.0245
-21.9363
-20.0706
-18.397
-16.8852
-15.5072
-14.2385
-13.0622
-11.9813
-11.015
-10.1716
-9.43774
-8.78994
-8.20811
-7.67343
-7.17041
-6.68083
-6.1855
-5.68685
-5.18747
-4.67762
-4.15036
-3.58716
-2.9861
-2.37292
-1.77954
-1.24405
-0.851115
-0.535005
-0.0493386
0.124537
0.570838
0.0961851
11.7479
19.704
25.6071
30.8016
34.864
37.1524
38.288
39.6847
40.9194
42.3159
43.774
45.2329
46.8021
48.3516
49.5063
50.1118
50.3197
50.2127
49.8997
49.4667
48.8077
47.5532
45.2665
42.1335
38.2671
33.8432
29.0808
24.452
20.6518
17.7266
16.1715
14.9018
14.542
14.8454
15.4431
16.1547
16.7624
17.1916
17.4719
17.6009
17.466
16.8205
15.3493
12.7675
8.89541
3.7687
-2.34646
-8.98186
-15.5033
-21.9237
-29.2966
-38.0438
-45.7029
-51.6406
-58.3787
-66.3237
-69.2514
-65.0391
-58.6797
-52.2794
-46.8371
-42.3507
-38.5149
-35.0516
-31.8588
-28.9546
-26.3548
-24.0364
-21.9666
-20.1161
-18.4553
-16.9538
-15.5834
-14.3178
-13.1377
-12.0483
-11.0749
-10.2292
-9.49595
-8.84946
-8.26914
-7.73625
-7.2369
-6.75115
-6.2589
-5.76677
-5.27764
-4.78044
-4.26817
-3.71791
-3.12358
-2.53126
-1.99274
-1.51766
-1.16283
-0.915027
-0.500538
-0.20194
0.252954
-0.0926394
11.7207
19.7006
25.5919
30.8446
34.9318
37.1557
38.2216
39.6059
40.8121
42.1994
43.6546
45.1206
46.7113
48.2428
49.3081
49.8123
49.9413
49.7491
49.3646
48.9072
48.2508
47.0165
44.7705
41.6944
37.8963
33.5401
28.8036
24.1215
20.3908
17.4275
15.9579
14.5569
14.1052
14.3439
14.8861
15.5675
16.1692
16.6082
16.8987
17.0239
16.8667
16.1904
14.6972
12.1091
8.24577
3.13992
-2.95897
-9.52813
-15.8046
-21.8802
-29.0252
-37.4632
-44.5562
-50.1292
-56.6124
-63.9712
-67.0765
-63.8461
-57.5603
-51.3989
-46.1727
-41.8871
-38.2201
-34.8695
-31.7416
-28.8798
-26.3135
-24.0218
-21.9734
-20.1409
-18.4956
-17.0072
-15.647
-14.3863
-13.203
-12.1046
-11.1236
-10.2756
-9.54324
-8.89809
-8.31921
-7.78811
-7.29291
-6.81161
-6.3232
-5.83692
-5.35653
-4.8688
-4.36375
-3.81542
-3.23563
-2.68321
-2.21287
-1.80487
-1.4907
-1.31513
-0.962913
-0.554168
-0.168063
-0.276917
11.6982
19.6896
25.5739
30.8868
34.9971
37.146
38.1521
39.5203
40.6966
42.0759
43.5284
45.0042
46.6052
48.0725
49.0483
49.4839
49.5236
49.2423
48.8031
48.3256
47.6668
46.4516
44.2446
41.2247
37.4949
33.2097
28.5118
23.7649
20.0891
17.1236
15.7271
14.1828
13.6311
13.8022
14.2866
14.9367
15.5325
15.9828
16.2847
16.4077
16.2312
15.5273
14.0166
11.436
7.60084
2.52623
-3.55667
-10.0568
-16.0774
-21.8293
-28.7525
-36.8
-43.343
-48.7383
-54.9566
-61.4737
-64.5567
-62.1559
-56.4715
-50.5265
-45.4884
-41.3881
-37.8892
-34.6519
-31.5893
-28.7718
-26.2421
-23.9802
-21.9561
-20.1445
-18.5174
-17.0448
-15.6973
-14.4435
-13.2576
-12.1494
-11.1602
-10.3099
-9.57854
-8.9348
-8.35746
-7.82823
-7.33784
-6.86316
-6.37739
-5.89493
-5.41741
-4.92626
-4.41851
-3.88079
-3.32593
-2.82178
-2.43168
-2.09798
-1.8274
-1.72974
-1.43873
-0.878014
-0.634157
-0.440143
11.7005
19.6745
25.5527
30.9265
35.0568
37.1218
38.0794
39.4229
40.5718
41.9447
43.3913
44.8777
46.4647
47.8466
48.7554
49.1245
49.0609
48.7017
48.2205
47.7218
47.0559
45.8566
43.6867
40.7216
37.0595
32.8482
28.203
23.4042
19.7322
16.8481
15.4746
13.7867
13.1261
13.2269
13.6504
14.2664
14.8551
15.3167
15.631
15.7531
15.5597
14.8322
13.3088
10.7425
6.95298
1.92653
-4.13803
-10.5631
-16.3337
-21.7843
-28.4666
-36.0476
-42.0904
-47.4124
-53.3987
-59.1304
-61.8045
-60.0758
-55.2648
-49.6815
-44.8114
-40.8628
-37.5236
-34.3986
-31.4016
-28.6302
-26.1403
-23.9111
-21.9143
-20.1264
-18.5202
-17.0659
-15.7336
-14.4888
-13.3009
-12.1822
-11.1841
-10.3312
-9.60083
-8.9587
-8.38321
-7.85602
-7.37245
-6.90662
-6.41945
-5.93447
-5.44389
-4.94118
-4.43534
-3.91483
-3.39024
-2.94461
-2.64584
-2.39102
-2.16952
-2.18187
-2.00576
-1.21583
-1.051
-0.562724
11.6988
19.6541
25.5289
30.9632
35.1039
37.0891
37.9944
39.313
40.44
41.8067
43.2432
44.7349
46.2772
47.5861
48.4423
48.7222
48.5596
48.1349
47.6165
47.0948
46.4183
45.2309
43.0966
40.1846
36.5895
32.4539
27.8742
23.0482
19.3253
16.6184
15.19
13.3751
12.5975
12.6257
12.9848
13.5628
14.1413
14.6127
14.9392
15.0617
14.8537
14.1061
12.5747
10.03
6.29898
1.33869
-4.7
-11.0514
-16.5855
-21.7501
-28.1569
-35.2271
-40.837
-46.0948
-51.8346
-56.892
-59.1456
-57.8031
-53.7939
-48.7928
-44.1559
-40.3256
-37.1235
-34.1082
-31.1778
-28.4549
-26.0079
-23.8145
-21.8479
-20.0865
-18.5036
-17.0699
-15.7554
-14.5218
-13.3326
-12.2026
-11.1945
-10.3386
-9.60922
-8.96908
-8.39581
-7.87129
-7.39926
-6.9388
-6.4461
-5.93996
-5.42716
-4.91818
-4.41684
-3.91818
-3.4332
-3.05454
-2.85288
-2.67803
-2.51706
-2.70854
-2.77911
-1.6937
-1.39572
-0.642222
11.6903
19.6287
25.5016
30.9955
35.1377
37.0497
37.8908
39.1937
40.3027
41.6632
43.087
44.568
46.0525
47.3081
48.0996
48.2757
48.0283
47.5448
46.9895
46.4438
45.7545
44.5751
42.4753
39.6148
36.0855
32.0269
27.5224
22.6941
18.8871
16.4361
14.8707
12.9536
12.0527
12.0069
12.2988
12.8341
13.3975
13.8752
14.2125
14.3358
14.1155
13.3514
11.8165
9.29994
5.63974
0.763637
-5.2356
-11.5195
-16.8342
-21.7286
-27.8132
-34.3611
-39.6194
-44.7944
-50.2448
-54.7143
-56.6211
-55.5119
-52.1368
-47.7534
-43.4709
-39.8027
-36.69
-33.7776
-30.9171
-28.2458
-25.8451
-23.6906
-21.7572
-20.0246
-18.4672
-17.0562
-15.7621
-14.542
-13.3524
-12.2102
-11.1911
-10.3316
-9.60295
-8.96539
-8.39478
-7.87479
-7.41791
-6.95676
-6.44576
-5.89604
-5.37214
-4.86049
-4.36891
-3.90106
-3.46268
-3.15345
-3.04872
-2.95262
-2.86611
-3.31466
-3.74264
-2.42236
-1.74675
-0.700972
11.6745
19.5992
25.4703
31.0149
35.1663
36.9967
37.7708
39.0682
40.1608
41.5158
42.9258
44.3723
45.8131
47.0167
47.7163
47.7918
47.4714
46.9309
46.3386
45.7691
45.0654
43.8913
41.8251
39.0146
35.5496
31.5675
27.1449
22.3374
18.4371
16.2998
14.5187
12.5252
11.4979
11.379
11.6025
12.0901
12.6322
13.1106
13.4553
13.5789
13.3483
12.5718
11.0381
8.55586
4.97647
0.202255
-5.7361
-11.9539
-17.0755
-21.7157
-27.4316
-33.472
-38.4557
-43.5197
-48.6448
-52.6222
-54.2452
-53.2853
-50.3937
-46.5532
-42.675
-39.2604
-36.2176
-33.4032
-30.6186
-28.0033
-25.6526
-23.54
-21.6424
-19.9409
-18.4106
-17.0244
-15.753
-14.5491
-13.3602
-12.2049
-11.1734
-10.3095
-9.58151
-8.94729
-8.38041
-7.86833
-7.42204
-6.96609
-6.39185
-5.80597
-5.28551
-4.77758
-4.30388
-3.87287
-3.48328
-3.24068
-3.2286
-3.20695
-3.20385
-3.95123
-4.6212
-3.41921
-2.16618
-0.763133
11.6618
19.5605
25.435
31.0185
35.193
36.9236
37.6395
38.9383
40.0148
41.366
42.7579
44.1613
45.5666
46.702
47.2925
47.2777
46.8899
46.2927
45.6643
45.0718
44.3526
43.1817
41.1488
38.3866
34.9839
31.0769
26.74
21.9786
18.001
16.212
14.1191
12.0851
10.9372
10.7503
10.9058
11.3412
11.855
12.3268
12.6743
12.7964
12.5568
11.7718
10.2451
7.80329
4.31261
-0.343748
-6.19354
-12.342
-17.3019
-21.7039
-27.0144
-32.5796
-37.3365
-42.2528
-47.0505
-50.6116
-52.0122
-51.1658
-48.6465
-45.2548
-41.7481
-38.6101
-35.7173
-32.9768
-30.2815
-27.7281
-25.4313
-23.3635
-21.504
-19.8352
-18.3337
-16.974
-15.7281
-14.5429
-13.3558
-12.1866
-11.1414
-10.272
-9.54462
-8.91463
-8.35358
-7.85223
-7.4167
-6.9465
-6.27066
-5.69031
-5.17906
-4.68138
-4.23067
-3.83837
-3.49579
-3.31428
-3.38811
-3.43307
-3.52093
-4.56392
-5.20426
-4.38812
-2.57706
-0.827272
11.6751
19.5144
25.3927
31.0155
35.2158
36.8307
37.5016
38.8058
39.8652
41.2126
42.5814
43.9499
45.3094
46.3526
46.8345
46.7374
46.2833
45.6304
44.9682
44.3533
43.6178
42.4487
40.4486
37.7333
34.3907
30.5562
26.307
21.6215
17.6119
16.1722
13.6437
11.6207
10.3742
10.1276
10.2179
10.5973
11.076
11.5333
11.8771
11.9949
11.7469
10.9572
9.44378
7.04923
3.65345
-0.871531
-6.60105
-12.6708
-17.5027
-21.684
-26.5683
-31.6985
-36.2595
-40.9948
-45.4687
-48.6785
-49.9121
-49.1673
-46.9505
-43.931
-40.7437
-37.8343
-35.1606
-32.4949
-29.9054
-27.422
-25.1828
-23.1621
-21.3426
-19.7079
-18.2366
-16.9053
-15.6871
-14.5233
-13.3389
-12.1548
-11.0946
-10.2191
-9.49223
-8.86776
-8.31434
-7.82218
-7.42339
-6.84783
-6.11328
-5.56527
-5.06204
-4.57925
-4.15337
-3.79837
-3.4987
-3.37211
-3.52244
-3.62514
-3.82175
-5.14221
-5.44902
-5.03437
-2.87244
-0.878451
11.6822
19.4615
25.3375
31.0136
35.2308
36.7217
37.3604
38.6715
39.7115
41.0518
42.3982
43.7382
45.0334
45.9668
46.3484
46.1726
45.6517
44.9455
44.252
43.6149
42.8625
41.6941
39.7265
37.0564
33.7714
30.0066
25.8463
21.2697
17.2908
16.1664
13.0831
11.1293
9.81474
9.5163
9.54582
9.86695
10.305
10.7398
11.073
11.1825
10.9256
10.1347
8.64096
6.30094
3.00549
-1.37711
-6.95385
-12.9289
-17.6651
-21.6465
-26.103
-30.8384
-35.2185
-39.7438
-43.9045
-46.8181
-47.9319
-47.2885
-45.3314
-42.6304
-39.7204
-36.9969
-34.5083
-31.9755
-29.4841
-27.0846
-24.9086
-22.9367
-21.1587
-19.5595
-18.12
-16.819
-15.6308
-14.4901
-13.3087
-12.1086
-11.0327
-10.1508
-9.42454
-8.80769
-8.26285
-7.7841
-7.40814
-6.67177
-5.95898
-5.43446
-4.93991
-4.47417
-4.07273
-3.75157
-3.48979
-3.41169
-3.62601
-3.7798
-4.11616
-5.67397
-5.56495
-5.25311
-2.99092
-0.902725
11.6766
19.4024
25.2708
31.013
35.2351
36.6004
37.2179
38.5357
39.5535
40.8816
42.2087
43.5165
44.7289
45.5497
45.8378
45.5837
44.9962
44.24
43.517
42.8575
42.0875
40.9188
38.9833
36.357
33.1274
29.4293
25.3587
20.9232
17.0364
16.1533
12.4449
10.6282
9.26459
8.91989
8.89496
9.15687
9.55028
9.95575
10.2713
10.3679
10.1009
9.31115
7.84295
5.56476
2.37507
-1.85595
-7.24951
-13.1073
-17.7755
-21.5808
-25.628
-30.0032
-34.2063
-38.4999
-42.3579
-45.0162
-46.0458
-45.5089
-43.7863
-41.3687
-38.7105
-36.1465
-33.7874
-31.4251
-29.0112
-26.7129
-24.6074
-22.6882
-20.9533
-19.3913
-17.9855
-16.7166
-15.5601
-14.4432
-13.2639
-12.0468
-10.9553
-10.067
-9.34193
-8.73503
-8.19934
-7.76264
-7.30905
-6.46442
-5.8135
-5.29903
-4.81499
-4.36664
-3.98796
-3.69619
-3.46708
-3.43034
-3.69345
-3.89145
-4.4041
-6.07779
-5.76783
-5.22149
-2.96504
-0.899403
11.6598
19.3372
25.2033
31.0115
35.2307
36.4698
37.0755
38.3983
39.3907
40.7018
42.0104
43.2749
44.3915
45.1066
45.3042
44.9711
44.3182
43.5159
42.7639
42.0811
41.2933
40.1232
38.2195
35.6357
32.4594
28.8256
24.8448
20.5751
16.8198
16.0548
11.7488
10.1208
8.72568
8.34097
8.26864
8.47187
8.81857
9.18927
9.48098
9.56017
9.28148
8.49403
7.05581
4.84586
1.76737
-2.30375
-7.48778
-13.2
-17.8215
-21.4739
-25.1496
-29.1925
-33.217
-37.2661
-40.8316
-43.2627
-44.2272
-43.7926
-42.284