/*--------------------------------*- C++ -*----------------------------------*\
| =========                 |                                                 |
| \\      /  F ield         | OpenFOAM: The Open Source CFD Toolbox           |
|  \\    /   O peration     | Version:  4.1                                   |
|   \\  /    A nd           | Web:      www.OpenFOAM.org                      |
|    \\/     M anipulation  |                                                 |
\*---------------------------------------------------------------------------*/
FoamFile
{
    version     2.0;
    format      ascii;
    class       surfaceScalarField;
    location    "1300";
    object      phi;
}
// * * * * * * * * * * * * * * * * * * * * * * * * * * * * * * * * * * * * * //

dimensions      [0 3 -1 0 0 0 0];

internalField   nonuniform List<scalar> 
52920
(
1656.18
94.7788
1565.47
90.7103
1471.19
94.2846
1375.18
96.0121
1281.65
93.5274
1193.58
88.0644
1111.72
81.8652
1037.48
74.2428
972.644
64.8341
919.692
52.9532
881.84
37.8522
861.172
20.6689
858.048
3.12546
873.061
-15.0131
908.184
-35.1216
963.285
-55.1006
1033.7
-70.4137
1112.92
-79.2188
1198.17
-85.2546
1290.66
-92.4815
1394.77
-104.113
1516.98
-122.214
1660.9
-143.916
1827.24
-166.344
2013.02
-185.773
2211.16
-198.138
2411.38
-200.227
2602.57
-191.188
2775.58
-173.011
2925.39
-149.806
3052.55
-127.16
3163.74
-111.192
3270.76
-107.017
3387.86
-117.1
3527.81
-139.947
3698.27
-170.465
3900.47
-202.2
4131.27
-230.795
4387.98
-256.715
4672.7
-284.714
4993.25
-320.552
5360.56
-367.313
5783.75
-423.187
6265.88
-482.134
6803.03
-537.144
7386.27
-583.245
8004.4
-618.131
8645.81
-641.406
9298.73
-652.915
9948.35
-649.62
10572.5
-624.113
11137.5
-565.058
11596.5
-458.985
11897.5
-300.977
12005.7
-108.262
11915.6
90.1031
11658.1
257.528
11293.9
364.212
10882.1
411.796
10463.1
418.98
10059.4
403.755
9681.16
378.21
9331.9
349.255
9011.48
320.422
8718.15
293.331
8449.53
268.619
8203.09
246.444
7976.35
226.738
7767.03
209.319
7573.09
193.94
7392.78
180.307
7224.68
168.1
7067.69
156.991
6921.04
146.652
6784.27
136.773
6657.2
127.062
6539.94
117.264
6432.74
107.202
6335.9
96.8398
6249.52
86.3751
6173.2
76.3266
6105.63
67.5676
6044.38
61.2471
5985.81
58.5697
5925.35
60.465
5858.09
67.2594
5779.59
78.494
5686.61
92.9826
5577.53
109.084
5452.47
125.055
5313.12
139.352
5162.4
150.723
5004.11
158.287
4842.92
161.192
4683.89
159.028
4533.75
150.138
4397.37
136.384
4288.58
108.786
4194.37
94.2098
19.7803
1635.7
187.329
1547.17
179.249
1455.52
185.935
1362.64
188.891
1272.91
183.257
1189.51
171.459
1113.27
158.112
1045.51
142.003
987.779
122.563
942.087
98.6455
910.927
69.0131
895.876
35.7209
897.379
1.62355
916.077
-33.7102
953.16
-72.2042
1007.05
-108.995
1072.03
-135.384
1141.45
-148.645
1212.94
-156.741
1288.26
-167.802
1373.38
-189.236
1478.53
-227.357
1612.57
-277.956
1780.45
-334.227
1980.14
-385.462
2202.39
-420.384
2433.28
-431.121
2658.42
-416.325
2866.78
-381.37
3053.11
-336.141
3219.14
-293.185
3373.24
-265.289
3528.15
-261.933
3697.05
-285.993
3889.13
-332.032
4107.16
-388.49
4347.95
-442.986
4605.77
-488.619
4877.04
-527.986
5163.57
-571.245
5472.78
-629.758
5815
-709.535
6199.27
-807.461
6629.73
-912.594
7104.61
-1012.02
7617.61
-1096.25
8159.87
-1160.39
8721.52
-1203.05
9292.54
-1223.94
9861.71
-1218.78
10414.7
-1177.06
10931
-1081.42
11377.4
-905.321
11702.6
-626.263
11852
-257.623
11795
147.053
11552.5
500.067
11189.4
727.286
10772.6
828.604
10347.9
843.701
9940.22
811.442
9560.56
757.868
9212.11
697.707
8894.19
638.346
8604.45
583.067
8340.01
533.059
8097.94
488.515
7875.51
449.167
7670.3
414.532
7480.22
384.02
7303.55
356.977
7138.92
332.726
6985.32
310.595
6842.03
289.943
6708.61
270.191
6584.82
250.855
6470.5
231.582
6365.5
212.203
6269.54
192.798
6182.14
173.78
6102.47
155.992
6029.26
140.777
5960.58
129.93
5893.69
125.458
5825.06
129.095
5750.63
141.69
5666.39
162.73
5569.12
190.261
5456.93
221.269
5329.64
252.35
5188.62
280.364
5036.64
302.703
4877.44
317.495
4715.66
322.972
4556.44
318.249
4406.63
299.946
4271.17
271.841
4164.79
215.17
4074.01
184.99
31.3695
1604.69
279.361
1516.63
267.308
1426.79
275.774
1337.28
278.404
1252.6
267.941
1176.05
248.004
1108.38
225.783
1050.65
199.738
1003.89
169.324
969.395
133.136
948.844
89.5649
942.913
41.6528
950.743
-6.20554
971.327
-54.2942
1004.49
-105.368
1048.04
-152.547
1096.63
-183.967
1144.97
-196.991
1193.01
-204.779
1246.34
-221.132
1316.95
-259.837
1421.82
-332.227
1573.09
-429.228
1773.65
-534.789
2015.72
-627.532
2283.38
-688.044
2557.23
-704.973
2819.73
-678.819
3059.08
-620.724
3270.81
-547.866
3457.69
-480.065
3628.36
-435.962
3794.44
-428.013
3966.91
-458.458
4152.85
-517.972
4354.07
-589.713
4567.88
-656.795
4789.71
-710.451
5016.85
-755.124
5251.33
-805.722
5500.67
-879.104
5776.29
-985.151
6089.77
-1120.95
6448.63
-1271.45
6853.83
-1417.22
7300.24
-1542.66
7778.6
-1638.75
8277.81
-1702.26
8786.77
-1732.9
9294.39
-1726.4
9789.26
-1671.93
10259.2
-1551.4
10686
-1332.11
11035.9
-976.121
11257.8
-479.524
11297.5
107.372
11141.8
655.709
10843.7
1025.4
10472.7
1199.66
10080.6
1235.75
9697.44
1194.6
9337.26
1118.05
9004.98
1029.98
8700.86
942.464
8423.06
860.869
8168.96
787.154
7935.85
721.629
7721.17
663.848
7522.68
613.025
7338.48
568.218
7167.03
528.428
7007.11
492.647
6857.79
459.907
6718.42
429.321
6588.47
400.132
6467.56
371.775
6355.21
343.922
6250.89
316.526
6153.86
289.834
6063.22
264.42
5977.95
241.26
5896.89
221.831
5818.66
208.168
5741.4
202.71
5662.69
207.814
5579.41
224.961
5488.2
253.948
5385.94
292.512
5270.57
336.649
5141.44
381.479
4999.52
422.281
4847.23
454.995
4688.08
476.64
4526.6
484.45
4367.9
476.958
4218.92
448.927
4084.83
405.924
3981.91
318.09
3894.97
271.93
27.9787
1569.77
369.724
1483.56
353.52
1396.98
362.355
1312.47
362.909
1234.7
345.714
1167.02
315.686
1109.89
282.91
1063.87
245.762
1029.19
204.003
1006.2
156.131
995.46
100.303
996.145
40.9684
1005.4
-15.4633
1020.73
-69.6227
1041.55
-126.19
1066.37
-177.366
1091.8
-209.395
1115.8
-220.992
1142.95
-231.922
1184.84
-263.022
1259.34
-334.336
1385.67
-458.555
1572.38
-615.94
1815.58
-777.989
2099.83
-911.783
2402.66
-990.874
2701.11
-1003.43
2977.48
-955.182
3221.87
-865.12
3432.01
-758.008
3612.01
-660.062
3770.59
-594.542
3918.66
-576.082
4066.59
-606.382
4221.63
-673.016
4386.63
-754.714
4560.19
-830.349
4738.53
-888.793
4918.97
-935.563
5103.27
-990.027
5299.52
-1075.35
5521.31
-1206.94
5783.45
-1383.09
6095.81
-1583.8
6459.66
-1781.07
6868.38
-1951.38
7310.29
-2080.66
7771.92
-2163.88
8240.49
-2201.48
8704.29
-2190.2
9152.86
-2120.5
9578.11
-1976.65
9971.4
-1725.39
10313.8
-1318.57
10567.2
-732.89
10673.1
1.47801
10593.5
735.28
10364.9
1254.07
10052.3
1512.2
9708.48
1579.6
9364.9
1538.19
9037.32
1445.63
8732.01
1335.3
8450.26
1224.21
8191.06
1120.07
7952.46
1025.75
7732.28
941.811
7528.44
867.693
7339.08
802.377
7162.66
744.641
6997.88
693.206
6843.71
646.815
6699.34
604.287
6564.09
564.568
6437.42
526.805
6318.78
490.411
6207.58
455.126
6103.07
421.035
6004.36
388.541
5910.44
358.341
5820.23
331.468
5732.64
309.422
5646.51
294.3
5560.46
288.755
5472.71
295.566
5380.92
316.749
5282.37
352.495
5174.4
400.486
5055
456.044
4923.4
513.082
4780.24
565.44
4627.58
607.654
4468.62
635.608
4307.57
645.499
4149.44
635.083
4001.29
597.076
3868.71
538.505
3769.67
417.135
3685.93
355.661
1.96227
1534.44
456.86
1452.04
435.921
1370.85
443.55
1293.55
440.203
1224.8
414.467
1167.75
372.74
1122.27
328.381
1088.14
279.895
1064.57
227.578
1050.83
169.866
1046.33
104.804
1048.66
38.6392
1053.54
-20.3405
1057.9
-73.9862
1061.33
-129.614
1063.64
-179.674
1064.73
-210.485
1067.53
-223.79
1082.68
-247.071
1127.27
-307.618
1221.06
-428.117
1379.85
-617.348
1604.93
-841.022
1884.33
-1057.39
2195.48
-1222.93
2512.28
-1307.68
2812.51
-1303.66
3081.72
-1224.39
3313.45
-1096.85
3507.58
-952.139
3668.89
-821.372
3805.69
-731.343
3928.18
-698.573
4046.51
-724.709
4168.46
-794.964
4297.86
-884.116
4434.15
-966.636
4573.7
-1028.34
4713.43
-1075.29
4855.07
-1131.67
5007.92
-1228.2
5187.56
-1386.58
5410.14
-1605.67
5686.04
-1859.71
6016.93
-2111.96
6396.18
-2330.64
6811.03
-2495.52
7246.07
-2598.92
7686.74
-2642.14
8120.14
-2623.6
8535.4
-2535.77
8925.78
-2367.03
9287.61
-2087.22
9612.07
-1643.03
9873.8
-994.613
10020
-144.73
9996.52
758.767
9825.97
1424.62
9568.35
1769.81
9274.22
1873.73
8974.35
1838.06
8684.37
1735.6
8410.95
1608.72
8156
1479.16
7919.2
1356.87
7699.29
1245.66
7494.73
1146.37
7303.99
1058.44
7125.67
980.692
6958.59
911.72
6801.74
850.062
6654.25
794.299
6515.42
743.116
6384.63
695.361
6261.32
650.121
6144.92
606.804
6034.84
565.21
5930.34
525.537
5830.55
488.328
5734.49
454.404
5641.08
424.875
5549.23
401.276
5457.77
385.752
5365.45
381.081
5270.71
390.3
5171.69
415.77
5066.24
457.95
4952.24
514.488
4828.08
580.2
4693.12
648.036
4547.91
710.652
4394.2
761.364
4234.82
794.99
4073.66
806.66
3915.67
793.074
3767.9
744.848
3636.37
670.034
3540.54
512.965
3458.23
437.972
-55.6137
1494.64
536.105
1421.57
508.996
1350.58
514.533
1284.08
506.706
1226.62
471.934
1181.17
418.187
1147.03
362.519
1123.15
303.778
1107.75
242.979
1099.21
178.411
1095.92
108.092
1094.5
40.0583
1090.45
-16.2917
1080.88
-64.4178
1065.31
-114.036
1044.91
-159.273
1023.9
-189.475
1011.66
-211.547
1025.35
-260.768
1084.76
-367.024
1206
-549.357
1397.33
-808.681
1651.7
-1095.39
1950.51
-1356.2
2267.74
-1540.15
2578.24
-1618.18
2863.8
-1589.21
3114.25
-1474.84
3325.95
-1308.55
3499.74
-1125.93
3639.98
-961.609
3753.85
-845.216
3850.56
-795.278
3939.96
-814.111
4030.36
-885.364
4126.55
-980.305
4228.7
-1068.79
4333.3
-1132.95
4437.17
-1179.16
4542.11
-1236.61
4656.61
-1342.7
4793.89
-1523.85
4969.77
-1781.54
5200.18
-2090.12
5494.51
-2406.29
5849
-2685.13
6247.88
-2894.4
6670.81
-3021.85
7099.57
-3070.9
7519.28
-3043.32
7918.04
-2934.52
8288.92
-2737.91
8630.32
-2428.62
8939.33
-1952.04
9200.87
-1256.16
9371.83
-315.687
9388.82
741.773
9264.19
1549.25
9053.92
1980.09
8805.85
2121.8
8548.64
2095.27
8296.73
1987.52
8056.38
1849.07
7829.7
1705.83
7616.87
1569.7
7417.21
1445.33
7229.74
1333.84
7053.46
1234.72
6887.43
1146.73
6730.78
1068.37
6582.77
998.073
6442.72
934.348
6310.03
875.805
6184.16
821.233
6064.61
769.671
5950.9
720.514
5842.51
673.601
5738.82
629.229
5639.06
588.084
5542.33
551.14
5447.55
519.651
5353.56
495.269
5259.07
480.24
5162.7
477.454
5062.92
490.079
4958.09
520.602
4846.51
569.528
4726.66
634.341
4597.46
709.401
4458.59
786.903
4310.61
858.627
4155.07
916.913
3994.49
955.56
3832.51
968.643
3674.04
951.545
3525.78
893.11
3394.18
801.629
3299.81
607.335
3216.6
521.181
-155.493
1466.5
610.239
1400.83
574.674
1340.01
575.351
1285.13
561.584
1239.55
517.515
1205.26
452.477
1180.6
387.184
1163.72
320.655
1152.11
254.591
1143.64
186.876
1136.38
115.357
1127.07
49.3695
1112.1
-1.3266
1088.74
-41.0519
1055.55
-80.8505
1014.66
-118.383
975.537
-150.347
955.683
-191.692
978.16
-283.244
1060.09
-448.956
1208.21
-697.474
1422.24
-1022.71
1689.45
-1362.6
1988.09
-1654.83
2291.97
-1844.03
2579.9
-1906.11
2839.49
-1848.8
3065.13
-1700.48
3255.04
-1498.45
3409.48
-1280.38
3530.97
-1083.1
3624.62
-938.863
3698.14
-868.795
3761
-876.979
3822.09
-946.446
3887.18
-1045.4
3957.27
-1138.88
4029.25
-1204.93
4099.57
-1249.48
4166.81
-1303.85
4232.05
-1407.95
4305.02
-1596.82
4413.88
-1890.41
4595.85
-2272.09
4869.26
-2679.7
5222.15
-3038.01
5626.01
-3298.26
6052.9
-3448.74
6482.63
-3500.62
6900.54
-3461.23
7294.92
-3328.9
7658.75
-3101.74
7990.9
-2760.77
8290.98
-2252.13
8550.96
-1516.14
8738.16
-502.881
8785.4
694.535
8697.07
1637.57
8526.93
2150.23
8320.22
2328.5
8102.89
2312.61
7887.52
2202.88
7679.57
2057.02
7481.04
1904.36
7292.39
1758.35
7113.41
1624.31
6943.62
1503.62
6782.47
1395.87
6629.4
1299.8
6483.85
1213.91
6345.3
1136.62
6213.27
1066.39
6087.26
1001.81
5966.86
941.637
5851.66
884.866
5741.32
830.862
5635.43
779.486
5533.53
731.127
5434.98
686.632
5338.94
647.183
5244.33
614.265
5149.84
589.755
5053.99
576.085
4955.19
576.257
4851.82
593.455
4742.35
630.069
4625.48
686.392
4500.26
759.569
4366.15
843.506
4223.2
929.857
4072.02
1009.81
3914.04
1074.89
3751.7
1117.9
3588.29
1132.05
3428.6
1111.23
3278.46
1043.25
3145.26
934.83
3049.83
702.772
2963.58
607.422
-309.596
1445.73
676.473
1388.2
632.202
1336.84
626.713
1292.35
606.076
1257.08
552.784
1231.74
477.817
1213.43
405.492
1199.64
334.447
1187.44
266.795
1174.67
199.643
1159.74
130.291
1140.6
68.5122
1115.23
24.0423
1080.66
-6.48376
1033.44
-33.6309
975.77
-60.7087
923.503
-98.0791
904.299
-172.487
944.044
-322.988
1049.5
-554.412
1215.27
-863.246
1436.33
-1243.77
1696.91
-1623.18
1972.23
-1930.15
2237.63
-2109.44
2480.33
-2148.81
2698.35
-2066.83
2892.8
-1894.92
3062.89
-1668.54
3205.54
-1423.03
3318.17
-1195.73
3401.25
-1021.94
3459.59
-927.133
3501.68
-919.068
3536.5
-981.271
3570.54
-1079.43
3605.98
-1174.31
3640.73
-1239.68
3668.91
-1277.66
3680.23
-1315.17
3669.38
-1397.09
3663.17
-1590.61
3725.83
-1953.07
3908.79
-2455.04
4208.69
-2979.6
4586.35
-3415.67
5002.94
-3714.85
5433.11
-3878.91
5862.12
-3929.64
6278.87
-3877.97
6672.44
-3722.48
7035.21
-3464.51
7365.39
-3090.94
7662.56
-2549.31
7922.37
-1775.95
8121.13
-701.634
8192.19
623.47
8133.11
1696.65
7997.19
2286.16
7827.5
2498.2
7646.96
2493.14
7466.01
2383.83
7289.02
2234.01
7117.73
2075.66
6952.76
1923.32
6794.26
1782.81
6642.17
1655.71
6496.32
1541.72
6356.48
1439.65
6222.37
1348.02
6093.69
1265.29
5970.11
1189.97
5851.27
1120.64
5736.88
1056.03
5626.65
995.091
5520.37
937.146
5417.79
882.064
5318.59
830.331
5222.24
782.98
5127.95
741.467
5034.61
707.609
4940.74
683.622
4844.63
672.202
4744.43
676.457
4638.42
699.462
4525.2
743.287
4403.83
807.76
4273.87
889.538
4135.25
982.121
3988.31
1076.8
3833.79
1164.33
3673.17
1235.51
3508.76
1282.31
3343.33
1297.48
3181.45
1273.11
3027.71
1196.99
2891.63
1070.91
2792
802.399
2700.74
698.686
-528.789
1429.25
734.257
1379.88
681.576
1336.65
669.946
1300.1
642.624
1272.04
580.84
1252.21
497.651
1236.64
421.06
1222.43
348.663
1206.54
282.685
1186.95
219.229
1162.45
154.789
1132.37
98.5921
1096.92
59.5017
1053.76
36.6689
997.197
22.9359
928.05
8.43907
869.31
-39.3382
859.88
-163.057
921.619
-384.726
1043.94
-676.734
1212.51
-1031.81
1420.53
-1451.79
1644.26
-1846.91
1852.55
-2138.43
2028.83
-2285.73
2180.93
-2300.91
2326.87
-2212.77
2477.98
-2046.03
2633.03
-1823.59
2781.03
-1571.04
2908.26
-1322.96
3004.46
-1118.14
3066.68
-989.352
3099.08
-951.47
3108.92
-991.114
3104.24
-1074.75
3092.48
-1162.56
3076.25
-1223.45
3047.38
-1248.79
2991.78
-1259.57
2922.43
-1327.75
2908.75
-1576.93
3026.81
-2071.13
3282.53
-2710.77
3626.25
-3323.31
4012.41
-3801.83
4418.36
-4120.8
4833.73
-4294.28
5251.33
-4347.24
5662.12
-4288.77
6054.4
-4114.76
6418.64
-3828.74
6751.24
-3423.54
7050.15
-2848.23
7312.15
-2037.94
7520.47
-909.957
7611.35
532.588
7576.41
1731.59
7470.19
2392.37
7333.94
2634.45
7187.43
2639.65
7038.74
2532.52
6891.07
2381.68
6745.8
2220.92
6603.66
2065.47
6465.1
1921.37
6330.4
1790.41
6199.73
1672.38
6073.15
1566.22
5950.63
1470.54
5832.05
1383.88
5717.23
1304.79
5605.96
1231.91
5498.04
1163.95
5393.32
1099.81
5291.7
1038.77
5193.07
980.687
5097.25
926.151
5003.82
876.414
4912.01
833.278
4820.63
798.992
4728.03
776.22
4632.24
767.984
4531.24
777.465
4423.21
807.486
4306.92
859.579
4181.78
932.904
4047.75
1023.57
3905.13
1124.74
3754.52
1227.4
3596.89
1321.96
3433.72
1398.68
3267
1449.04
3098.81
1465.66
2933.7
1438.23
2774.93
1355.76
2635.56
1210.28
2527.46
910.498
2428.13
798.017
-819.299
1416.03
783.917
1373.92
723.687
1337
706.87
1305.64
673.984
1281.39
605.086
1263.49
515.548
1247.37
437.183
1230.05
365.98
1208.51
304.228
1180.85
246.888
1146.06
189.584
1104.24
140.408
1057.53
106.218
1005.13
89.0632
941.084
86.9877
866.712
82.8116
812.29
15.0849
822.643
-173.409
905.555
-467.637
1031.86
-803.043
1183.04
-1182.99
1341.68
-1610.43
1463.43
-1968.66
1517.97
-2192.98
1521.18
-2288.93
1520.68
-2300.4
1557.63
-2249.71
1647.63
-2136.03
1783.87
-1959.82
1945.78
-1732.95
2107.25
-1484.42
2242.48
-1253.37
2332.55
-1079.42
2369.76
-988.68
2358.26
-979.612
2315.04
-1031.53
2263.46
-1110.98
2216.54
-1176.53
2169.93
-1202.18
2126.36
-1216
2133.69
-1335.08
2257.83
-1701.07
2501.94
-2315.23
2811.61
-3020.44
3145.9
-3657.61
3496.29
-4152.22
3865.08
-4489.6
4251.34
-4680.53
4649.92
-4745.82
5051.08
-4689.92
5441.15
-4504.83
5808.13
-4195.73
6146.06
-3761.46
6450.08
-3152.25
6716.42
-2304.29
6934.12
-1127.66
7042.79
423.923
7028.68
1745.7
6949
2472.05
6843.52
2739.93
6728.76
2754.41
6610.4
2650.87
6490.45
2501.63
6369.93
2341.45
6249.65
2185.75
6130.31
2040.71
6012.52
1908.2
5896.75
1788.16
5783.3
1679.67
5672.36
1581.48
5563.99
1492.25
5458.14
1410.64
5354.72
1335.34
5253.62
1265.05
5154.79
1198.64
5058.26
1135.3
4964.04
1074.9
4872.07
1018.13
4781.99
966.49
4693.06
922.208
4603.99
888.066
4512.94
867.261
4417.76
863.172
4316.23
878.992
4206.58
917.136
4087.76
978.397
3959.5
1061.17
3822.05
1161.02
3676.01
1270.77
3522.32
1381.1
3362.08
1482.2
3196.51
1564.24
3027.04
1618.51
2855.42
1637.29
2686.52
1607.12
2522.19
1520.09
2379.71
1352.76
2256.47
1033.73
2143.55
910.937
-1178.26
1402.2
824.493
1367.06
758.827
1335.06
738.866
1306.79
702.258
1283.83
628.043
1265.3
534.087
1246.33
456.148
1224.15
388.158
1195.65
332.733
1158.98
283.562
1113.47
235.088
1060
193.885
1001.54
164.672
937.988
152.619
865.258
159.718
790.65
157.42
753.784
51.9522
791.978
-211.603
887.986
-563.645
999.343
-914.399
1095.15
-1278.79
1124.38
-1639.66
1031.57
-1875.85
840.047
-2001.46
640.237
-2089.12
509.092
-2169.26
468.262
-2208.88
504.155
-2171.93
594.542
-2050.21
718.438
-1856.84
857.226
-1623.21
988.854
-1385
1089.27
-1179.83
1143.72
-1043.13
1157.75
-993.638
1159.15
-1032.94
1177.4
-1129.23
1222.06
-1221.19
1294.12
-1274.23
1414.43
-1336.31
1613.69
-1534.33
1880.82
-1968.2
2166.11
-2600.52
2442.27
-3296.6
2719.1
-3934.44
3014.59
-4447.71
3337.54
-4812.55
3687.96
-5030.95
4061.56
-5119.42
4448.75
-5077.12
4834.44
-4890.52
5204.04
-4565.32
5548.77
-4106.19
5859.94
-3463.42
6131.88
-2576.23
6358.99
-1354.76
6485.14
297.776
6490.29
1740.55
6435.32
2527.03
6358.82
2816.43
6274.07
2839.16
6184.41
2740.53
6090.73
2595.31
5993.73
2438.45
5894.3
2285.18
5793.44
2141.58
5692.01
2009.62
5590.75
1889.42
5490.21
1780.22
5390.75
1680.94
5292.58
1590.42
5195.78
1507.44
5100.35
1430.77
5006.27
1359.13
4913.57
1291.34
4822.38
1226.5
4732.83
1164.45
4644.97
1105.99
4558.5
1052.96
4472.64
1008.07
4385.98
974.72
4296.54
956.703
4201.97
957.742
4100.02
980.945
3989
1028.15
3868.1
1099.3
3737.26
1192.01
3597.01
1301.26
3448.31
1419.48
3292.33
1537.08
3129.96
1644.58
2961.88
1732.32
2789.28
1791.11
2614.29
1812.28
2441.91
1779.51
2272.31
1689.69
2126.2
1498.87
1978.05
1181.89
1844.4
1044.59
-1589.38
1389.99
861.124
1358.2
790.616
1328.49
768.573
1301.12
729.636
1277.56
651.599
1256.82
554.829
1233.8
479.168
1205.86
416.094
1169.63
368.963
1123.31
329.89
1066.76
291.64
1001.48
259.156
930.877
235.28
855.708
227.789
775.728
239.698
707.707
225.442
700.086
59.5743
766.035
-277.551
858.355
-655.963
920.367
-976.41
876.883
-1235.31
655.185
-1417.96
298.08
-1518.75
-30.6953
-1672.68
-217.816
-1902
-277.661
-2109.41
-272.206
-2214.34
-242.453
-2201.68
-211.605
-2081.06
-192.123
-1876.33
-178.619
-1636.71
-157.814
-1405.8
-116.292
-1221.35
-37.9277
-1121.5
86.8715
-1118.44
253.595
-1199.66
444.872
-1320.5
647.833
-1424.15
868.973
-1495.37
1122.5
-1589.84
1399.45
-1811.28
1664.63
-2233.38
1897.78
-2833.68
2112.75
-3511.57
2333.74
-4155.42
2576.78
-4690.74
2849.74
-5085.52
3156.02
-5337.22
3495.82
-5459.22
3862.12
-5443.42
4239.12
-5267.52
4609.23
-4935.44
4960.4
-4457.35
5279.09
-3782.12
5556.62
-2853.75
5792.46
-1590.61
5936.79
153.444
5961.06
1716.28
5930.1
2557.98
5881.59
2864.95
5825.61
2895.14
5763.31
2802.83
5694.61
2664.02
5619.98
2513.08
5540.46
2364.69
5457.29
2224.74
5371.64
2095.28
5284.46
1976.59
5196.52
1868.16
5108.35
1769.11
5020.28
1678.48
4932.5
1595.22
4845.08
1518.19
4758.06
1446.15
4671.56
1377.83
4585.81
1312.24
4501.09
1249.17
4417.49
1189.59
4334.75
1135.7
4252.01
1090.81
4167.73
1059
4079.77
1044.66
3985.7
1051.81
3883.3
1083.34
3771.08
1140.37
3648.41
1221.98
3515.47
1324.95
3373.14
1443.59
3222.69
1569.92
3065.15
1694.62
2900.81
1808.91
2730.13
1903.01
2554.8
1966.44
2377.65
1989.43
2202.39
1954.76
2027.69
1864.4
1874.79
1651.77
1689.6
1367.07
1531.16
1203.03
-2021.75
1377.17
894.736
1346.58
821.201
1316.61
798.552
1287.75
758.492
1261.71
677.64
1237.5
579.039
1209.67
506.999
1175.52
450.241
1131.22
413.266
1074.91
386.203
1006.88
359.673
929.259
336.774
846.306
318.234
760.979
313.116
678.726
321.951
628.389
275.78
656.856
31.1083
738.287
-358.981
797.437
-715.113
734.123
-913.095
428.958
-930.142
-33.0398
-955.962
-375.775
-1176.01
-488.855
-1559.6
-477.669
-1913.19
-431.074
-2156.01
-378.705
-2266.71
-334.642
-2245.74
-312.189
-2103.51
-321.483
-1867.03
-353.73
-1604.47
-380.238
-1379.3
-367.176
-1234.41
-292.113
-1196.56
-149.516
-1261.03
48.559
-1397.73
274.573
-1546.52
510.658
-1660.24
756.671
-1741.39
1009.55
-1842.72
1251.29
-2053.02
1464.57
-2446.66
1651.77
-3020.88
1827.85
-3687.65
2006.3
-4333.87
2198.49
-4882.94
2415.95
-5302.98
2669.19
-5590.46
2965.43
-5755.46
3302.09
-5780.08
3663.85
-5629.27
4029.87
-5301.46
4384.46
-4811.94
4708.87
-4106.53
4990.38
-3135.26
5232.62
-1832.84
5396.1
-10.0376
5440.46
1671.92
5433.86
2564.58
5413.01
2885.8
5384.99
2923.16
5348.98
2838.84
5304.13
2708.87
5250.82
2566.38
5190.3
2425.21
5124.08
2290.96
5053.59
2165.77
4980.03
2050.15
4904.33
1943.86
4827.18
1846.27
4749.02
1756.64
4670.12
1674.13
4590.58
1597.72
4510.54
1526.2
4430.2
1458.18
4349.91
1392.52
4270.07
1329.01
4190.83
1268.83
4111.88
1214.66
4032.22
1170.47
3950.18
1141.04
3863.48
1131.36
3769.7
1145.59
3666.79
1186.25
3553.43
1253.74
3429.22
1346.19
3294.71
1459.46
3151.2
1587.1
2999.87
1721.25
2841.13
1853.37
2674.94
1975.1
2502.4
2075.54
2326.06
2142.78
2148.36
2167.12
1969.69
2133.44
1788.7
2045.39
1621.44
1819.03
1386.93
1601.58
1209.45
1380.51
-2435.72
1362.53
926.623
1331.7
852.028
1299.62
830.633
1267.31
790.795
1237.04
707.916
1208.11
607.965
1174.67
540.443
1133.88
491.033
1081.24
465.906
1014.46
452.985
934.001
440.129
843.379
427.397
749.142
412.472
657.663
404.596
581.282
398.333
561.495
295.568
623.375
-30.7706
694.256
-429.862
659.638
-680.494
349.288
-602.745
-181.232
-399.621
-523.416
-613.777
-574.702
-1124.73
-523.628
-1610.67
-460.865
-1975.95
-401.479
-2215.39
-345.776
-2322.41
-298.531
-2292.98
-271.128
-2130.91
-275.742
-1862.42
-307.345
-1572.86
-340.857
-1345.78
-343.362
-1231.91
-291.154
-1248.77
-177.166
-1375.02
-7.95096
-1566.95
199.231
-1753.7
424.413
-1885.42
654.013
-1970.99
877.632
-2066.34
1084.87
-2260.27
1271.57
-2633.35
1440
-3189.31
1593.63
-3841.29
1737.75
-4477.98
1883.18
-5028.37
2045.37
-5465.17
2241.28
-5786.37
2485.9
-6000.08
2783.16
-6077.34
3120.43
-5966.55
3474.56
-5655.59
3826.18
-5163.57
4151.66
-4432.01
4434.35
-3417.94
4679.63
-2078.12
4862.68
-193.082
4928.33
1606.26
4946.95
2545.95
4953.94
2878.81
4953.38
2923.73
4942.8
2849.42
4920.82
2730.84
4887.88
2599.32
4845.5
2467.6
4795.49
2340.97
4739.56
2221.7
4679.11
2110.6
4615.25
2007.72
4548.79
1912.73
4480.27
1825.16
4409.99
1744.4
4338.14
1669.58
4264.89
1599.45
4190.58
1532.49
4115.71
1467.39
4040.78
1403.94
3965.95
1343.66
3890.78
1289.83
3814.11
1247.14
3734.07
1221.07
3648.36
1217.07
3554.65
1239.3
3451.09
1289.82
3336.59
1368.23
3211.15
1471.63
3075.84
1594.77
2932.05
1730.89
2780.32
1872.98
2620.59
2013.09
2453.59
2142.11
2281.42
2247.71
2106.15
2318.05
1927.87
2345.41
1742.71
2318.59
1552.65
2235.45
1359.29
2012.39
1071.68
1889.19
895.807
1556.39
-2790.28
1346.23
957.525
1314.34
883.918
1278.95
866.027
1241.64
828.098
1205.53
744.031
1170.51
642.984
1130.38
580.57
1082.3
539.113
1020.71
527.501
942.14
531.553
847.758
534.512
744.374
530.781
642.42
514.427
552.357
494.659
494.232
456.458
513.026
276.775
590.285
-108.029
601.915
-441.491
364.128
-442.706
-185.415
-53.2002
-591.954
6.91826
-628.166
-577.564
-571.452
-1181.44
-520.549
-1661.58
-477.342
-2019.16
-435.298
-2257.44
-394.116
-2363.59
-358.87
-2328.23
-339.226
-2150.56
-346.211
-1855.43
-376.299
-1542.77
-408.162
-1313.92
-409.206
-1230.86
-356.232
-1301.74
-246.996
-1484.26
-90.0993
-1723.84
103.122
-1946.92
314.788
-2097.08
526.811
-2183.01
729.673
-2269.2
919.876
-2450.47
1096.38
-2809.85
1256.39
-3349.32
1396.31
-3981.21
1517.17
-4598.84
1627.61
-5138.81
1742.83
-5580.4
1883.28
-5926.82
2071.33
-6188.13
2319.27
-6325.28
2620.28
-6267.56
2951.35
-5986.66
3290.36
-5502.58
3609.25
-4750.9
3888.63
-3697.31
4133.89
-2323.38
4336.65
-395.847
4424.74
1518.17
4469.69
2501.01
4504.96
2843.54
4531.61
2897.08
4545.78
2835.25
4545.82
2730.8
4532.37
2612.77
4507.3
2492.67
4472.79
2375.48
4430.8
2263.69
4382.95
2158.45
4330.49
2060.18
4274.33
1968.88
4215.1
1884.4
4153.13
1806.37
4088.67
1734.04
4021.98
1666.13
3953.54
1600.93
3884.02
1536.91
3814.01
1473.96
3743.58
1414.08
3672.13
1361.28
3598.26
1321.01
3519.96
1299.38
3434.92
1302.1
3341.03
1333.19
3236.67
1394.18
3121.13
1483.78
2995.01
1597.75
2859.78
1730
2716.27
1874.4
2564.39
2024.85
2404.84
2172.64
2239.69
2307.26
2070.52
2416.88
1896.41
2492.16
1714
2527.82
1517.9
2514.7
1316.42
2436.93
1084.47
2244.34
754.42
2219.23
610.983
1699.82
-3055.7
1322.42
987.36
1290.4
915.936
1252.63
903.798
1210.68
870.043
1168.35
786.363
1126.32
685.018
1078.46
628.431
1022.24
595.337
950.168
599.571
857.335
624.386
747.939
643.909
634.783
643.938
532.325
616.885
453.622
573.363
424.788
485.293
477.393
224.172
533.702
-164.338
404.438
-312.226
-81.0547
42.7886
-573.108
438.855
-684.156
117.968
-631.771
-629.948
-598.864
-1214.35
-576.092
-1684.35
-551.104
-2044.15
-522.599
-2285.94
-493.598
-2392.59
-468.75
-2353.08
-455.008
-2164.3
-460.882
-1849.56
-481.991
-1521.66
-499.893
-1296.02
-486.107
-1244.65
-422.91
-1364.94
-312.496
-1594.67
-165.506
-1870.83
9.27014
-2121.69
201.143
-2288.96
395.067
-2376.93
582.198
-2456.33
761.457
-2629.73
931.547
-2979.94
1087.03
-3504.8
1221.33
-4115.51
1331.94
-4709.45
1422.63
-5229.5
1504.35
-5662.12
1597.1
-6019.56
1728.3
-6319.33
1918.83
-6515.8
2170.44
-6519.17
2464.39
-6280.6
2778.45
-5816.63
3080.87
-5053.32
3350.26
-3966.71
3592.08
-2565.21
3815.6
-619.363
3928.84
1404.94
4001.98
2427.86
4066.38
2779.14
4120.2
2843.25
4158.59
2796.86
4179.9
2709.5
4185.13
2607.54
4176.61
2501.19
4156.9
2395.2
4128.23
2292.35
4092.44
2194.25
4050.91
2101.71
4004.64
2015.15
3954.3
1934.74
3900.28
1860.39
3842.87
1791.44
3782.49
1726.52
3719.77
1663.65
3655.53
1601.15
3590.38
1539.11
3524.3
1480.16
3456.4
1429.18
3385.05
1392.36
3308.13
1376.29
3223.48
1386.76
3129.18
1427.49
3023.94
1499.42
2907.7
1600.02
2781.73
1723.71
2647.22
1864.51
2504.24
2017.38
2353.35
2175.75
2196.98
2329
2036.96
2467.28
1871.11
2582.73
1694.16
2669.11
1501.83
2720.15
1293.43
2723.1
1078.26
2652.1
795.095
2527.5
439.282
2575.05
391.744
1747.36
-3210.86
1296.1
1020.84
1260.67
951.37
1219.36
945.104
1173.04
916.364
1124.98
834.423
1075.86
734.136
1019.79
684.507
954.342
660.784
868.947
684.966
758.943
734.39
636.143
766.709
520.389
759.693
426.354
710.921
366.005
633.713
368.68
482.618
435.991
156.862
415.02
-143.365
77.1621
25.6333
-439.388
559.339
-699.258
698.725
-696.829
115.54
-675.155
-651.621
-669.067
-1220.43
-657.642
-1695.77
-637.231
-2064.56
-612.137
-2311.03
-587.987
-2416.74
-569.419
-2371.65
-559.661
-2174.06
-562.946
-1846.27
-573.856
-1510.75
-578.656
-1291.22
-553.8
-1269.5
-485.759
-1432.98
-378.017
-1702.41
-241.281
-2007.57
-84.5826
-2278.39
86.4746
-2460.01
262.96
-2553.42
437.204
-2630.57
607.742
-2800.26
772.441
-3144.64
925.289
-3657.65
1059.14
-4249.36
1169.03
-4819.35
1253.27
-5313.73
1316.14
-5725
1373.4
-6076.82
1453.24
-6399.18
1582.5
-6645.07
1772.16
-6708.83
2012.52
-6520.96
2286.4
-6090.51
2560.44
-5327.37
2812.77
-4219.04
3049.02
-2801.46
3295.22
-865.555
3438.9
1261.26
3543.33
2323.42
3638.2
2684.28
3719.42
2762.03
3781.66
2734.62
3823.58
2667.58
3846.75
2584.37
3854.03
2493.9
3848.43
2400.8
3832.5
2308.28
3808.22
2218.52
3777.14
2132.8
3740.31
2051.97
3698.44
1976.61
3651.97
1906.86
3601.31
1842.1
3546.99
1780.83
3489.83
1720.81
3430.76
1660.22
3370.38
1599.48
3308.47
1542.08
3243.84
1493.81
3174.64
1461.56
3098.75
1452.18
3014.18
1471.33
2919.31
1522.36
2813.36
1605.36
2697.16
1716.23
2572.11
1848.76
2438.58
1998.04
2297.05
2158.9
2150.33
2322.47
2001.21
2478.12
1847.2
2621.29
1680.27
2749.66
1493.66
2855.72
1288.12
2925.69
1070.06
2941.17
831.582
2890.57
490.354
2868.73
155.689
2909.71
266.166
1636.89
-3244
1268.46
1057.73
1227.89
991.931
1180.81
992.192
1128.89
968.284
1074.91
888.397
1018.82
790.229
954.415
748.914
877.88
737.319
775.125
787.722
646.968
862.548
517.27
896.409
408.806
868.157
330.278
789.45
293.013
670.978
326.378
449.254
370.279
112.963
198.855
28.0607
-259.199
483.689
-666.663
966.803
-763.582
795.646
-740.227
92.1857
-747.961
-643.886
-747.922
-1220.47
-733.299
-1710.39
-707.18
-2090.67
-677.962
-2340.25
-656.334
-2438.37
-648.49
-2379.49
-650.66
-2171.89
-657.733
-1839.2
-662.107
-1506.38
-657.336
-1295.99
-625.633
-1301.21
-556.139
-1502.47
-451.773
-1806.78
-322.063
-2137.28
-178.078
-2422.38
-25.4262
-2612.66
134.213
-2713.05
297.257
-2793.62
460.239
-2963.25
619.708
-3304.11
769.855
-3807.79
904.493
-4384
1017.92
-4932.78
1103.98
-5399.79
1159.79
-5780.81
1194.72
-6111.75
1233.72
-6438.17
1304.13
-6715.48
1422.56
-6827.26
1591.03
-6689.44
1805.13
-6304.61
2034.93
-5557.16
2261.78
-4445.9
2494.29
-3033.97
2766.98
-1138.24
2951.97
1076.26
3092.75
2182.65
3220.1
2556.93
3329.24
2652.88
3415.13
2648.74
3477.12
2605.58
3517.54
2543.95
3539.94
2471.51
3547.81
2392.93
3544
2312.09
3530.73
2231.8
3509.6
2153.93
3481.75
2079.82
3447.91
2010.45
3408.62
1946.15
3364.42
1886.31
3315.97
1829.27
3264.22
1772.57
3210.16
1714.28
3154.34
1655.31
3096.28
1600.13
3034.52
1555.57
2967.06
1529.02
2891.87
1527.38
2807.15
1556.05
2711.7
1617.81
2605.64
1711.42
2490.35
1831.51
2366.57
1972.53
2234.62
2130
2097.62
2295.9
1959.91
2460.19
1819.86
2618.16
1667.46
2773.7
1491.47
2925.64
1290.12
3057.07
1072.67
3143.13
842.818
3171.02
564.149
3169.24
196.933
3235.94
-31.8099
3138.46
227.224
1377.85
-3173.34
1239.06
1097.83
1193.03
1037.96
1138.68