/*--------------------------------*- C++ -*----------------------------------*\
| =========                 |                                                 |
| \\      /  F ield         | OpenFOAM: The Open Source CFD Toolbox           |
|  \\    /   O peration     | Version:  4.1                                   |
|   \\  /    A nd           | Web:      www.OpenFOAM.org                      |
|    \\/     M anipulation  |                                                 |
\*---------------------------------------------------------------------------*/
FoamFile
{
    version     2.0;
    format      ascii;
    class       volVectorField;
    location    "1300";
    object      U;
}
// * * * * * * * * * * * * * * * * * * * * * * * * * * * * * * * * * * * * * //

dimensions      [0 1 -1 0 0 0 0];

internalField   nonuniform List<vector> 
26785
(
(-1.26087e-16 0.0662674 13.9372)
(-2.68418e-16 0.0589396 12.6577)
(2.09435e-16 0.0564913 11.4771)
(-1.56566e-15 0.0542372 10.3817)
(-1.49717e-15 0.0509348 9.35551)
(-5.08202e-15 0.0469703 8.42132)
(-6.06607e-15 0.0431226 7.59116)
(-7.65118e-15 0.0390534 6.85742)
(-2.41192e-15 0.034502 6.21671)
(-5.78025e-15 0.0291643 5.67448)
(-8.19413e-15 0.0227576 5.2425)
(-9.49693e-15 0.0157928 4.93056)
(-1.0254e-14 0.00910854 4.7344)
(-1.00533e-14 0.00261994 4.64185)
(-9.64922e-15 -0.00430743 4.652)
(-9.5699e-15 -0.0111605 4.76818)
(-9.44711e-15 -0.0164988 4.97125)
(-9.99184e-15 -0.0196641 5.22157)
(-1.03685e-14 -0.0219633 5.49094)
(-1.51254e-14 -0.0247562 5.77519)
(-1.72532e-14 -0.0292045 6.08664)
(-1.7874e-14 -0.0357563 6.45014)
(-2.03254e-14 -0.0429281 6.88829)
(-1.59647e-14 -0.0492584 7.40847)
(-1.45804e-14 -0.0536706 8.00264)
(-1.05619e-14 -0.0553058 8.64645)
(-6.15581e-15 -0.053483 9.30009)
(-2.4623e-15 -0.048074 9.91696)
(-1.14943e-15 -0.0397139 10.4564)
(1.28881e-16 -0.0296924 10.893)
(-2.03473e-15 -0.0198215 11.2222)
(-1.51302e-15 -0.012151 11.4627)
(-7.48497e-16 -0.00846777 11.6541)
(3.85285e-16 -0.00983551 11.848)
(-1.71692e-15 -0.016142 12.0948)
(-3.38013e-15 -0.0260084 12.4294)
(-4.00883e-15 -0.0373016 12.8624)
(-4.48784e-15 -0.0482954 13.3836)
(-4.77938e-15 -0.0588171 13.9758)
(-5.20915e-15 -0.0702726 14.6327)
(-4.29168e-15 -0.0845653 15.3675)
(-3.70836e-15 -0.102744 16.2089)
(-3.2765e-15 -0.124114 17.186)
(-3.64377e-15 -0.146407 18.3132)
(-3.29378e-15 -0.166937 19.5823)
(-3.09247e-15 -0.183757 20.9666)
(-2.41846e-15 -0.195968 22.4302)
(-1.67546e-15 -0.203484 23.9365)
(-9.73607e-16 -0.206256 25.4513)
(-7.97168e-17 -0.202853 26.939)
(6.85452e-17 -0.189909 28.3532)
(4.91559e-16 -0.162788 29.624)
(9.38999e-16 -0.117433 30.6446)
(1.5731e-15 -0.0551892 31.2849)
(2.44643e-15 0.0148962 31.4393)
(3.02317e-15 0.0826653 31.063)
(5.47485e-15 0.137813 30.2074)
(6.78916e-15 0.172422 29.0201)
(7.16447e-15 0.187527 27.6761)
(8.92123e-15 0.189126 26.3072)
(9.43423e-15 0.183024 24.9884)
(9.78649e-15 0.173214 23.7542)
(9.94214e-15 0.162054 22.6159)
(1.096e-14 0.150798 21.5726)
(1.1363e-14 0.140057 20.6182)
(1.16774e-14 0.130102 19.7448)
(1.19981e-14 0.121028 18.9438)
(1.22454e-14 0.112841 18.2072)
(1.24261e-14 0.105502 17.5277)
(1.24143e-14 0.0989387 16.8986)
(1.29026e-14 0.0930585 16.3141)
(1.29727e-14 0.0877533 15.7695)
(1.28476e-14 0.0829079 15.2608)
(1.2629e-14 0.0784059 14.7849)
(1.24996e-14 0.0741306 14.3397)
(1.20425e-14 0.0699635 13.9235)
(1.15573e-14 0.0657872 13.5354)
(1.13129e-14 0.0615023 13.175)
(1.10367e-14 0.0570645 12.8422)
(1.07456e-14 0.0525346 12.5366)
(1.04009e-14 0.0481248 12.2575)
(1.02693e-14 0.0442074 12.0025)
(9.97922e-15 0.0412636 11.7674)
(9.67503e-15 0.0397697 11.5458)
(9.55738e-15 0.0400541 11.3294)
(9.3216e-15 0.0421827 11.1086)
(9.04161e-15 0.0459196 10.8745)
(8.78548e-15 0.0507801 10.6202)
(8.65398e-15 0.0561472 10.3415)
(8.42672e-15 0.0613966 10.0378)
(8.14853e-15 0.0659943 9.71146)
(7.84664e-15 0.069516 9.36748)
(7.4966e-15 0.0716662 9.01207)
(7.06699e-15 0.0721585 8.65376)
(6.58141e-15 0.0708626 8.29948)
(5.89637e-15 0.0672237 7.96285)
(5.15783e-15 0.061879 7.64647)
(4.09313e-15 0.0517663 7.37614)
(3.08679e-15 0.0462518 7.15026)
(6.56758e-16 0.0197682 6.95208)
(7.91499e-18 0.171767 13.7599)
(-8.28847e-16 0.15923 12.5045)
(-8.09747e-16 0.157493 11.3483)
(-1.82939e-15 0.154352 10.2782)
(-7.3185e-16 0.146742 9.27949)
(-3.59849e-15 0.136219 8.37664)
(-1.48518e-15 0.125481 7.58205)
(-4.39145e-16 0.113821 6.88765)
(-3.8236e-15 0.100704 6.28881)
(-5.43488e-15 0.085469 5.78885)
(-6.16471e-15 0.0674352 5.3957)
(-6.18174e-15 0.0477849 5.11472)
(-5.84055e-15 0.0282223 4.94165)
(-3.76861e-15 0.00847703 4.86682)
(-6.78606e-15 -0.0125628 4.88822)
(-6.76278e-15 -0.0326262 5.00289)
(-2.08959e-15 -0.047326 5.18459)
(1.13103e-15 -0.0551856 5.39215)
(-3.09326e-16 -0.0602623 5.60045)
(4.725e-15 -0.0662459 5.80874)
(-3.13584e-16 -0.0763812 6.03377)
(5.81529e-15 -0.0930054 6.31216)
(8.79511e-15 -0.114018 6.68881)
(1.02619e-14 -0.136694 7.1934)
(1.19548e-14 -0.156867 7.82676)
(1.00162e-14 -0.169398 8.55694)
(8.99833e-15 -0.170299 9.32723)
(8.35871e-15 -0.158745 10.0741)
(7.61046e-15 -0.137254 10.7458)
(4.93968e-15 -0.110695 11.3132)
(4.03101e-15 -0.0854703 11.7741)
(3.89131e-15 -0.0683031 12.1534)
(2.90246e-15 -0.0643269 12.4964)
(1.71919e-15 -0.0754208 12.8549)
(4.49519e-17 -0.0991382 13.2701)
(-8.27943e-16 -0.129484 13.7607)
(-1.43612e-15 -0.159574 14.3205)
(-1.57847e-15 -0.18524 14.9285)
(-1.5133e-15 -0.207504 15.5644)
(-1.23375e-15 -0.231635 16.2227)
(-1.056e-15 -0.263621 16.9181)
(4.09384e-16 -0.306475 17.679)
(8.45938e-16 -0.358155 18.5351)
(2.09779e-15 -0.41242 19.5036)
(2.91243e-15 -0.462185 20.583)
(3.51969e-15 -0.502481 21.7557)
(3.97192e-15 -0.531018 22.9943)
(4.71878e-15 -0.547487 24.2685)
(5.85347e-15 -0.551891 25.5487)
(5.98649e-15 -0.541468 26.805)
(6.50042e-15 -0.509398 28.0047)
(6.16853e-15 -0.444498 29.1067)
(4.8462e-15 -0.331583 30.0446)
(5.40116e-15 -0.163433 30.7142)
(4.15264e-15 0.0437475 30.982)
(3.37213e-15 0.258039 30.7201)
(5.00172e-15 0.435111 29.9299)
(6.14313e-15 0.543715 28.7611)
(5.38939e-15 0.587355 27.4108)
(5.95231e-15 0.587099 26.0294)
(6.58955e-15 0.562917 24.7013)
(7.92646e-15 0.528177 23.464)
(8.72279e-15 0.490463 22.3285)
(8.49399e-15 0.453586 21.2927)
(8.78233e-15 0.419237 20.3489)
(9.0459e-15 0.388019 19.4877)
(9.34864e-15 0.360017 18.6995)
(9.42622e-15 0.335078 17.9754)
(1.06863e-14 0.312936 17.3078)
(1.09138e-14 0.293265 16.6897)
(1.09952e-14 0.275702 16.1156)
(1.13963e-14 0.259867 15.5807)
(1.1361e-14 0.24538 15.0812)
(1.13944e-14 0.231873 14.6143)
(1.07299e-14 0.219004 14.1778)
(1.08104e-14 0.206466 13.7702)
(1.04143e-14 0.194008 13.3901)
(9.98957e-15 0.181473 13.0366)
(9.97915e-15 0.168851 12.7085)
(9.53335e-15 0.15636 12.4044)
(8.84765e-15 0.14452 12.1223)
(8.51538e-15 0.134185 11.8596)
(8.02681e-15 0.126486 11.6128)
(7.34134e-15 0.12262 11.3771)
(7.03093e-15 0.123529 11.146)
(6.90426e-15 0.129551 10.9121)
(6.82843e-15 0.140205 10.6676)
(6.83894e-15 0.154238 10.4059)
(6.70498e-15 0.169898 10.1225)
(6.66578e-15 0.185316 9.816)
(6.66747e-15 0.198838 9.48818)
(6.61185e-15 0.209135 9.14356)
(6.54662e-15 0.215278 8.78813)
(6.16169e-15 0.21639 8.43039)
(5.66824e-15 0.212058 8.07719)
(5.10025e-15 0.200586 7.74264)
(4.18907e-15 0.183975 7.42869)
(2.96599e-15 0.152745 7.16372)
(1.89043e-15 0.135478 6.94151)
(-6.42175e-16 0.0542926 6.76167)
(-2.77416e-16 0.283502 13.504)
(7.97232e-16 0.265332 12.2604)
(-6.30861e-16 0.261004 11.122)
(-1.30648e-15 0.254302 10.0783)
(1.43655e-15 0.240396 9.1158)
(-2.21207e-15 0.221718 8.25919)
(1.54838e-16 0.202829 7.51988)
(1.21355e-15 0.182639 6.88767)
(1.3598e-15 0.160388 6.35513)
(1.59537e-15 0.135123 5.92157)
(1.85723e-15 0.105868 5.58992)
(2.19324e-15 0.0744671 5.36116)
(2.57122e-15 0.043396 5.22678)
(3.54696e-15 0.0124703 5.16904)
(7.03109e-15 -0.0197334 5.17885)
(3.25703e-15 -0.0492777 5.24987)
(1.02379e-14 -0.0693738 5.35729)
(6.43819e-15 -0.0783549 5.4664)
(9.8771e-15 -0.0834613 5.56248)
(9.13662e-15 -0.0913779 5.65941)
(7.95427e-15 -0.109048 5.79609)
(1.58601e-14 -0.142688 6.04066)
(1.67369e-14 -0.189029 6.46171)
(1.15809e-14 -0.240375 7.08548)
(9.09357e-15 -0.285656 7.88786)
(5.56089e-15 -0.31397 8.80536)
(2.57614e-15 -0.31847 9.7538)
(2.14794e-15 -0.298948 10.6527)
(2.01705e-15 -0.261273 11.4451)
(1.59811e-15 -0.215121 12.105)
(1.15067e-15 -0.172167 12.6364)
(2.05363e-15 -0.143699 13.0688)
(8.56973e-16 -0.137292 13.447)
(-8.14046e-17 -0.154387 13.817)
(-3.39042e-17 -0.189426 14.2125)
(4.89129e-16 -0.232131 14.6476)
(1.15176e-15 -0.272088 15.1176)
(1.68931e-15 -0.303913 15.6067)
(2.47798e-15 -0.330335 16.0999)
(3.14277e-15 -0.360289 16.5946)
(3.83063e-15 -0.403502 17.1061)
(4.82046e-15 -0.465032 17.6647)
(6.1492e-15 -0.542168 18.3065)
(7.70254e-15 -0.625536 19.0593)
(9.56882e-15 -0.704008 19.9319)
(1.17722e-14 -0.769226 20.9125)
(1.41164e-14 -0.816674 21.9739)
(1.62137e-14 -0.845057 23.0817)
(1.75787e-14 -0.854309 24.2023)
(1.82213e-14 -0.841286 25.3033)
(1.79508e-14 -0.798376 26.3545)
(1.69691e-14 -0.71235 27.3283)
(1.49916e-14 -0.559844 28.1885)
(1.21551e-14 -0.319178 28.877)
(8.75302e-15 0.00168786 29.3006)
(7.65616e-15 0.361792 29.3061)
(6.66389e-15 0.676705 28.7834)
(4.57929e-15 0.876812 27.8211)
(4.42249e-15 0.961428 26.616)
(3.67841e-15 0.966649 25.3368)
(4.36876e-15 0.928388 24.0839)
(5.12267e-15 0.870915 22.9052)
(5.77279e-15 0.807977 21.8178)
(6.10126e-15 0.746443 20.8227)
(7.29106e-15 0.689311 19.9139)
(7.95454e-15 0.637611 19.083)
(7.81086e-15 0.591433 18.321)
(7.55857e-15 0.550449 17.6198)
(7.77382e-15 0.514137 16.972)
(7.99032e-15 0.481892 16.3713)
(8.11724e-15 0.453072 15.8125)
(8.30075e-15 0.42703 15.2913)
(7.95075e-15 0.403139 14.8044)
(7.36946e-15 0.380815 14.349)
(7.3177e-15 0.359549 13.9229)
(7.3686e-15 0.338935 13.5245)
(7.29293e-15 0.318706 13.152)
(7.09425e-15 0.298762 12.8038)
(6.82644e-15 0.279205 12.4778)
(6.49083e-15 0.260383 12.1717)
(6.11731e-15 0.242949 11.8831)
(5.70125e-15 0.227924 11.6093)
(5.46631e-15 0.216699 11.3476)
(5.24029e-15 0.210882 11.0947)
(4.97071e-15 0.211929 10.8461)
(4.86287e-15 0.220621 10.5967)
(4.88621e-15 0.236601 10.3402)
(4.99393e-15 0.258236 10.0703)
(5.14556e-15 0.282914 9.78254)
(5.36102e-15 0.307615 9.47467)
(5.46784e-15 0.329525 9.14752)
(5.53255e-15 0.346303 8.80486)
(5.42031e-15 0.356271 8.45215)
(5.16292e-15 0.357888 8.09765)
(4.68681e-15 0.350386 7.74779)
(4.03836e-15 0.330872 7.41743)
(3.04083e-15 0.302708 7.10697)
(1.65017e-15 0.249193 6.85064)
(3.93121e-16 0.219671 6.63149)
(-2.2779e-15 0.078719 6.48095)
(-2.5431e-16 0.393086 13.2119)
(3.52546e-16 0.368883 11.9909)
(7.37456e-16 0.360526 10.8817)
(1.91604e-15 0.349066 9.87628)
(2.14365e-15 0.32799 8.96231)
(5.27902e-15 0.300441 8.16505)
(5.86202e-15 0.272869 7.49381)
(3.00157e-15 0.243878 6.93483)
(2.59984e-15 0.212643 6.47629)
(3.41654e-15 0.178042 6.11204)
(3.91174e-15 0.138827 5.83924)
(4.55715e-15 0.0976175 5.653)
(4.35968e-15 0.0579869 5.53603)
(1.17798e-14 0.0199472 5.46097)
(1.58615e-14 -0.0189731 5.41658)
(1.84823e-14 -0.053914 5.39987)
(1.68949e-14 -0.076316 5.39485)
(2.12903e-14 -0.0849473 5.3814)
(1.73523e-14 -0.0911235 5.36433)
(1.17531e-14 -0.105722 5.38262)
(7.69942e-15 -0.140369 5.50348)
(1.11458e-14 -0.203757 5.8143)
(9.54059e-15 -0.286885 6.37393)
(6.73232e-15 -0.373761 7.17728)
(4.35088e-15 -0.445774 8.16511)
(3.10034e-15 -0.486849 9.24203)
(1.98427e-15 -0.488686 10.3036)
(1.77501e-15 -0.453768 11.2657)
(1.73822e-15 -0.393134 12.0797)
(1.60147e-15 -0.322074 12.7315)
(2.2655e-15 -0.257289 13.2342)
(3.78981e-15 -0.213742 13.6208)
(3.52854e-15 -0.200584 13.9351)
(3.82512e-15 -0.218611 14.221)
(3.3123e-15 -0.259736 14.5117)
(5.14357e-15 -0.310313 14.825)
(3.90104e-15 -0.356926 15.1614)
(4.1297e-15 -0.392765 15.5099)
(6.56703e-15 -0.42159 15.857)
(6.5725e-15 -0.45547 16.1993)
(7.55568e-15 -0.508045 16.5516)
(1.04104e-14 -0.587454 16.9488)
(1.29609e-14 -0.691471 17.4365)
(1.51465e-14 -0.807715 18.0521)
(1.86855e-14 -0.919775 18.8082)
(2.23962e-14 -1.01416 19.6897)
(2.61471e-14 -1.08292 20.6621)
(2.89453e-14 -1.12351 21.6833)
(3.04018e-14 -1.13627 22.7133)
(3.16916e-14 -1.11858 23.7166)
(3.1473e-14 -1.06343 24.6629)
(3.15929e-14 -0.958775 25.5308)
(2.90364e-14 -0.779404 26.3011)
(2.41776e-14 -0.494505 26.9469)
(1.85968e-14 -0.0981625 27.4198)
(1.20211e-14 0.381845 27.5893)
(8.62943e-15 0.8359 27.2862)
(4.86016e-15 1.14183 26.532)
(3.99428e-15 1.28255 25.5022)
(2.44076e-15 1.30516 24.3664)
(2.59483e-15 1.26141 23.2306)
(2.38336e-15 1.18733 22.1477)
(2.75159e-15 1.10365 21.1391)
(3.13509e-15 1.02086 20.2091)
(3.8225e-15 0.94363 19.3544)
(3.68883e-15 0.873627 18.5685)
(4.54715e-15 0.811073 17.8443)
(5.61585e-15 0.755527 17.1747)
(5.96781e-15 0.706259 16.5536)
(6.26226e-15 0.662423 15.9758)
(5.95998e-15 0.623137 15.4368)
(6.10408e-15 0.587533 14.9329)
(5.53666e-15 0.554793 14.461)
(5.73314e-15 0.524183 14.0187)
(5.96828e-15 0.495095 13.6037)
(5.66785e-15 0.467091 13.2143)
(5.48018e-15 0.439942 12.8485)
(4.79142e-15 0.41364 12.5042)
(4.42264e-15 0.388392 12.1793)
(4.1948e-15 0.364624 11.8712)
(3.919e-15 0.343026 11.5773)
(3.6175e-15 0.324633 11.2951)
(3.27899e-15 0.310907 11.0222)
(3.33365e-15 0.303659 10.7559)
(3.23907e-15 0.304719 10.4931)
(3.28158e-15 0.315314 10.23)
(3.30338e-15 0.33538 9.96167)
(3.58085e-15 0.36319 9.68299)
(3.99788e-15 0.395538 9.3897)
(4.45691e-15 0.428428 9.07949)
(4.7813e-15 0.45794 8.75257)
(4.9555e-15 0.48068 8.41203)
(4.80996e-15 0.494163 8.06259)
(4.41141e-15 0.496132 7.71207)
(3.74297e-15 0.485367 7.36612)
(2.9799e-15 0.457665 7.04064)
(1.9024e-15 0.417524 6.73354)
(7.14574e-16 0.34015 6.48836)
(-4.19286e-16 0.298425 6.26928)
(-3.0149e-15 0.0873504 6.15819)
(-3.07696e-16 0.490764 12.9097)
(4.16333e-16 0.462934 11.7256)
(5.81253e-16 0.453418 10.661)
(2.70813e-15 0.438106 9.70932)
(3.84584e-15 0.409577 8.85831)
(3.38643e-16 0.372506 8.13243)
(4.3135e-15 0.33579 7.53727)
(4.99223e-15 0.297937 7.05392)
(5.50928e-15 0.258231 6.66492)
(6.47893e-15 0.215414 6.35827)
(6.24169e-15 0.168026 6.12583)
(1.16982e-14 0.119804 5.95653)
(1.37375e-14 0.0755861 5.82507)
(2.10106e-14 0.034877 5.70093)
(2.33829e-14 -0.00659153 5.57478)
(1.99042e-14 -0.0436952 5.44821)
(1.48572e-14 -0.0670777 5.31852)
(1.04472e-14 -0.076878 5.18782)
(6.59789e-15 -0.0893035 5.08812)
(4.78888e-15 -0.119622 5.08675)
(4.45359e-15 -0.182636 5.26747)
(7.45531e-15 -0.285952 5.70861)
(4.92644e-15 -0.411663 6.43647)
(3.19534e-15 -0.534748 7.4083)
(1.17361e-15 -0.629041 8.53025)
(5.01109e-16 -0.674685 9.68461)
(-1.2035e-15 -0.664855 10.7656)
(-2.70634e-16 -0.607252 11.7032)
(7.39806e-16 -0.518935 12.4666)
(7.34863e-16 -0.420239 13.0543)
(1.15314e-15 -0.331803 13.4855)
(1.66238e-15 -0.271346 13.7933)
(2.15722e-15 -0.249232 14.0192)
(3.51184e-15 -0.265875 14.2051)
(4.39753e-15 -0.311148 14.3856)
(5.30303e-15 -0.368343 14.5815)
(6.77743e-15 -0.420914 14.798)
(8.18467e-15 -0.460125 15.0257)
(9.41074e-15 -0.49032 15.2505)
(1.08831e-14 -0.526786 15.4673)
(1.274e-14 -0.588021 15.6927)
(1.52796e-14 -0.686526 15.9675)
(1.81558e-14 -0.820831 16.3431)
(2.21026e-14 -0.974205 16.8588)
(2.6218e-14 -1.12322 17.5276)
(2.97513e-14 -1.24844 18.3352)
(3.26229e-14 -1.33846 19.2455)
(3.49803e-14 -1.38979 20.2107)
(3.66546e-14 -1.40378 21.1846)
(3.83988e-14 -1.37894 22.1276)
(3.83623e-14 -1.30969 23.0067)
(3.84006e-14 -1.18656 23.8018)
(3.68794e-14 -0.984856 24.5013)
(3.43586e-14 -0.667474 25.0946)
(3.10647e-14 -0.216276 25.5675)
(2.28157e-14 0.358793 25.8287)
(1.48299e-14 0.940679 25.6839)
(8.7884e-15 1.35223 25.0997)
(6.47081e-15 1.55331 24.23)
(4.22439e-15 1.59897 23.2389)
(4.74439e-15 1.5556 22.2301)
(3.44288e-15 1.47044 21.2565)
(2.96755e-15 1.37095 20.3403)
(3.16376e-15 1.27117 19.488)
(3.08e-15 1.17746 18.6981)
(4.87199e-15 1.09218 17.9664)
(4.96492e-15 1.01575 17.2874)
(5.41072e-15 0.947694 16.6558)
(5.66576e-15 0.887144 16.067)
(6.03169e-15 0.833082 15.5166)
(6.01129e-15 0.784458 15.0011)
(5.92235e-15 0.740257 14.5173)
(5.09984e-15 0.699536 14.0627)
(5.05054e-15 0.661467 13.635)
(5.39021e-15 0.625385 13.2321)
(5.0617e-15 0.590844 12.8522)
(5.35687e-15 0.557658 12.4934)
(4.70567e-15 0.525901 12.1537)
(4.16325e-15 0.495879 11.831)
(3.47119e-15 0.468093 11.523)
(2.88073e-15 0.44326 11.2272)
(2.98896e-15 0.422417 10.941)
(2.55455e-15 0.407034 10.662)
(2.42779e-15 0.399021 10.3878)
(2.30265e-15 0.400436 10.1156)
(2.29927e-15 0.412826 9.84227)
(2.50519e-15 0.436393 9.5639)
(2.84762e-15 0.469409 9.27655)
(3.30852e-15 0.508277 8.97681)
(3.76068e-15 0.548225 8.66282)
(4.22364e-15 0.584377 8.33472)
(4.54092e-15 0.612382 7.99517)
(4.46633e-15 0.62896 7.64809)
(4.06797e-15 0.631121 7.3008)
(3.26722e-15 0.616999 6.95798)
(2.23357e-15 0.580956 6.63709)
(1.02704e-15 0.528314 6.33225)
(-3.12634e-16 0.425519 6.09935)
(-1.97638e-15 0.372366 5.87452)
(-4.46466e-15 0.0746327 5.81322)
(-3.48889e-16 0.59977 12.5483)
(1.07086e-16 0.55753 11.4481)
(5.06481e-16 0.542381 10.4692)
(2.23013e-15 0.521437 9.60106)
(3.95605e-15 0.484717 8.83148)
(2.93256e-15 0.437815 8.18539)
(6.31511e-15 0.392088 7.66574)
(9.40948e-15 0.345999 7.2491)
(1.11321e-14 0.299036 6.91288)
(8.50283e-15 0.249785 6.64064)
(7.22152e-15 0.196622 6.42052)
(1.22729e-14 0.144506 6.23679)
(1.45929e-14 0.0993766 6.06174)
(1.447e-14 0.0596077 5.86962)
(1.35523e-14 0.0189689 5.65201)
(1.10566e-14 -0.0180102 5.41211)
(9.23181e-15 -0.042815 5.16293)
(3.52745e-15 -0.0580497 4.93571)
(3.62204e-15 -0.0849988 4.79618)
(8.85816e-15 -0.141826 4.83523)
(5.43016e-15 -0.243126 5.12837)
(-9.6585e-16 -0.392155 5.71836)
(-1.63521e-15 -0.560604 6.5908)
(5.33396e-16 -0.714701 7.6699)
(-1.81721e-15 -0.822447 8.84063)
(-1.51816e-15 -0.863534 9.98406)
(-1.07091e-15 -0.835365 11.011)
(-1.18148e-15 -0.751565 11.873)
(-3.22427e-16 -0.634349 12.5552)
(-2.92746e-16 -0.507771 13.0636)
(4.43905e-16 -0.395351 13.4175)
(1.10747e-15 -0.31701 13.6463)
(2.19832e-15 -0.284321 13.7872)
(3.77179e-15 -0.297774 13.8796)
(6.00153e-15 -0.345736 13.9589)
(8.42949e-15 -0.408733 14.0494)
(9.73815e-15 -0.46693 14.16)
(1.0818e-14 -0.509169 14.2829)
(1.21589e-14 -0.54011 14.4034)
(1.45226e-14 -0.578762 14.5163)
(1.66449e-14 -0.649305 14.6385)
(1.87404e-14 -0.768479 14.8053)
(2.23359e-14 -0.934536 15.0588)
(2.44003e-14 -1.12642 15.4462)
(2.59087e-14 -1.31505 16.0072)
(2.70364e-14 -1.47511 16.7466)
(2.82487e-14 -1.59008 17.6236)
(2.97684e-14 -1.65407 18.5741)
(3.15368e-14 -1.66924 19.5382)
(3.27731e-14 -1.63572 20.4685)
(3.32952e-14 -1.54988 21.3281)
(3.23796e-14 -1.40594 22.0958)
(3.09284e-14 -1.18266 22.7624)
(2.93834e-14 -0.840276 23.3235)
(2.7953e-14 -0.349535 23.7872)
(2.5432e-14 0.299155 24.1022)
(2.03516e-14 0.998312 24.0724)
(1.41651e-14 1.51383 23.622)
(1.07851e-14 1.77685 22.8883)
(7.58211e-15 1.84876 22.0297)
(5.99539e-15 1.80997 21.1441)
(4.32413e-15 1.71837 20.2805)
(3.83793e-15 1.60765 19.4601)
(3.69791e-15 1.49509 18.6897)
(4.44036e-15 1.3886 17.9691)
(5.01539e-15 1.29121 17.2959)
(5.70857e-15 1.20356 16.6664)
(6.5619e-15 1.1252 16.0768)
(6.42082e-15 1.0552 15.5237)
(6.86119e-15 0.992439 15.0039)
(6.21995e-15 0.935786 14.5146)
(5.74509e-15 0.884138 14.0534)
(5.30625e-15 0.836481 13.618)
(5.08157e-15 0.791932 13.2064)
(4.02035e-15 0.749791 12.8169)
(3.52967e-15 0.709605 12.4477)
(3.45252e-15 0.67122 12.0974)
(2.80175e-15 0.634785 11.764)
(2.36324e-15 0.600698 11.4459)
(1.96722e-15 0.56955 11.1409)
(1.58485e-15 0.542125 10.8467)
(9.02147e-16 0.519496 10.5607)
(3.74329e-16 0.50317 10.2803)
(-4.9122e-16 0.495122 10.0028)
(-3.32854e-16 0.497537 9.72548)
(5.44412e-16 0.512127 9.44523)
(1.14572e-15 0.539218 9.159)
(1.74537e-15 0.577035 8.86387)
(2.45394e-15 0.621656 8.55755)
(3.11257e-15 0.667706 8.23899)
(3.5881e-15 0.709567 7.90859)
(3.93389e-15 0.742105 7.56871)
(3.91286e-15 0.761307 7.22264)
(3.45275e-15 0.763425 6.87735)
(2.68503e-15 0.745711 6.53656)
(1.68333e-15 0.701181 6.2195)
(3.09301e-16 0.635573 5.91466)
(-1.34426e-15 0.506123 5.69377)
(-2.78612e-15 0.442937 5.45477)
(-4.43738e-15 0.0336787 5.45585)
(-2.31346e-16 0.687076 12.2923)
(-2.29204e-16 0.639687 11.2502)
(5.83055e-16 0.621974 10.3482)
(1.79179e-15 0.596748 9.56617)
(3.35405e-15 0.552751 8.88239)
(1.55064e-15 0.496863 8.31492)
(1.58772e-15 0.443181 7.86083)
(3.19171e-15 0.390214 7.49216)
(1.51597e-15 0.337745 7.18296)
(-3.46996e-15 0.284147 6.91503)
(7.02568e-16 0.227662 6.67605)
(2.00588e-16 0.174269 6.45023)
(-4.40029e-16 0.130645 6.21534)
(-5.62352e-16 0.0940963 5.95346)
(1.45177e-15 0.0568919 5.65191)
(4.2326e-17 0.0217033 5.30949)
(3.45604e-15 -0.00629557 4.95577)
(1.1277e-14 -0.0334144 4.65954)
(8.95621e-15 -0.085161 4.52752)
(5.35907e-15 -0.178764 4.6579)
(-6.06373e-15 -0.32387 5.08216)
(-1.07039e-14 -0.518125 5.79243)
(-6.13782e-15 -0.724042 6.74576)
(-3.52989e-15 -0.901174 7.85057)
(-2.45366e-15 -1.01417 8.98592)
(-1.91171e-15 -1.0448 10.0456)
(-2.17068e-15 -0.995707 10.9666)
(-1.7834e-15 -0.885727 11.725)
(-1.41202e-16 -0.740791 12.3185)
(8.90184e-16 -0.587382 12.7538)
(2.07342e-15 -0.451176 13.0436)
(3.16566e-15 -0.354103 13.2089)
(4.32883e-15 -0.309213 13.2797)
(5.47889e-15 -0.317709 13.2923)
(6.32969e-15 -0.367059 13.2829)
(7.86631e-15 -0.435317 13.2797)
(9.75928e-15 -0.499159 13.2952)
(1.16993e-14 -0.544579 13.324)
(1.40438e-14 -0.576497 13.3519)
(1.74272e-14 -0.617437 13.3708)
(1.95708e-14 -0.695506 13.3799)
(2.14656e-14 -0.830238 13.386)
(1.96411e-14 -1.02338 13.4406)
(1.80993e-14 -1.25697 13.6608)
(1.69232e-14 -1.49711 14.1451)
(1.67114e-14 -1.70502 14.8882)
(1.76873e-14 -1.85266 15.8042)
(1.93738e-14 -1.93129 16.7955)
(2.11465e-14 -1.94648 17.7908)
(2.18567e-14 -1.90195 18.7431)
(2.26625e-14 -1.79668 19.6167)
(2.22276e-14 -1.62886 20.3911)
(2.39126e-14 -1.38139 21.0583)
(2.45758e-14 -1.01398 21.6135)
(2.27584e-14 -0.490499 22.0746)
(1.95139e-14 0.215823 22.4261)
(1.65812e-14 1.02175 22.4848)
(1.17669e-14 1.63681 22.1415)
(1.0527e-14 1.95989 21.5227)
(8.74727e-15 2.05836 20.7824)
(7.31363e-15 2.02639 20.0116)
(6.24513e-15 1.93174 19.2539)
(5.77977e-15 1.81362 18.5274)
(4.51762e-15 1.69206 17.8386)
(4.36521e-15 1.57625 17.1882)
(4.23172e-15 1.46977 16.5749)
(4.46993e-15 1.37348 15.9966)
(5.19362e-15 1.28702 15.4509)
(5.08135e-15 1.20943 14.9356)
(5.15133e-15 1.13957 14.4483)
(4.10796e-15 1.07628 13.9872)
(3.90389e-15 1.01842 13.5502)
(3.39446e-15 0.964949 13.1356)
(2.91931e-15 0.914951 12.7417)
(2.25355e-15 0.867695 12.3671)
(1.30691e-15 0.822716 12.0103)
(5.38858e-16 0.779882 11.6701)
(-5.09125e-17 0.739411 11.3453)
(-3.73989e-16 0.701809 11.0342)
(-5.30145e-16 0.667791 10.735)
(-9.81961e-16 0.638264 10.4454)
(-1.43533e-15 0.614412 10.163)
(-1.76274e-15 0.597824 9.88459)
(-2.28375e-15 0.590538 9.60724)
(-2.22133e-15 0.594776 9.32776)
(-1.54387e-15 0.612256 9.04321)
(-6.20252e-16 0.643249 8.75107)
(4.551e-16 0.685817 8.44941)
(1.5352e-15 0.735726 8.13706)
(2.44631e-15 0.787151 7.8139)
(3.03842e-15 0.833966 7.48061)
(3.32585e-15 0.870418 7.13942)
(3.2112e-15 0.891773 6.79328)
(2.64353e-15 0.893562 6.44904)
(1.54561e-15 0.871988 6.10916)
(5.03189e-16 0.819135 5.79455)
(-8.4028e-16 0.74029 5.48627)
(-1.92371e-15 0.583505 5.2765)
(-3.2379e-15 0.511627 5.01306)
(-4.54923e-15 -0.0436791 5.09187)
(1.38922e-16 0.773798 12.09)
(-6.45937e-17 0.718914 11.1172)
(6.21367e-16 0.695631 10.2873)
(2.05371e-15 0.66492 9.5812)
(3.31767e-15 0.613837 8.97195)
(3.16909e-15 0.550047 8.46951)
(3.18594e-15 0.490094 8.06273)
(3.73292e-16 0.432198 7.71878)
(-7.82048e-16 0.376356 7.41057)
(-2.00989e-15 0.320535 7.121)
(-2.20827e-15 0.262647 6.84009)
(-2.23145e-15 0.209384 6.55691)
(-2.45303e-15 0.168106 6.261)
(-1.74751e-15 0.136029 5.94172)
(-9.32224e-17 0.104647 5.57671)
(1.21648e-14 0.0729188 5.15238)
(1.76781e-14 0.0391382 4.71399)
(1.37793e-14 -0.00815578 4.38097)
(2.04017e-16 -0.0959297 4.3066)
(-1.04701e-14 -0.233134 4.55834)
(-1.255e-14 -0.420929 5.08947)
(-1.05146e-14 -0.654932 5.85657)
(-4.375e-15 -0.891256 6.81297)
(-3.45613e-15 -1.08381 7.85368)
(-3.81411e-15 -1.19576 8.8518)
(-3.05652e-15 -1.21353 9.72918)
(-1.81584e-15 -1.14548 10.4708)
(4.58125e-16 -1.01379 11.0903)
(1.4163e-15 -0.84556 11.5981)
(2.44947e-15 -0.667888 11.991)
(3.07363e-15 -0.508104 12.2608)
(3.75896e-15 -0.390558 12.4078)
(4.60836e-15 -0.330636 12.4478)
(5.39825e-15 -0.331312 12.4111)
(6.16067e-15 -0.379911 12.3338)
(8.49575e-15 -0.452321 12.2468)
(1.05122e-14 -0.52159 12.1664)
(1.28374e-14 -0.570519 12.0929)
(1.54644e-14 -0.60326 12.0145)
(1.81016e-14 -0.642289 11.9061)
(1.78686e-14 -0.716418 11.7283)
(1.45528e-14 -0.854946 11.4896)
(9.80293e-15 -1.07979 11.3505)
(7.60962e-15 -1.37959 11.5391)
(7.67034e-15 -1.69635 12.1207)
(9.16686e-15 -1.96245 12.9826)
(1.08472e-14 -2.14088 13.9801)
(1.22339e-14 -2.22865 15.0149)
(1.30702e-14 -2.23955 16.0346)
(1.37012e-14 -2.18149 17.0066)
(1.60243e-14 -2.05497 17.9002)
(1.84245e-14 -1.86146 18.6949)
(2.27057e-14 -1.5881 19.3818)
(2.70691e-14 -1.195 19.9509)
(2.86792e-14 -0.64212 20.4202)
(2.45955e-14 0.110593 20.8009)
(1.92122e-14 1.01553 20.9325)
(1.15464e-14 1.72673 20.6775)
(7.98823e-15 2.10721 20.1565)
(4.80176e-15 2.23127 19.522)
(4.02715e-15 2.2072 18.8575)
(3.97125e-15 2.11204 18.1996)
(4.14673e-15 1.98974 17.5634)
(4.09637e-15 1.86251 16.9538)
(4.00319e-15 1.7405 16.3723)
(3.68905e-15 1.62771 15.8186)
(3.94283e-15 1.52523 15.2917)
(4.90703e-15 1.43274 14.7906)
(4.84081e-15 1.34936 14.3139)
(4.60249e-15 1.27397 13.8603)
(3.64146e-15 1.20542 13.4284)
(3.17385e-15 1.14258 13.0169)
(2.74797e-15 1.08441 12.6244)
(2.36836e-15 1.02997 12.2495)
(1.44456e-15 0.978508 11.8912)
(8.4396e-16 0.929536 11.5485)
(-5.02616e-17 0.882938 11.2204)
(-9.74874e-16 0.839001 10.9059)
(-1.46109e-15 0.798357 10.6039)
(-1.89828e-15 0.761892 10.3128)
(-2.20906e-15 0.730705 10.0303)
(-2.13307e-15 0.706167 9.75365)
(-2.66914e-15 0.690009 9.47956)
(-2.6951e-15 0.68433 9.20443)
(-2.66551e-15 0.691303 8.92479)
(-2.26513e-15 0.71249 8.63776)
(-1.3602e-15 0.747922 8.34131)
(-2.17034e-16 0.795374 8.03446)
(1.00442e-15 0.850316 7.71709)
(2.02832e-15 0.906625 7.38978)
(2.77512e-15 0.957849 7.0535)
(2.97401e-15 0.997691 6.7106)
(2.49789e-15 1.02072 6.36399)
(1.66863e-15 1.02198 6.0201)
(6.14451e-16 0.996476 5.67973)
(-5.75969e-16 0.936 5.36549)
(-1.77359e-15 0.843536 5.04994)
(-2.90932e-15 0.659618 4.8511)
(-3.83269e-15 0.57988 4.55123)
(-4.94014e-15 -0.165464 4.72327)
(3.58882e-16 0.855925 11.9211)
(6.30616e-16 0.793677 11.0204)
(1.09696e-15 0.764098 10.2564)
(3.15111e-15 0.72725 9.6104)
(2.81052e-15 0.669041 9.05482)
(2.73638e-15 0.598211 8.59485)
(6.90818e-15 0.533681 8.21271)
(6.79571e-15 0.472832 7.87171)
(5.62696e-15 0.415653 7.54572)
(9.78329e-15 0.359527 7.22026)
(1.0395e-14 0.301772 6.88736)
(1.08639e-14 0.249084 6.5411)
(1.01646e-14 0.209165 6.18414)
(9.88877e-15 0.181083 5.81769)
(1.27061e-14 0.157473 5.41309)
(1.69056e-14 0.131453 4.9364)
(1.75463e-14 0.0892902 4.4406)
(1.27252e-15 0.0120394 4.1126)
(-1.47887e-14 -0.121802 4.14432)
(-1.56427e-14 -0.302664 4.51207)
(-1.28418e-14 -0.526052 5.09)
(-9.67615e-15 -0.792414 5.83729)
(-4.37855e-15 -1.05099 6.69642)
(-8.31191e-15 -1.24975 7.51603)
(-4.77459e-15 -1.35509 8.17234)
(-2.43682e-15 -1.3629 8.66743)
(1.86072e-16 -1.28704 9.08434)
(-1.47245e-18 -1.14841 9.4975)
(8.62713e-16 -0.969709 9.92712)
(2.33211e-15 -0.774938 10.343)
(2.30978e-15 -0.592254 10.6914)
(3.44197e-15 -0.449943 10.9263)
(4.58907e-15 -0.368222 11.0286)
(5.2775e-15 -0.354074 11.0087)
(5.99421e-15 -0.395811 10.8948)
(8.18611e-15 -0.467668 10.7186)
(9.46641e-15 -0.53954 10.5116)
(1.13006e-14 -0.590553 10.299)
(1.26186e-14 -0.620039 10.0777)
(1.28302e-14 -0.645023 9.80033)
(9.9033e-15 -0.701819 9.42688)
(6.21852e-15 -0.853061 9.08355)
(2.96852e-15 -1.14838 9.07265)
(4.24858e-15 -1.54806 9.53879)
(7.25434e-15 -1.94266 10.3422)
(9.48279e-15 -2.24924 11.2958)
(1.0002e-14 -2.4429 12.2998)
(9.4872e-15 -2.53305 13.3131)
(8.8649e-15 -2.5393 14.3161)
(9.16468e-15 -2.46987 15.2872)
(1.02625e-14 -2.3241 16.1943)
(1.2911e-14 -2.10562 17.0125)
(1.61829e-14 -1.80588 17.7291)
(2.0471e-14 -1.38594 18.3256)
(2.47163e-14 -0.803885 18.8132)
(2.49348e-14 -0.00941766 19.2227)
(2.11526e-14 0.98569 19.4179)
(1.31624e-14 1.78899 19.2382)
(8.60126e-15 2.22308 18.8021)
(6.04333e-15 2.37067 18.2634)
(4.9354e-15 2.35479 17.6974)
(3.48306e-15 2.26105 17.1338)
(2.95492e-15 2.1373 16.5833)
(2.54331e-15 2.00733 16.05)
(3.20971e-15 1.88191 15.5353)
(2.8873e-15 1.76536 15.0397)
(3.53313e-15 1.6589 14.5636)
(3.97897e-15 1.56234 14.1068)
(3.46106e-15 1.47487 13.669)
(3.16757e-15 1.39543 13.2494)
(2.23808e-15 1.32293 12.8475)
(1.85046e-15 1.25629 12.4622)
(1.43991e-15 1.19449 12.0928)
(1.42556e-15 1.13658 11.7381)
(1.69318e-15 1.08177 11.3974)
(8.13315e-16 1.02956 11.07)
(-5.32218e-16 0.979835 10.7554)
(-1.29972e-15 0.932961 10.4529)
(-2.06278e-15 0.889718 10.1616)
(-2.62837e-15 0.851211 9.88001)
(-3.06891e-15 0.818806 9.60605)
(-3.01695e-15 0.794137 9.33665)
(-3.05753e-15 0.779131 9.06811)
(-3.22813e-15 0.775928 8.79639)
(-2.6747e-15 0.786558 8.51777)
(-1.89716e-15 0.812269 8.22949)
(-1.05829e-15 0.85269 7.93009)
(-1.04393e-16 0.905226 7.61946)
(9.63695e-16 0.965107 7.2982)
(1.96539e-15 1.02602 6.96745)
(2.67899e-15 1.08124 6.6286)
(2.80556e-15 1.124 6.28433)
(2.00029e-15 1.14837 5.93725)
(6.69808e-16 1.14921 5.59276)
(-1.01322e-15 1.12001 5.25022)
(-2.31882e-15 1.05305 4.93415)
(-3.12706e-15 0.945933 4.60887)
(-4.02561e-15 0.73674 4.42122)
(-4.66173e-15 0.649222 4.07093)
(-6.00769e-15 -0.337211 4.34504)
(2.75374e-17 0.927174 11.7815)
(4.59031e-16 0.860022 10.9471)
(6.81582e-16 0.82661 10.2382)
(2.15004e-15 0.784814 9.63486)
(1.33707e-15 0.720109 9.11048)
(2.42282e-15 0.64306 8.66916)
(1.37564e-15 0.575308 8.28994)
(2.18988e-15 0.513011 7.93473)
(3.12539e-15 0.456036 7.57922)
(3.80886e-15 0.401075 7.21116)
(8.78406e-15 0.344786 6.82407)
(1.53241e-14 0.293243 6.41447)
(1.56764e-14 0.253497 5.99389)
(2.19306e-14 0.227422 5.5764)
(2.73543e-14 0.210987 5.13546)
(2.67845e-14 0.191336 4.62889)
(1.63728e-14 0.13766 4.12173)
(-6.90022e-15 0.0203583 3.86232)
(-1.78748e-14 -0.164287 4.03487)
(-1.4758e-14 -0.380708 4.47363)
(-1.13229e-14 -0.629271 5.02141)
(-8.7079e-15 -0.917853 5.64356)
(-5.48692e-15 -1.18334 6.19233)
(-5.52403e-15 -1.3719 6.44912)
(-3.29872e-15 -1.46488 6.38958)
(-1.45121e-15 -1.47515 6.21225)
(-9.3408e-16 -1.41892 6.13659)
(-8.85985e-17 -1.30638 6.27239)
(1.09433e-15 -1.14679 6.61617)
(2.50076e-15 -0.955032 7.0953)
(3.67696e-15 -0.757297 7.60719)