/*--------------------------------*- C++ -*----------------------------------*\
| =========                 |                                                 |
| \\      /  F ield         | OpenFOAM: The Open Source CFD Toolbox           |
|  \\    /   O peration     | Version:  4.1                                   |
|   \\  /    A nd           | Web:      www.OpenFOAM.org                      |
|    \\/     M anipulation  |                                                 |
\*---------------------------------------------------------------------------*/
FoamFile
{
    version     2.0;
    format      ascii;
    class       volScalarField;
    location    "1900";
    object      p;
}
// * * * * * * * * * * * * * * * * * * * * * * * * * * * * * * * * * * * * * //

dimensions      [0 2 -2 0 0 0 0];

internalField   nonuniform List<scalar> 
26785
(
1224.02
1181.73
1137.28
1084.33
1025.84
961.787
894.384
826.478
763.372
713.826
690.503
703.524
751.562
823.919
910.33
1005.27
1105.67
1209.29
1314.05
1417.32
1515.49
1604.03
1677.76
1731.81
1764.06
1774.02
1759.31
1721.04
1659.03
1571.09
1461.71
1340.9
1221.21
1111.56
1015.96
934.833
866.412
808.225
758.143
714.531
676.055
641.653
610.572
582.346
556.714
533.534
512.72
494.201
477.893
463.671
451.355
440.764
431.809
424.553
419.113
415.426
412.973
410.608
406.903
401.172
394.31
388.193
384.15
382.789
384.022
387.084
390.919
394.725
398.17
400.973
402.877
404.135
403.927
400.232
391.189
375.694
353.625
325.836
293.958
260.087
226.384
194.723
166.495
142.507
122.885
107.249
94.9871
85.4082
77.8165
71.5724
66.1224
61.0165
55.9017
50.5204
44.7207
38.2982
31.6445
23.3595
18.1153
0.480415
1224.11
1181.75
1137.32
1084.37
1025.88
961.805
894.371
826.407
763.2
713.504
690.034
703.004
751.088
823.513
909.939
1004.84
1105.17
1208.72
1313.39
1416.58
1514.69
1603.19
1676.93
1731.08
1763.36
1773.13
1758.23
1719.73
1657.54
1570
1460.69
1339.75
1220.06
1110.51
1015.06
934.1
865.83
807.762
757.773
714.232
675.812
641.449
610.394
582.184
556.561
533.387
512.579
494.065
477.764
463.55
451.242
440.654
431.693
424.428
418.991
415.336
412.957
410.683
407.021
401.243
394.262
388.024
383.887
382.488
383.738
386.848
390.743
394.622
398.171
401.084
403.033
404.244
403.794
399.608
390.038
374.195
352.027
324.335
292.655
258.99
225.447
193.89
165.735
141.818
122.267
106.689
94.4896
84.9839
77.4722
71.3073
65.9286
60.8829
55.8152
50.47
44.6911
38.2871
31.6131
23.3626
17.9381
0.723599
1224.32
1181.8
1137.41
1084.45
1025.95
961.842
894.337
826.237
762.8
712.772
688.981
701.853
750.066
822.661
909.128
1003.95
1104.16
1207.53
1312.02
1415.05
1513.02
1601.43
1675.15
1729.43
1761.84
1771.39
1756.08
1717.22
1654.99
1567.77
1458.51
1337.44
1217.83
1108.49
1013.33
932.693
864.712
806.869
757.055
713.652
675.337
641.05
610.046
581.869
556.267
533.107
512.31
493.808
477.521
463.324
451.033
440.452
431.484
424.201
418.759
415.151
412.902
410.801
407.24
401.391
394.2
387.771
383.505
382.06
383.332
386.485
390.449
394.459
398.145
401.034
402.631
403.271
402.139
397.37
387.525
371.731
349.867
322.619
291.38
258.036
224.641
193.068
164.776
140.681
121.05
105.523
93.4449
84.0969
76.7563
70.7578
65.5284
60.6084
55.6402
50.3717
44.6377
38.2728
31.5608
23.378
17.6169
1.16505
1224.52
1181.87
1137.55
1084.58
1026.06
961.905
894.3
826.007
762.241
711.73
687.47
700.19
748.567
821.389
907.911
1002.62
1102.62
1205.75
1309.96
1412.73
1510.48
1598.74
1672.41
1726.76
1759.27
1768.62
1752.89
1713.56
1651.18
1564.2
1455.12
1334.02
1214.56
1105.52
1010.79
930.627
863.063
805.549
755.991
712.79
674.629
640.454
609.527
581.399
555.83
532.692
511.913
493.429
477.163
462.992
450.726
440.158
431.178
423.867
418.413
414.867
412.806
410.966
407.566
401.618
394.104
387.369
382.876
381.345
382.664
385.944
390.056
394.116
397.664
400.292
401.518
401.707
399.975
394.452
384.007
368.037
346.495
319.949
289.561
256.972
224.065
192.666
164.272
139.886
119.933
104.24
92.154
82.9051
75.733
69.9342
64.9044
60.1648
55.3463
50.1979
44.5386
38.2396
31.4815
23.4022
17.1924
1.74207
1224.73
1181.97
1137.74
1084.75
1026.21
961.985
894.246
825.694
761.486
710.333
685.453
697.982
746.581
819.696
906.289
1000.85
1100.58
1203.36
1307.2
1409.61
1507.07
1595.11
1668.69
1723.1
1755.66
1764.78
1748.63
1708.75
1646.14
1559.43
1450.57
1329.49
1210.24
1101.61
1007.45
927.904
860.887
803.802
754.579
711.642
673.685
639.659
608.834
580.774
555.249
532.143
511.389
492.93
476.693
462.556
450.327
439.777
430.783
423.432
417.955
414.476
412.657
411.173
407.997
401.926
393.987
386.838
382.035
380.386
381.77
385.241
389.594
393.806
397.253
399.6
400.485
400.138
397.648
391.181
380.01
363.792
342.537
316.728
287.341
255.774
223.678
192.729
164.395
139.738
119.32
103.2
90.8928
81.6128
74.5457
68.9352
64.1257
59.6025
54.9732
49.9819
44.4235
38.2143
31.4019
23.4584
16.7133
2.41919
1224.86
1182.09
1137.97
1084.97
1026.4
962.095
894.192
825.322
760.569
708.622
682.973
695.27
744.139
817.599
904.277
998.645
1098.04
1200.39
1303.75
1405.71
1502.77
1590.53
1663.97
1718.41
1750.98
1759.86
1743.28
1702.8
1639.89
1553.42
1444.81
1323.83
1204.87
1096.76
1003.31
924.535
858.189
801.632
752.82
710.21
672.506
638.665
607.969
579.993
554.525
531.459
510.74
492.313
476.111
462.018
449.835
439.31
430.3
422.896
417.375
413.967
412.451
411.425
408.541
402.331
393.852
386.137
380.91
379.104
380.605
384.37
389.032
393.391
396.684
398.693
399.27
398.418
395.259
387.917
376.038
359.536
338.494
313.354
284.961
254.512
223.434
193.21
165.198
140.45
119.609
102.885
90.0832
80.5368
73.4127
67.8984
63.2722
58.964
54.5421
49.7335
44.2976
38.2008
31.3284
23.556
16.1992
3.19048
1224.98
1182.24
1138.24
1085.23
1026.64
962.232
894.136
824.888
759.489
706.596
680.034
692.067
741.259
815.111
901.886
996.025
1095.02
1196.84
1299.62
1401.02
1497.61
1585.02
1658.27
1712.69
1745.23
1753.85
1736.84
1695.74
1632.47
1546.21
1437.86
1317.04
1198.45
1090.98
998.382
920.516
854.965
799.032
750.708
708.486
671.084
637.467
606.925
579.053
553.654
530.64
509.962
491.574
475.415
461.377
449.25
438.758
429.729
422.255
416.666
413.322
412.173
411.707
409.198
402.843
393.665
385.189
379.424
377.444
379.136
383.305
388.36
392.934
396.144
397.82
398.129
396.792
392.952
384.736
372.164
355.379
334.516
309.985
282.53
253.194
223.215
193.89
166.431
141.826
120.737
103.464
89.9995
79.9505
72.5632
66.9932
62.4603
58.3278
54.1071
49.4919
44.1921
38.2245
31.2836
23.7186
15.6603
4.09268
1225.12
1182.41
1138.55
1085.54
1026.92
962.401
894.083
824.401
758.257
704.27
676.652
688.393
737.965
812.25
899.131
993.005
1091.53
1192.73
1294.83
1395.58
1491.6
1578.58
1651.58
1705.94
1738.42
1746.76
1729.32
1687.59
1623.91
1537.79
1429.69
1309.1
1190.96
1084.25
992.655
915.847
851.217
796.003
748.242
706.469
669.42
636.064
605.703
577.953
552.637
529.683
509.055
490.714
474.605
460.63
448.573
438.121
429.073
421.511
415.816
412.526
411.809
412.026
409.998
403.451
393.284
383.746
377.325
375.208
377.254
382.017
387.59
392.447
395.614
396.974
397.062
395.303
390.808
381.745
368.514
351.456
330.747
306.767
280.181
251.905
223.027
194.679
167.932
143.677
122.552
104.899
90.7896
80.0686
72.21
66.4015
61.8194
57.7769
53.7198
49.2893
44.1287
38.3003
31.2801
23.9619
15.0822
5.20583
1225.26
1182.61
1138.91
1085.89
1027.24
962.602
894.036
823.865
756.881
701.655
672.841
684.267
734.279
809.034
896.03
989.601
1087.59
1188.09
1289.4
1389.39
1484.75
1571.23
1643.93
1698.17
1730.55
1738.61
1720.73
1678.37
1614.23
1528.19
1420.31
1300.02
1182.41
1076.57
986.126
910.526
846.941
792.54
745.415
704.155
667.507
634.451
604.299
576.689
551.469
528.586
508.016
489.728
473.678
459.777
447.802
437.403
428.339
420.668
414.813
411.574
411.377
412.431
410.963
404.119
392.575
381.553
374.336
372.159
374.813
380.425
386.671
391.889
395.092
396.224
396.08
393.988
388.843
378.94
365.081
347.768
327.2
303.726
277.941
250.661
222.844
195.488
169.534
145.777
124.803
106.962
92.3665
80.9655
72.4699
66.2556
61.4739
57.4035
53.444
49.1686
44.1388
38.4496
31.337
24.3013
14.4412
6.66844
1225.44
1182.84
1139.31
1086.29
1027.61
962.838
893.998
823.288
755.37
698.761
668.609
679.704
730.224
805.482
892.6
985.83
1083.22
1182.93
1283.34
1382.48
1477.09
1562.99
1635.31
1689.39
1721.63
1729.39
1711.07
1668.09
1603.45
1517.4
1409.73
1289.77
1172.78
1067.93
978.79
904.552
842.136
788.641
742.226
701.539
665.345
632.627
602.711
575.259
550.148
527.348
506.845
488.618
472.633
458.817
446.94
436.61
427.532
419.71
413.643
410.475
410.908
412.957
412.113
404.974
391.772
378.752
370.514
368.253
371.736
378.468
385.559
391.241
394.579
395.558
395.169
392.871
387.062
376.328
361.878
344.331
323.892
300.882
275.836
249.481
222.667
196.28
171.149
147.976
127.293
109.432
94.5314
82.5687
73.3908
66.6078
61.5012
57.284
53.3366
49.1678
44.2493
38.6877
31.4709
24.7412
13.7025
8.66416
1225.65
1183.08
1139.76
1086.74
1028.02
963.11
893.974
822.674
753.732
695.598
663.968
674.719
725.82
801.612
888.859
981.71
1078.44
1177.26
1276.69
1374.86
1468.62
1553.86
1625.76
1679.61
1711.67
1719.14
1700.38
1656.77
1591.58
1505.44
1397.94
1278.36
1162.06
1058.32
970.643
897.924
836.801
784.303
738.671
698.618
662.931
630.591
600.937
573.662
548.674
525.967
505.541
487.383
471.47
457.746
445.981
435.728
426.621
418.593
412.263
409.165
410.323
413.534
413.467
406.343
391.588
376.066
366.489
363.809
368.097
376.128
384.227
390.49
394.073
394.983
394.399
391.985
385.444
373.879
358.88
341.125
320.809
298.227
273.861
248.363
222.489
197.027
172.712
150.167
129.864
112.111
97.0552
84.6953
74.9231
67.4926
61.9195
57.4689
53.446
49.3212
44.4849
39.0262
31.706
25.2738
12.825
11.338
1225.73
1183.37
1140.25
1087.24
1028.48
963.422
893.966
822.028
751.975
692.175
658.925
669.327
721.088
797.445
884.826
977.259
1073.27
1171.12
1269.45
1366.55
1459.37
1543.87
1615.27
1668.86
1700.71
1707.85
1688.65
1644.42
1578.63
1492.31
1384.95
1265.78
1150.24
1047.74
961.68
890.643
830.939
779.526
734.747
695.393
660.265
628.343
598.979
571.898
547.046
524.441
504.099
486.014
470.171
456.543
444.899
434.726
425.561
417.267
410.583
407.482
409.395
413.918
414.817
408.227
392.574
374.42
363.164
359.469
364.148
373.481
382.709
389.671
393.604
394.527
393.794
391.302
383.942
371.564
356.068
338.131
317.936
295.751
272.012
247.305
222.306
197.717
174.191
152.285
132.416
114.861
99.7655
87.148
76.92
68.8958
62.7504
57.9681
53.7995
49.651
44.8593
39.4699
32.0806
25.8675
11.79
14.5601
1225.84
1183.68
1140.79
1087.79
1029
963.774
893.978
821.357
750.107
688.5
653.486
663.541
716.05
793
880.522
972.498
1067.72
1164.51
1261.65
1357.58
1449.36
1533.04
1603.87
1657.13
1688.75
1695.57
1675.92
1631.06
1564.63
1478.03
1370.78
1252.04
1137.3
1036.16
951.901
882.713
824.553
774.312
730.459
691.866
657.35
625.886
596.837
569.964
545.256
522.76
502.503
484.485
468.708
455.178
443.675
433.591
424.348
415.724
408.548
405.273
407.849
413.817
415.827
410.168
394.404
374.198
360.991
356.013
360.339
370.732
381.117
388.859
393.211
394.195
393.345
390.76
382.498
369.348
353.413
335.325
315.252
293.437
270.277
246.3
222.113
198.342
175.57
154.292
134.882
117.586
102.536
89.7632
79.2042
70.7053
64.0166
58.7891
54.3931
50.1587
45.3701
40.0219
32.6423
26.4878
10.85
17.6607
1225.99
1184.02
1141.37
1088.39
1029.56
964.169
894.012
820.665
748.135
684.58
647.657
657.372
710.725
788.298
875.966
967.444
1061.83
1157.47
1253.32
1347.97
1438.62
1521.39
1591.59
1644.47
1675.81
1682.3
1662.2
1616.71
1549.58
1462.61
1355.43
1237.11
1123.24
1023.59
941.31
874.147
817.657
768.673
725.814
688.046
654.196
623.226
594.514
567.862
543.305
520.921
500.752
482.804
467.099
453.685
442.36
432.416
423.135
414.172
406.355
402.598
405.439
413.013
416.328
411.849
396.477
375
359.619
353.829
357.142
368.163
379.616
388.151
392.946
394.015
393.065
390.289
381.055
367.198
350.89
332.684
312.735
291.268
268.644
245.342
221.907
198.9
176.841
156.172
137.226
120.222
105.28
92.4319
81.6385
72.7779
65.6445
59.9551
55.2283
50.8281
46
40.6886
33.4228
27.1843
10.6226
19.5002
1226.2
1184.4
1142
1089.04
1030.17
964.608
894.073
819.957
746.068
680.423
641.442
650.833
705.134
783.36
871.181
962.12
1055.61
1150.02
1244.47
1337.75
1427.16
1508.95
1578.43
1630.88
1661.92
1668.07
1647.52
1601.4
1533.51
1446.08
1338.91
1221.01
1108.05
1010.03
929.924
864.968
810.275
762.63
720.834
683.955
650.826
620.394
592.05
565.647
541.276
519.047
499.009
481.168
465.556
452.277
441.184
431.509
422.378
413.253
404.672
400.023
402.405
411.281
416.041
412.938
398.323
376.369
358.912
352.794
354.878
366.044
378.373
387.648
392.855
393.995
392.99
389.815
379.563
365.086
348.473
330.184
310.365
289.227
267.101
244.423
221.684
199.389
178.001
157.915
139.427
122.733
107.939
95.0779
84.1239
74.9901
67.5119
61.4345
56.3328
51.6639
46.762
41.487
34.4426
28.0902
11.176
19.2533
1226.5
1184.8
1142.67
1089.74
1030.84
965.093
894.161
819.239
743.912
676.034
634.842
643.934
699.298
778.208
866.188
956.546
1049.09
1142.18
1235.14
1326.94
1415.01
1495.73
1564.43
1616.39
1647.11
1652.92
1631.92
1585.15
1516.44
1428.45
1321.25
1203.72
1091.72
995.487
917.775
855.223
802.455
756.233
715.576
679.662
647.333
617.518
589.628
563.573
539.493
517.516
497.688
480.001
464.49
451.304
440.357
430.894
422.032
413.162
404.24
398.565
399.832
408.827
414.929
412.995
399.482
377.973
359.039
352.498
353.64
364.566
377.526
387.428
392.949
394.144
393.194
389.286
377.991
362.992
346.14
327.802
308.121
287.297
265.636
243.535
221.443
199.809
179.052
159.52
141.478
125.098
110.476
97.6417
86.5831
77.2472
69.5059
63.1121
57.6548
52.6812
47.6639
42.5115
35.7874
28.8824
11.8534
17.2679
1226.6
1185.24
1143.38
1090.49
1031.56
965.626
894.282
818.514
741.674
671.419
627.859
636.686
693.236
772.864
861.011
950.744
1042.28
1133.98
1225.35
1315.56
1402.21
1481.77
1549.62
1601.04
1631.4
1636.87
1615.42
1568
1498.4
1409.75
1302.46
1185.27
1074.27
980.004
904.928
844.994
794.293
749.597
710.187
675.371
643.99
614.941
587.629
561.994
538.221
516.475
496.829
479.285
463.876
450.73
439.748
430.253
421.519
413.092
404.535
398.41
398.765
406.403
413.159
411.86
399.672
379.408
359.771
352.463
353.351
363.826
377.156
387.53
393.248
394.47
393.622
388.6
376.314
360.901
343.871
325.519
305.985
285.463
264.237
242.674
221.18
200.162
179.995
160.99
143.378
127.311
112.869
100.084
88.9637
79.4774
71.5055
64.8111
59.0467
53.9181
49.0501
43.948
36.8818
29.0816
12.5628
14.6076
1226.75
1185.72
1144.14
1091.3
1032.34
966.208
894.436
817.789
739.362
666.583
620.491
629.1
686.969
767.354
855.674
944.739
1035.23
1125.44
1215.13
1303.66
1388.79
1467.1
1534.02
1584.85
1614.82
1619.95
1598.06
1549.98
1479.43
1390.01
1282.57
1165.67
1055.74
963.656
891.501
834.436
785.987
742.984
705.025
671.522
641.247
612.987
586.148
560.782
537.192
515.604
496.101
478.68
463.363
450.244
439.211
429.661
420.975
412.806
404.646
398.56
398.545
404.438
410.884
409.747
398.946
380.545
361.073
352.92
354.121
363.899
377.303
387.97
393.736
394.932
394.154
387.677
374.537
358.809
341.655
323.319
303.942
283.711
262.896
241.832
220.893
200.448
180.833
162.327
145.13
129.369
115.114
102.403
91.2546
81.6457
73.4841
66.6261
60.9075
55.9279
50.7539
44.9963
37.5121
29.1016
13.3645
12.1684
1226.98
1186.23
1144.94
1092.16
1033.17
966.842
894.628
817.068
736.981
661.53
612.739
621.187
680.517
761.703
850.203
938.556
1027.95
1116.6
1204.51
1291.27
1374.77
1451.76
1517.67
1567.85
1597.41
1602.19
1579.88
1531.13
1459.56
1369.26
1261.63
1144.96
1036.21
946.58
877.71
823.844
777.921
736.895
700.652
668.56
639.232
611.471
584.89
559.706
536.243
514.735
495.287
477.92
462.652
449.552
438.499
428.957
420.398
412.485
404.7
398.798
398.461
402.964
408.437
407.048
397.567
381.446
362.952
354.02
355.856
364.766
377.954
388.726
394.396
395.59
394.735
386.536
372.674
356.709
339.478
321.186
301.976
282.031
261.603
241.006
220.583
200.669
181.571
163.534
146.734
131.277
117.224
104.614
93.474
83.8295
75.7142
69.0482
63.2398
57.6457
52.1022
46.1322
37.9992
28.7394
13.8284
10.333
1227.29
1186.78
1145.79
1093.07
1034.06
967.529
894.859
816.354
734.539
656.264
604.6
612.958
673.901
755.941
844.623
932.222
1020.48
1107.48
1193.53
1278.41
1360.21
1435.79
1500.61
1550.07
1579.19
1583.64
1560.93
1511.47
1438.83
1347.55
1239.67
1123.21
1015.8
929.026
863.933
813.719
770.698
731.918
697.389
666.39
637.629
610.144
583.683
558.525
535.078
513.622
494.265
477.004
461.832
448.785
437.733
428.202
419.758
412.072
404.673
399.122
398.43
401.858
406.117
404.155
395.826
382.085
365.067
355.508
358.175
366.275
379.038
389.742
395.185
396.425
394.98
385.111
370.708
354.59
337.327
319.108
300.076
280.41
260.351
240.192
220.248
200.828
182.21
164.613
148.191
133.032
119.184
106.688
95.6151
86.083
78.0512
71.1323
64.9583
59.3108
53.4207
46.4337
37.4609
27.8601
13.9519
9.09904
1227.71
1187.35
1146.68
1094.04
1035.01
968.272
895.133
815.654
732.043
650.79
596.071
604.426
667.14
750.099
838.964
925.767
1012.85
1098.12
1182.24
1265.14
1345.14
1419.22
1482.88
1531.57
1560.21
1564.32
1541.23
1491.06
1417.3
1324.94
1216.77
1100.54
994.754
911.408
850.77
804.743
764.867
728.198
694.95
664.619
636.133
608.69
582.206
557.082
533.742
512.428
493.211
476.072
460.995
448.002
436.954
427.428
419.068
411.558
404.498
399.359
398.4
400.946
404.016
401.363
393.976
382.495
367.366
357.634
360.823
368.234
380.448
390.933
396.053
397.432
394.521
383.325
368.626
352.441
335.194
317.074
298.23
278.839
259.133
239.386
219.89
200.928
182.754
165.566
149.494
134.608
120.946
108.57
97.5933
88.0614
79.8533
72.7671
66.4201
60.1808
53.3881
45.7353
36.5849
27.0049
13.9444
8.2459
1227.91
1187.96
1147.61
1095.05
1036.02
969.071
895.452
814.971
729.499
645.111
587.152
595.606
660.253
744.213
833.256
919.221
1005.09
1088.57
1170.66
1251.5
1329.61
1402.11
1464.52
1512.38
1540.51
1544.26
1520.84
1469.94
1395
1301.47
1193.03
1077.14
973.448
894.357
838.983
797.471
760.456
725.316
692.854
662.827
634.39
606.96
580.556
555.565
532.372
511.194
492.098
475.066
460.08
447.142
436.108
426.603
418.329
410.982
404.233
399.449
398.308
400.104
402.098
398.847
392.235
382.786
369.867
360.464
363.349
370.377
382.06
392.219
397.049
398.487
393.404
381.287
366.46
350.269
333.075
315.077
296.428
277.309
257.942
238.585
219.507
200.972
183.209
166.394
150.638
135.994
122.501
110.227
99.2517
89.6318
81.306
73.9633
67.1071
60.279
53.0206
45.0454
35.8043
26.2418
13.85
7.58039
1228.18
1188.6
1148.58
1096.13
1037.09
969.931
895.819
814.311
726.914
639.233
577.843
586.512
653.253
738.321
827.528
912.618
997.25
1078.85
1158.84
1237.54
1313.68
1384.52
1445.6
1492.55
1520.13
1523.51
1499.79
1448.13
1371.96
1277.24
1168.6
1053.29
952.429
878.667
829.221
791.942
756.953
722.711
690.645
660.759
632.425
605.113
578.833
553.971
530.911
509.866
490.898
473.984
459.097
446.224
435.215
425.739
417.54
410.34
403.875
399.358
398.098
399.253
400.315
396.707
390.765
383.068
372.345
363.455
365.519
372.609
383.792
393.508
398.213
399.067
391.738
379.084
364.229
348.075
330.967
313.108
294.663
275.812
256.772
237.784
219.1
200.962
183.578
167.103
151.63
137.197
123.832
111.605
100.638
90.9888
82.501
74.8241
67.5417
60.2603
52.5878
44.3203
35.033
25.5278
13.7083
7.0285
1228.55
1189.27
1149.58
1097.25
1038.23
970.851
896.238
813.678
724.296
633.161
568.145
577.166
646.152
732.463
821.813
905.993
989.356
1069.01
1146.85
1223.32
1297.41
1366.51
1426.16
1472.14
1499.11
1502.12
1478.11
1425.69
1348.2
1252.34
1143.65
1029.37
932.401
865.091
821.675
787.62
753.723
719.973
688.175
658.508
630.35
603.164
576.999
552.27
529.357
508.459
489.627
472.835
458.051
445.247
434.272
424.833
416.704
409.64
403.432
399.09
397.736
398.351
398.663
394.987
389.635
383.358
374.626
366.523
367.733
375.032
385.598
394.776
399.514
398.607
389.653
376.77
361.947
345.866
328.867
311.163
292.925
274.339
255.613
236.977
218.665
200.899
183.865
167.698
152.471
138.207
124.956
112.825
101.915
92.197
83.4737
75.4309
67.7232
60.036
52.0522
43.5961
34.3134
24.8796
13.5492
6.56307
1229
1189.98
1150.63
1098.43
1039.42
971.837
896.711
813.077
721.652
626.9
558.065
567.591
638.955
726.683
816.143
899.386
981.456
1059.11
1134.72
1208.89
1280.87
1348.16
1406.3
1451.21
1477.52
1480.13
1455.85
1402.66
1323.78
1226.89
1118.43
1005.89
914.095
854.048
815.953
783.742
750.394
717.005
685.539
656.146
628.158
601.088
575.051
550.473
527.718
506.973
488.282
471.614
456.936
444.207
433.277
423.884
415.825
408.888
402.911
398.683
397.221
397.394
397.147
393.65
388.826
383.659
376.727
369.755
370.078
377.399
387.331
396.044
400.463
397.069
387.283
374.371
359.622
343.642
326.773
309.234
291.208
272.883
254.46
236.159
218.198
200.777
184.065
168.173
153.159
139.062
125.955
113.922
103.001
93.1354
84.1475
75.7766
67.7339
59.7392
51.5128
42.9059
33.639
24.2817
13.377
6.1661
1229.57
1190.7
1151.7
1099.66
1040.69
972.888
897.243
812.514
718.991
620.459
547.609
557.815
631.661
721.028
810.551
892.837
973.595
1049.19
1122.54
1194.34
1264.13
1329.54
1386.09
1429.86
1455.43
1457.59
1433.03
1379.07
1298.77
1201.05
1093.24
983.415
898.091
845.471
811.23
779.843
746.876
713.868
682.795
653.667
625.835
598.89
572.996
548.58
525.992
505.407
486.861
470.324
455.757
443.109
432.232
422.893
414.904
408.086
402.314
398.177
396.572
396.398
395.763
392.608
388.272
383.992
378.609
372.732
372.258
379.397
388.85
397.282
400.142
394.887
384.794
371.92
357.267
341.408
324.682
307.317
289.505
271.434
253.304
235.322
217.69
200.591
184.172
168.526
153.712
139.78
126.791
114.802
103.832
93.8227
84.6127
75.9695
67.6375
59.3732
50.9447
42.2276
32.9977
23.7273
13.1977
5.82585
1229.95
1191.46
1152.81
1100.94
1042.02
974.01
897.836
811.995
716.32
613.846
536.791
547.876
624.261
715.549
805.071
886.392
965.823
1039.3
1110.35
1179.73
1247.29
1310.76
1365.62
1408.16
1432.92
1434.59
1409.72
1354.97
1273.24
1174.99
1068.41
962.474
884.669
838.789
806.76
775.825
743.177
710.618
679.941
651.057
623.377
596.57
570.833
546.591
524.181
503.762
485.367
468.964
454.512
441.951
431.136
421.857
413.942
407.235
401.645
397.6
395.838
395.392
394.506
391.762
387.894
384.351
380.209
375.337
374.464
380.988
390.099
397.862
398.407
392.389
382.237
369.43
354.891
339.166
322.592
305.406
287.807
269.985
252.136
234.456
217.132
200.33
184.177
168.757
154.126
140.336
127.437
115.473
104.451
94.3065
84.8908
76.0022
67.4234
58.943
50.3629
41.5728
32.3928
23.2141
13.015
5.53328
1230.39
1192.24
1153.95
1102.27
1043.41
975.203
898.496
811.524
713.649
607.072
525.633
537.823
616.735
710.295
799.737
880.098
958.19
1029.52
1098.24
1165.15
1230.45
1291.93
1345.03
1386.24
1410.09
1411.2
1385.97
1330.42
1247.3
1148.9
1044.31
943.489
873.768
833.156
802.248
771.658
739.343
707.264
676.961
648.309
620.786
594.129
568.563
544.509
522.283
502.037
483.798
467.535
453.202
440.734
429.989
420.778
412.94
406.338
400.909
396.958
395.061
394.398
393.358
391.018
387.615
384.685
381.566
377.834
376.849
382.24
390.851
397.008
396.234
389.865
379.653
366.918
352.501
336.916
320.498
303.493
286.105
268.527
250.947
233.552
216.516
199.986
184.076
168.86
154.394
140.726
127.898
115.944
104.863
94.591
84.9976
75.9067
67.1283
58.475
49.7782
40.9407
31.8189
22.7359
12.83
5.28145
1230.93
1193.04
1155.12
1103.65
1044.88
976.471
899.225
811.109
710.988
600.148
514.169
527.724
609.036
705.308
794.588
874.006
950.753
1019.9
1086.28
1150.7
1213.71
1273.16
1324.41
1364.2
1387.05
1387.52
1361.86
1305.46
1221.04
1123
1021.27
926.711
864.975
827.889
797.645
767.33
735.403
703.794
673.848
645.422
618.064
591.569
566.189
542.331
520.299
500.233
482.156
466.036
451.827
439.458
428.791
419.654
411.897
405.397
400.109
396.25
394.244
393.405
392.28
390.292
387.36
384.961
382.743
379.992
378.787
383.34
391.243
395.834
394.082
387.314
377.046
364.392
350.099
334.656
318.397
301.573
284.393
267.049
249.726
232.599
215.829
199.549
183.858
168.826
154.507
140.943
128.171
116.22
105.085
94.7059
84.9643
75.705
66.7624
57.9716
49.1892
40.328
31.2721
22.2887
12.6437
5.06492
1231.54
1193.87
1156.31
1105.07
1046.4
977.817
900.03
810.755
708.347
593.092
502.444
517.655
601.09
700.628
789.661
868.172
943.567
1010.51
1074.56
1136.47
1197.18
1254.57
1303.91
1342.19
1363.9
1363.63
1337.46
1280.16
1194.58
1097.5
999.569
912.199
857.612
822.669
792.916
762.871
731.358
700.201
670.6
642.398
615.21
588.892
563.71
540.06
518.229
498.348
480.439
464.469
450.388
438.123
427.542
418.484
410.812
404.413
399.25
395.481
393.382
392.403
391.245
389.543
387.083
385.193
383.623
381.209
380.143
384.856
391.601
394.418
391.758
384.707
374.427
361.859
347.688
332.385
316.284
299.639
282.661
265.543
248.462
231.585
215.061
199.008
183.516
168.651
154.461
140.986
128.263
116.316
105.136
94.6666
84.8024
75.407
66.3351
57.4404
48.5999
39.7345
30.7498
21.8687
12.4565
4.87878
1232.27
1194.71
1157.53
1106.53
1048
979.244
900.914
810.472
705.738
585.921
490.515
507.725
592.948
696.284
784.994
862.652
936.691
1001.43
1063.16
1122.55
1180.98
1236.28
1283.65
1320.32
1340.8
1339.66
1312.86
1254.6
1168.08
1072.62
979.439
899.801
850.976
817.404
788.042
758.296
727.201
696.482
667.214
639.236
612.228
586.099
561.127
537.694
516.072
496.384
478.648
462.832
448.885
436.73
426.24
417.268
409.684
403.386
398.337
394.653
392.487
391.39
390.244
388.778
386.775
385.378
384.139
382.033
381.664
386.01
391.152
392.634
389.371
382.115
371.82
359.325
345.266
330.099
314.152
297.682
280.9
263.997
247.144
230.501
214.201
198.355
183.043
168.327
154.253
140.86
128.182
116.241
105.028
94.4885
84.529
75.0279
65.8572
56.8868
48.0108
39.1577
30.2484
21.472
12.2688
4.71866
1232.84
1195.58
1158.76
1108.03
1049.66
980.753
901.883
810.266
703.174
578.657
478.454
498.09
584.844
692.321
780.625
857.507
930.183
992.72
1052.17
1109.06
1165.21
1218.42
1263.76
1298.74
1317.86
1315.71
1288.12
1228.88
1141.7
1048.58
961.032
889.115
844.604
812.05
783.041
753.608
722.93
692.634
663.69
635.935
609.117
583.19
558.44
535.234
513.829
494.34
476.783
461.126
447.317
435.278
424.886
416.005
408.513
402.314
397.373
393.767
391.563
390.368
389.265
388.006
386.447
385.497
384.598
383.042
383.083
386.703
390.474
390.867
387.038
379.555
369.224
356.787
342.832
327.794
311.997
295.695
279.101
262.401
245.763
229.334
213.24
197.581
182.433
167.852
153.884
140.567
127.936
116.01
104.777
94.1874
84.1568
74.5769
65.3345
56.3135
47.4222
38.5953
29.7651
21.0955
12.081
4.58059
1233.46
1196.46
1160.02
1109.57
1051.38
982.348
902.944
810.146
700.668
571.319
466.351
488.941
577.002
688.799
776.591
852.794
924.101
984.46
1041.66
1096.07
1149.97
1201.09
1244.35
1277.56
1295.22
1291.9
1263.35
1203.12
1115.6
1025.6
944.42
879.605
838.296
806.579
777.919
748.807
718.542
688.655
660.027
632.498
605.879
580.168
555.651
532.681
511.5
492.216
474.843
459.351
445.685
433.766
423.478
414.693
407.297
401.197
396.358
392.826
390.603
389.34
388.3
387.234
386.096
385.573
385.16
384.151
384.338
387.173
389.682
389.084
384.719
377.012
366.634
354.243
340.381
325.464
309.81
293.67
277.254
260.746
244.307
228.076
212.171
196.683
181.683
167.227
153.359
140.118
127.538
115.634
104.396
93.775
83.6963
74.0624
64.7728
55.7233
46.8339
38.0454
29.2973
20.736
11.8932
4.46097
1234.16
1197.36
1161.29
1111.15
1053.17
984.03
904.1
810.122
698.234
563.926
454.279
480.444
569.544
685.784
772.921
848.569
918.496
976.713
1031.72
1083.68
1135.37
1184.38
1225.54
1256.9
1272.99
1268.33
1238.63
1177.46
1089.99
1003.87
929.563
870.852
831.974
800.994
772.681
743.893
714.035
684.543
656.224
628.926
602.517
577.033
552.76
530.034
509.084
490.011
472.829
457.505
443.987
432.195
422.016
413.332
406.034
400.034
395.294
391.832
389.607
388.307
387.345
386.466
385.713
385.613
385.809
385.188
385.3
387.33
388.718
387.26
382.41
374.483
364.047
351.688
337.909
323.105
307.585
291.598
275.351
259.022
242.767
226.719
210.986
195.655
180.793
166.454
152.683
139.52
126.996
115.126
103.896
93.2628
83.1572
73.4917
64.1764
55.1177
46.2453
37.5056
28.8425
20.391
11.7057
4.35654
1234.93
1198.27
1162.57
1112.75
1055.02
985.802
905.36
810.203
695.887
556.494
442.297
472.683
562.561
683.336
769.642
844.879
913.417
969.542
1022.41
1071.97
1121.48
1168.4
1207.4
1236.87
1251.29
1245.07
1214.08
1152.02
1065.04
983.581
916.204
862.52
825.603
795.294
767.329
738.864
709.406
680.298
652.282
625.219
599.031
573.786
549.767
527.293
506.581
487.726
470.739
455.589
442.224
430.562
420.499
411.921
404.724
398.824
394.18
390.787
388.573
387.264
386.391
385.696
385.283
385.654
386.498
386.022
385.938
387.22
387.631
385.412
380.108
371.961
361.456
349.117
335.41
320.709
305.315
289.472
273.383
257.221
241.137
225.256
209.682
194.496
179.763
165.538
151.864
138.782
126.323
114.496
103.289
92.6607
82.5475
72.8703
63.5486
54.498
45.6558
36.974
28.3983
20.0577
11.5187
4.26433
1235.78
1199.19
1163.87
1114.39
1056.93
987.664
906.729
810.402
693.646
549.042
430.433
465.611
556.066
681.508
766.777
841.76
908.902
962.998
1013.81
1061.01
1108.38
1153.2
1190.02
1217.52
1230.18
1222.17
1189.8
1126.96
1040.98
964.914
904
854.396
819.158
789.48
761.862
733.718
704.654
675.92
648.202
621.38
595.424
570.428
546.673
524.459
503.992
485.359
468.572
453.602
440.393
428.868
418.926
410.457
403.364
397.565
393.015
389.691
387.501
386.206
385.43
384.915
384.798
385.738
387.15
386.615
386.298
386.886
386.428
383.527
377.801
369.437
358.854
346.524
332.878
318.271
302.994
287.285
271.342
255.336
239.41
223.684
208.257
193.207
178.598
164.484
150.91
137.915
125.527
113.755
102.585
91.9772
81.8741
72.2033
62.8923
53.8647
45.0644
36.4483
27.9626
19.7339
11.3323
4.18165
1236.51
1200.12
1165.18
1116.05
1058.89
989.618
908.213
810.729
691.528
541.585
418.675
459.07
550.098
680.304
764.346
839.237
904.978
957.127
1005.96
1050.87
1096.14
1138.84
1173.43
1198.93
1209.71
1199.7
1165.9
1102.43
1018.01
947.984
892.683
846.427
812.635
783.551
756.28
728.455
699.778
671.407
643.984
617.41
591.697
566.962
543.478
521.532
501.314
482.91
466.329
451.542
438.495
427.112
417.294
408.939
401.954
396.257
391.799
388.546
386.39
385.125
384.456
384.114
384.247
385.891
387.676
386.949
386.391
386.338
385.111
381.599
375.48
366.902
356.235
343.903
330.307
315.784
300.614
285.029
269.223
253.361
237.581
221.999
206.71
191.79
177.303
163.3
149.83
136.928
124.62
112.914
101.793
91.2202
81.143
71.4947
62.2095
53.2182
44.47
35.9268
27.5336