/*--------------------------------*- C++ -*----------------------------------*\
| =========                 |                                                 |
| \\      /  F ield         | OpenFOAM: The Open Source CFD Toolbox           |
|  \\    /   O peration     | Version:  4.1                                   |
|   \\  /    A nd           | Web:      www.OpenFOAM.org                      |
|    \\/     M anipulation  |                                                 |
\*---------------------------------------------------------------------------*/
FoamFile
{
    version     2.0;
    format      ascii;
    class       surfaceScalarField;
    location    "1900";
    object      phi;
}
// * * * * * * * * * * * * * * * * * * * * * * * * * * * * * * * * * * * * * //

dimensions      [0 3 -1 0 0 0 0];

internalField   nonuniform List<scalar> 
52920
(
-7661.42
387.295
-8088.51
427.098
-8524.77
436.259
-8978.38
453.606
-9443.43
465.046
-9916.64
473.212
-10391.8
475.185
-10858.6
466.821
-11297.9
439.235
-11678
380.083
-11955.5
277.55
-12092.1
136.618
-12076.7
-15.3865
-11921.8
-154.986
-11641.9
-279.881
-11243.8
-398.058
-10728.1
-515.693
-10092.3
-635.789
-9332.15
-760.194
-8443.22
-888.929
-7424.04
-1019.18
-6277.44
-1146.6
-5012.39
-1265.05
-3649.13
-1363.26
-2223.15
-1425.99
-728.476
-1494.67
775.952
-1504.43
2081.52
-1305.57
3206.46
-1124.94
4373.99
-1167.53
5512.2
-1138.21
6558.7
-1046.51
7478.97
-920.264
8264.24
-785.278
8927.75
-663.506
9494.72
-566.97
9990.53
-495.808
10434.8
-444.302
10841.7
-406.908
11221.6
-379.831
11581.7
-360.117
11926.6
-344.938
12258.3
-331.651
12576.4
-318.137
12879.4
-303.028
13165.1
-285.703
13431.3
-266.145
13676.2
-244.871
13899.1
-222.957
14100.8
-201.681
14282.1
-181.321
14442.1
-159.985
14576.3
-134.163
14678.6
-102.326
14749.3
-70.6653
14805.2
-55.9519
14882.5
-77.2486
15017.1
-134.669
15214.2
-197.054
15435.9
-221.676
15623.8
-187.943
15729.8
-105.961
15727
2.74739
15612
115.004
15391.7
220.269
15071.9
319.876
14676.5
395.403
14290.4
386.083
14073.7
216.674
14201.6
-127.9
14769.9
-568.343
15799.8
-1029.88
17267.4
-1467.6
19094.6
-1827.2
21154.3
-2059.72
23293.5
-2139.18
25362.5
-2069.01
27237.3
-1874.83
28831.4
-1594.06
30098.7
-1267.3
31030.8
-932.094
31649.6
-618.794
31998.3
-348.664
32131.5
-133.281
32105.7
25.8833
31971.1
134.541
31769.6
201.506
31532.7
236.961
31281.6
251.07
31029
252.617
30780.7
248.27
30538.3
242.354
30301.1
237.232
30067.8
233.362
29836.7
231.068
29608.8
227.873
29381.2
227.592
29163.4
217.769
28933.6
229.86
189.14
-7807.95
808.127
-8264.33
883.478
-8733.71
905.64
-9221.58
941.477
-9722.22
965.681
-10231.9
982.876
-10744.4
987.728
-11249.5
971.917
-11727.7
917.407
-12146.5
798.923
-12461.4
592.402
-12632.5
307.712
-12649
1.14798
-12526.2
-277.755
-12280.8
-525.358
-11918.3
-760.48
-11438.8
-995.209
-10839.6
-1234.97
-10116.4
-1483.41
-9264.9
-1740.47
-8283.44
-2000.64
-7174.51
-2255.53
-5946.08
-2493.48
-4614.31
-2695.02
-3208
-2832.29
-1777.66
-2925.01
-343.791
-2938.3
1075.34
-2724.7
2403.52
-2453.12
3635.27
-2399.28
4808.72
-2311.66
5871.31
-2109.09
6794.25
-1843.21
7575.05
-1566.08
8231.23
-1319.69
8789.8
-1125.54
9276.89
-982.897
9712.64
-880.052
10111.4
-805.689
10483.6
-752.048
10836.7
-713.15
11175
-683.314
11500.6
-657.195
11812.9
-630.496
12110.4
-600.456
12390.5
-565.843
12651
-526.661
12890.1
-483.981
13107.2
-440.026
13303
-397.486
13478.8
-357.144
13634.2
-315.369
13764.9
-264.812
13863.7
-201.151
13928.3
-135.231
13973.5
-101.158
14037.3
-141.043
14161.1
-258.479
14353.3
-389.271
14576.4
-444.773
14774.8
-386.402
14908
-239.077
14945.7
-34.988
14859.5
201.202
14634
445.796
14301
652.815
13963
733.391
13746
603.168
13697.1
265.575
13754.8
-185.682
13886.5
-699.974
14243.1
-1386.48
15052.6
-2277.15
16407.9
-3182.49
18236.3
-3888.06
20381.7
-4284.59
22668.5
-4355.81
24926.3
-4132.69
27004.2
-3671.91
28784.8
-3047.93
30195.8
-2343.06
31211.6
-1634.6
31847.2
-984.256
32148.5
-434.59
32185.5
-11.147
32038
282.011
31776.7
462.787
31455.2
558.528
31110.1
596.166
30764.4
598.338
30430.6
582.071
30114.2
558.725
29816.3
535.075
29536.2
513.552
29271.3
495.927
29021.3
477.849
28781.6
467.301
28559.5
439.877
28333.3
456.029
369.86
-7964.19
1268.98
-8440.43
1359.72
-8931.58
1396.79
-9437.25
1447.14
-9952.17
1480.61
-10472.2
1502.9
-10991.5
1507.02
-11500.2
1480.67
-11979.8
1396.95
-12399.1
1218.2
-12715.7
909.066
-12893.1
485.092
-12923.3
31.3427
-12820.5
-380.536
-12597.7
-748.211
-12259.2
-1098.99
-11804.8
-1449.59
-11231.6
-1808.17
-10535.1
-2179.86
-9711.25
-2564.34
-8758.68
-2953.22
-7680.42
-3333.78
-6485.26
-3688.65
-5189.45
-3990.83
-3817.58
-4204.17
-2407.7
-4334.89
-977.491
-4368.51
461.971
-4164.16
1843.32
-3834.47
3123.09
-3679.05
4321.99
-3510.56
5397.85
-3184.95
6326.28
-2771.64
7107.05
-2346.85
7760.55
-1973.18
8316
-1680.99
8800.67
-1467.56
9234.95
-1314.33
9633.12
-1203.86
10005.4
-1124.36
10359.1
-1066.82
10698.5
-1022.69
11025.1
-983.846
11338.4
-943.789
11636.3
-898.38
11916.4
-845.851
12176
-786.315
12413.5
-721.487
12628.3
-654.842
12821.5
-590.66
12994.8
-530.411
13148.1
-468.736
13277.3
-393.956
13373.9
-297.793
13433.5
-194.8
13470.3
-137.939
13526.3
-197.07
13650.2
-382.401
13855.2
-594.214
14103.6
-693.235
14333.6
-616.358
14484.9
-390.441
14498.8
-48.8345
14345.5
354.494
14066.6
724.69
13770.2
949.18
13548.8
954.856
13367.5
784.448
13061.6
571.476
12521.5
354.458
11910.2
-88.6919
11627.7
-1104.01
11950.8
-2600.29
12857
-4088.65
14212.5
-5243.54
15915.9
-5988
17894.4
-6334.36
20062
-6300.21
22300.3
-5910.21
24468.3
-5215.94
26426.6
-4301.37
28063.7
-3271.71
29313.5
-2234.01
30159.2
-1280.38
30627.5
-479.433
30782.8
126.763
30712.1
533.475
30498.2
772.451
30205.3
888.988
29878.2
925.521
29544.7
915.573
29220.8
882.57
28914.4
841.468
28628.6
799.404
28362.9
761.579
28117.8
722.935
27888.5
696.608
27681.4
646.962
27477.1
660.394
527.623
-8079.75
1749.89
-8565.6
1845.58
-9064.9
1896.09
-9574.69
1956.92
-10090.9
1996.81
-10610.3
2022.27
-11128.4
2025.13
-11636.7
1989.03
-12117.8
1878.05
-12541.3
1641.69
-12864.9
1232.62
-13051.2
671.376
-13092.3
72.5079
-13003.5
-469.39
-12797.3
-954.348
-12477.2
-1419.1
-12042.4
-1884.41
-11489.7
-2360.92
-10814.3
-2855.23
-10012
-3366.67
-9081.28
-3883.88
-8025.35
-4389.71
-6853.1
-4860.9
-5580.55
-5263.39
-4230.37
-5554.35
-2835.21
-5730.06
-1419.24
-5784.48
11.3309
-5594.74
1414.64
-5237.78
2731.29
-4995.7
3949.81
-4729.08
5037.32
-4272.46
5970.68
-3705
6752.08
-3128.25
7404.52
-2625.62
7959.02
-2235.5
8443.7
-1952.24
8879.11
-1749.74
9279.31
-1604.07
9654.28
-1499.32
10011
-1423.54
10353.6
-1365.28
10683.4
-1313.61
10999.4
-1259.8
11299.4
-1198.38
11580.6
-1127.14
11840.7
-1046.38
12077.8
-958.554
12291.4
-868.487
12483
-782.266
12654.9
-702.275
12807.6
-621.399
12936.6
-522.98
13032.2
-393.427
13087.5
-250.133
13116.9
-167.278
13169
-249.155
13303.4
-516.798
13538.1
-828.91
13827.8
-983.012
14091.1
-879.625
14244.2
-543.584
14220.2
-24.7725
14024.4
550.317
13750.2
998.858
13502.1
1197.23
13293.9
1163.1
13026.3
1052.05
12582.5
1015.28
11964.9
972.09
11362.8
513.37
11073.7
-814.912
11236.6
-2763.15
11764.2
-4616.3
12557
-6036.37
13589
-7019.96
14877.5
-7622.82
16435
-7857.75
18236.6
-7711.81
20206.6
-7185.93
22225.1
-6319.85
24150
-5196.62
25846.9
-3930.9
27214.5
-2648.06
28198.7
-1463.6
28794.9
-469.4
29053.3
275.074
29063
762.714
28913.3
1038.67
28674.3
1164.58
28394.2
1195.64
28103.7
1173.11
27820.3
1124.86
27553.4
1066.25
27306.6
1008.44
27082.3
947.21
26876.4
902.509
26696.1
827.275
26523.2
833.268
653.343
-8150.37
2234.89
-8640.54
2335.75
-9141.5
2397.05
-9650.94
2466.36
-10165.9
2511.79
-10684.2
2540.55
-11202.2
2543.15
-11712.1
2498.88
-12196.4
2362.37
-12624.6
2069.88
-12953.5
1561.58
-13145.4
863.217
-13193.4
120.478
-13114.3
-548.426
-12920.9
-1147.77
-12615.2
-1724.75
-12196.2
-2303.47
-11660.2
-2896.93
-11002.2
-3513.19
-10217.7
-4151.21
-9304.99
-4796.57
-8267.09
-5427.61
-7112.84
-6015.15
-5857.81
-6518.42
-4523.34
-6888.82
-3139.3
-7114.09
-1732.89
-7190.89
-311.077
-7016.55
1096.16
-6645.01
2429.58
-6329.12
3661.1
-5960.6
4756.71
-5368.07
5693.15
-4641.44
6474.55
-3909.65
7125.94
-3277.02
7679.92
-2789.48
8165.41
-2437.73
8602.97
-2187.3
9006.3
-2007.39
9384.97
-1878
9745.74
-1784.31
10092.5
-1712.02
10426.2
-1647.37
10745.8
-1579.36
11048.7
-1501.25
11332
-1410.47
11593.3
-1307.65
11830.7
-1195.99
12044
-1081.81
12235.1
-973.303
12406.9
-874.107
12560.8
-775.344
12692.4
-654.487
12789.6
-490.674
12842.2
-302.72
12864.4
-189.447
12915.2
-300.041
13069.9
-671.417
13346.7
-1105.71
13680
-1316.36
13963.7
-1163.29
14105.4
-685.269
14053.1
27.4895
13844.9
758.56
13583.1
1260.61
13340.5
1439.81
13102
1401.65
12795.2
1358.79
12372
1438.52
11857.1
1487
11343.7
1026.74
11020
-491.187
11030.1
-2773.27
11312.2
-4898.36
11768.1
-6492.35
12364.8
-7616.64
13126.4
-8384.42
14100.1
-8831.44
15324.8
-8936.47
16806.7
-8667.84
18504
-8017.13
20324.7
-7017.3
22140.6
-5746.82
23813.4
-4320.86
25222.2
-2872.41
26283.1
-1530.31
26962.7
-404.535
27296.8
428.601
27373.7
961.806
27285.4
1252.87
27104.2
1376.8
26879.8
1397.58
26643.1
1361.5
26412.6
1296.73
26197.4
1223.65
26003.7
1140.9
25828.6
1077.64
25682.3
973.609
25545.2
970.332
741.927
-8185.39
2713.87
-8678.41
2828.77
-9179.35
2897.98
-9688.26
2975.27
-10202.6
3026.16
-10720.7
3058.59
-11239.2
3061.64
-11750.4
3010.15
-12237.3
2849.25
-12669
2501.62
-13001.9
1894.42
-13197.2
1058.53
-13249.3
172.554
-13177
-620.691
-12993.3
-1331.53
-12699.1
-2018.89
-12292.9
-2709.66
-11770.8
-3419.04
-11127.4
-4156.58
-10357.8
-4920.84
-9460.02
-5694.34
-8436.85
-6450.78
-7296.96
-7155.04
-6055.52
-7759.87
-4733.09
-8211.25
-3358.06
-8489.12
-1959.33
-8589.62
-546.613
-8429.27
856.561
-8048.19
2196.41
-7668.97
3435.67
-7199.87
4535.96
-6468.36
5473.5
-5578.98
6253.75
-4689.9
6903.41
-3926.68
7456.63
-3342.69
7943.09
-2924.19
8383.23
-2627.44
8790.2
-2414.36
9173.13
-2260.93
9538.5
-2149.68
9889.98
-2063.5
10228.3
-1985.74
10552.1
-1903.13
10858.6
-1807.7
11144.8
-1696.67
11408.1
-1571.03
11647
-1434.83
11861.2
-1296.01
12053.1
-1165.22
12226.9
-1047.88
12384.9
-933.328
12522
-791.66
12622.7
-591.339
12670.4
-350.455
12681.6
-200.615
12738.3
-356.74
12940.7
-873.824
13294.9
-1459.88
13692.3
-1713.76
13995.2
-1466.19
14114
-804.076
14022.9
118.541
13786.9
994.541
13509.1
1538.42
13246.8
1702.18
12984.7
1663.69
12673
1670.49
12281.4
1830.15
11823.6
1944.76
11353.7
1496.67
11012.5
-149.977
10946.4
-2707.19
11101.6
-5053.49
11375.5
-6766.27
11723.2
-7964.33
12156
-8817.29
12717.1
-9392.51
13460.7
-9680.04
14434.3
-9641.43
15660.2
-9243.06
17119.5
-8476.63
18744.6
-7371.91
20425.6
-6001.83
22029.9
-4476.7
23428.7
-2929.2
24517.6
-1493.43
25240.2
-293.953
25622
579.991
25749.9
1125
25715.8
1410.89
25591.3
1522.03
25425.1
1527.76
25247.4
1474.43
25075.4
1395.62
24920.6
1295.75
24782.2
1216.03
24676
1079.78
24576.3
1070.03
790.462
-8197.06
3199.48
-8690.37
3322.07
-9191.68
3399.29
-9700.49
3484.08
-10214.6
3540.24
-10732.2
3576.24
-11250.5
3579.92
-11762.2
3521.9
-12250.8
3337.81
-12685.4
2936.18
-13021.2
2230.22
-13218.4
1255.78
-13272.4
226.545
-13204.5
-688.604
-13028
-1508.05
-12743
-2303.89
-12347.3
-3105.31
-11836.9
-3929.5
-11205.8
-4787.63
-10448.8
-5677.85
-9563.57
-6579.56
-8552.59
-7461.75
-7424.31
-8283.32
-6193.6
-8990.58
-4880.63
-9524.22
-3513.02
-9856.73
-2120.85
-9981.78
-717.226
-9832.9
677.876
-9443.29
2017.97
-9009.06
3260.72
-8442.62
4362.6
-7570.24
5299.19
-6515.57
6076.82
-5467.54
6723.73
-4573.58
7275.64
-3894.61
7763.02
-3411.58
8205.99
-3070.41
8616.98
-2825.35
9004.58
-2648.54
9375
-2520.1
9731.73
-2420.23
10075.3
-2329.34
10404
-2231.83
10715
-2118.62
11005
-1986.76
11271.7
-1837.69
11513.2
-1676.28
11729.4
-1512.22
11923.3
-1359.14
12100.3
-1224.93
12263.9
-1096.93
12407.4
-935.178
12508.6
-692.471
12545.1
-386.957
12549.7
-205.206
12650.8
-457.891
12969.7
-1192.72
13465.6
-1955.77
13965.3
-2213.42
14297.7
-1798.59
14377.2
-883.599
14210.3
285.436
13900.5
1304.3
13565.5
1873.44
13257.9
2009.76
12959.8
1961.86
12627.2
2003.04
12239.2
2218.15
11814.4
2369.59
11390.7
1920.38
11060.6
180.107
10956.5
-2603.15
11034.5
-5131.45
11197.9
-6929.65
11397.7
-8164.14
11633.7
-9053.34
11935.2
-9693.96
12347.5
-10092.3
12923
-10217
13709.9
-10029.9
14737.2
-9503.98
16000
-8634.74
17449
-7450.8
18991.4
-6019.06
20504.3
-4442.14
21858.6
-2847.76
22936.7
-1371.97
23667.7
-151.067
24072.8
719.906
24237.3
1246.41
24250.4
1508.9
24180.6
1597.58
24073.5
1581.58
23957
1512.07
23849.5
1403.26
23754.3
1311.19
23694.6
1139.56
23631.1
1133.49
797.039
-8190.1
3686.57
-8684.02
3815.99
-9185.96
3901.23
-9694.77
3992.89
-10208.2
4053.71
-10724.8
4092.75
-11241.9
4097.09
-11753.5
4033.43
-12243.3
3827.65
-12680.4
3373.3
-13018.6
2568.42
-13216.6
1453.73
-13270.7
280.66
-13205.1
-754.14
-13033.9
-1679.31
-12756.1
-2581.69
-12369.1
-3492.33
-11868.3
-4430.22
-11247.8
-5408.22
-10501.5
-6424.15
-9626.83
-7454.19
-8625.97
-8462.62
-7507.11
-9402.18
-6284.88
-10212.8
-4979.38
-10829.7
-3617.94
-11218.2
-2231.5
-11368.2
-836.499
-11227.9
548.614
-10828.4
1884.5
-10344.9
3126.85
-9684.97
4227.59
-8670.98
5161.26
-7449.24
5934.76
-6241.04
6577.82
-5216.64
7127.88
-4444.67
7616.14
-3899.83
8062.19
-3516.46
8477.55
-3240.71
8870.2
-3041.19
9246.09
-2895.98
9608.59
-2782.73
9958.07
-2678.81
10292.5
-2566.25
10608.7
-2434.84
10903.5
-2281.57
11174.1
-2108.3
11418.5
-1920.65
11636.5
-1730.2
11831.8
-1554.42
12011.5
-1404.66
12180
-1265.48
12327.8
-1082.9
12426.1
-790.809
12458
-418.862
12493.1
-240.282
12697.1
-661.943
13164.9
-1660.48
13797.8
-2588.65
14398.9
-2814.54
14785.2
-2184.89
14852.7
-951.128
14615.9
522.272
14214.3
1705.86
13791.3
2296.46
13402.7
2398.36
13028.9
2335.68
12635.7
2396.28
12219.7
2634.14
11806.1
2783.13
11420
2306.51
11115.4
484.744
11002.7
-2490.47
11040
-5168.72
11137.2
-7026.92
11247.1
-8274.04
11364.4
-9170.61
11507.8
-9837.37
11710.4
-10294.9
12015.1
-10521.6
12469.9
-10484.7
13120
-10154.1
13996.2
-9510.96
15101
-8555.58
16397.6
-7315.66
17807.3
-5851.8
19218.5
-4258.98
20505.5
-2658.98
21543.6
-1189.13
22256.7
6.73847
22666.9
836.296
22857.5
1318.24
22913
1542.09
22896.2
1598.42
22848.9
1559.38
22797.9
1454.17
22753.7
1355.46
22745.7
1147.51
22713.5
1165.73
759.014
-8168.56
4172.12
-8663.73
4311.16
-9166.23
4403.73
-9674.84
4501.5
-10187.2
4566.05
-10701.9
4607.43
-11217.3
4612.55
-11728.3
4544.4
-12219.3
4318.67
-12658.9
3812.89
-12999.2
2908.66
-13196.8
1651.4
-13249.5
333.375
-13184.7
-818.968
-13017
-1847.03
-12744.7
-2853.96
-12364.7
-3872.38
-11872.1
-4922.8
-11260.4
-6019.94
-10523.2
-7161.34
-9657.45
-8319.93
-8664.94
-9455.13
-7553.64
-10513.5
-6338.05
-11428.4
-5038.38
-12129.4
-3682.05
-12574.5
-2300.78
-12749.5
-914.087
-12614.6
459.772
-12202.3
1788.08
-11673.3
3026.81
-10923.7
4124.17
-9768.34
5053.19
-8378.26
5821.11
-7008.96
6459.24
-5854.76
7006.91
-4992.35
7496
-4388.92
7945.37
-3965.82
8365.4
-3660.74
8763.35
-3439.15
9144.98
-3277.61
9513.59
-3151.34
9869.3
-3034.52
10209.7
-2906.69
10531.4
-2756.5
10830.8
-2580.94
11104.7
-2382.24
11350.8
-2166.78
11569.2
-1948.59
11765.3
-1750.45
11948.8
-1588.24
12125.3
-1441.96
12282.7
-1240.23
12393.5
-901.701
12458.2
-483.53
12560.5
-342.525
12825.6
-927.115
13296.2
-2131.06
13910.2
-3202.69
14552.7
-3456.98
15048.3
-2680.52
15222.8
-1125.6
15029
716.111
14597.9
2136.92
14099
2795.31
13610.3
2887.08
13130.1
2815.92
12648.3
2878.05
12183.7
3098.76
11765.3
3201.52
11410.7
2661.08
11150.4
745.113
11059.6
-2399.68
11085.8
-5194.98
11146.6
-7087.69
11201.4
-8328.79
11245.2
-9214.47
11291.6
-9883.76
11364.5
-10367.8
11496
-10653.2
11725.3
-10714
12095.1
-10523.9
12646.4
-10062.3
13408.5
-9317.67
14387.1
-8294.27
15553.8
-7018.49
16840.8
-5545.97
18146.9
-3965.08
19350.9
-2393.2
20328
-970.299
21005.2
159.104
21409
914.447
21620.2
1330.88
21715.6
1502.95
21752.8
1522.2
21769.1
1437.95
21784.6
1339.87
21830.6
1101.59
21820.4
1175.91
668.803
-8134.97
4654.03
-8632.07
4808.26
-9134.83
4906.49
-9643.02
5009.69
-10153.8
5076.81
-10666.2
5119.82
-11179.6
5125.98
-11689.9
5054.68
-12182.1
4810.88
-12624.2
4254.99
-12966.2
3250.72
-13162.8
1847.99
-13212.8
383.357
-13147.2
-884.542
-12981.6
-2012.68
-12713.4
-3122.18
-12338.8
-4246.91
-11852.9
-5408.68
-11248.6
-6624.23
-10519.1
-7890.91
-9660.73
-9178.28
-8675.02
-10440.8
-7569.68
-11618.8
-6359.15
-12638.9
-5063.94
-13424.6
-3711.81
-13926.6
-2335.32
-14126
-956.945
-13993
404.461
-13563.7
1722.52
-12991.3
2955.1
-12156.3
4047.18
-10860.4
4969.97
-9301.05
5730.85
-7769.85
6362.94
-6486.85
6907.63
-5537.04
7397.46
-4878.75
7850.25
-4418.62
8275.01
-4085.5
8678.22
-3842.36
9065.45
-3664.84
9439.95
-3525.84
9801.61
-3396.19
10147.7
-3252.77
10474.3
-3083.15
10777.8
-2884.41
11054.8
-2659.26
11303.3
-2415.26
11524.9
-2170.18
11728.5
-1954.05
11927.9
-1787.66
12129.4
-1643.49
12321
-1431.75
12481
-1061.74
12606.5
-609.083
12718.9
-454.889
12840.3
-1048.48
13022.4
-2313.22
13373
-3553.26
13951.1
-4035.04
14612.8
-3342.28
15072.9
-1585.7
15124
664.978
14799.6
2461.37
14289.7
3305.15
13725
3451.87
13148.7
3392.14
12586.8
3439.99
12079.3
3606.27
11660.6
3620.21
11345.6
2976.05
11152.9
937.829
11112.6
-2359.36
11152.2
-5234.62
11198.2
-7133.63
11221
-8351.61
11219.8
-9213.25
11206.1
-9870.09
11198.5
-10360.3
11221.5
-10676.2
11305.1
-10797.5
11484
-10702.8
11795.9
-10374.2
12276.8
-9798.51
12952.7
-8970.22
13830.3
-7896.03
14885.7
-6601.4
16059.7
-5139.05
17259.7
-3593.28
18370.8
-2081.33
19273.5
-743.584
19904.8
283.125
20298
937.608
20528.8
1272.18
20667.7
1383.28
20763.2
1342.46
20847.8
1255.34
20942.6
1006.72
20944.3
1174.19
505.224
-8094.22
5148.89
-8590.05
5304.08
-9093.45
5409.89
-9600.97
5517.21
-10109.9
5585.76
-10619.8
5629.68
-11131
5637.19
-11640.5
5564.21
-12134
5304.33
-12578.7
4699.68
-12922.4
3594.48
-13117.2
2042.79
-13163.3
429.401
-13095.6
-952.17
-12930.7
-2177.64
-12665.2
-3387.7
-12294.8
-4617.29
-11814.3
-5889.21
-11216
-7222.44
-10492.8
-8614.19
-9640.41
-10030.6
-8660.07
-11421.2
-7559.27
-12719.6
-6352.41
-13845.8
-5060.46
-14716.5
-3711.75
-15275.4
-2339.81
-15497.9
-969.987
-15362.8
377.677
-14911.3
1683.05
-14296.7
2907.3
-13380.5
3992.46
-11945.6
4907.47
-10216.1
5659.8
-8522.18
6284.57
-7111.62
6825.52
-6077.99
7315.75
-5368.98
7771.76
-4874.62
8200.86
-4514.61
8608.68
-4250.17
9000.71
-4056.87
9380.41
-3905.54
9747.74
-3763.52
10099.9
-3604.95
10433.1
-3416.36
10743.8
-3195.09
11029.3
-2944.71
11288.8
-2674.79
11527.1
-2408.49
11757.3
-2184.24
11995.4
-2025.74
12245.8
-1893.9
12494.2
-1680.14
12713.7
-1281.28
12862.1
-757.462
12861
-453.833
12644.4
-831.834
12322.4
-1991.23
12204.2
-3435.08
12556.6
-4387.44
13327
-4112.64
14169.4
-2428.13
14662.2
172.16
14612.2
2511.42
14193.2
3724.18
13615.4
4029.6
12991.8
4015.81
12390.9
4040.82
11873.5
4123.69
11479.3
4014.39
11223.1
3232.25
11122.1
1038.88
11155.5
-2392.81
11226.9
-5305.98
11274.1
-7180.83
11281.7
-8359.22
11254.7
-9186.23
11204.7
-9820.15
11147.6
-10303.1
11102.8
-10631.4
11093.7
-10788.5
11147.9
-10757
11295.7
-10522.1
11569.8
-10072.5
12000.6
-9401.01
12610.6
-8506.05
13405.4
-7396.23
14364.3
-6097.92
15434.1
-4663.07
16528.9
-3176.19
17541.3
-1755.93
18362.7
-538.341
18946.6
353.755
19332
886.795
19590.4
1124.84
19778.2
1154.67
19937.6
1095.93
20066.7
877.657
20080.5
1160.36
219.196
-8043.75
5641.63
-8539.3
5799.63
-9043.25
5913.84
-9550.02
6023.98
-10057.1
6092.83
-10564.3
6136.9
-11073.2
6146.11
-11582
6072.95
-12076.7
5799.07
-12524.1
5147.09
-12869.6
3939.92
-13062
2235.2
-13102.9
470.366
-13032
-1023.07
-12866.5
-2343.16
-12602.4
-3651.8
-12234.9
-4984.82
-11758.4
-6365.69
-11165
-7815.87
-10446.7
-9332.52
-9599
-10878.3
-8622.71
-12397.5
-7525.14
-13817.2
-6320.74
-15050.2
-5031.02
-16006.3
-3685.08
-16621.3
-2317.6
-16865.4
-956.784
-16723.6
375.617
-16243.7
1665.91
-15587
2879.85
-14594.5
3956.55
-13022.3
4862.12
-11121.6
5604.09
-9264.16
6219.91
-7727.44
6755.93
-6614.01
7245.76
-5858.81
7704.13
-5333
8136.39
-4946.87
8547.38
-4661.16
8943.1
-4452.59
9327.88
-4290.32
9702.35
-4137.99
10064
-3966.65
10409.4
-3761.75
10735.5
-3521.12
11040.3
-3249.59
11324.8
-2959.22
11594.7
-2678.41
11862.5
-2452
12140.2
-2303.53
12428.4
-2182.04
12710.8
-1962.56
12951.2
-1521.7
13069
-875.255
12917.6
-302.397
12373.8
-288.029
11573.7
-1191.13
10949.2
-2810.57
10931.5
-4369.73
11591.3
-4772.51
12659.9
-3496.7
13622.6
-790.556
13974.9
2159.1
13752.2
3946.95
13239.1
4542.69
12632.4
4622.5
12048.4
4624.82
11566
4606.11
11228.4
4351.99
11052.4
3408.25
11063.5
1027.73
11187
-2516.25
11302.4
-5421.37
11362.4
-7240.86
11367.4
-8364.21
11328.8
-9147.69
11259.3
-9750.64
11172.9
-10216.7
11086.4
-10544.8
11019
-10721.1
10992.7
-10730.6
11031.7
-10561.1
11162.5
-10203.3
11412.3
-9650.81
11806.7
-8900.46
12364.5
-7954.01
13089.7
-6823.15
13963.1
-5536.5
14935.2
-4148.2
15926.5
-2747.23
16838.6
-1450.48
17580.3
-387.999
18125.2
341.992
18517.1
732.913
18807.8
863.974
19038.8
864.955
19181.2
735.238
19248.7
1092.87
-280.455
-7984.68
6130.05
-8480.89
6295.84
-8985.11
6418.06
-9491.26
6530.13
-9996.53
6598.11
-10501.1
6641.48
-11007.7
6652.66
-11515.6
6580.86
-12011.7
6295.19
-12462
5597.44
-12809.2
4287.07
-12998.6
2424.63
-13033.4
505.122
-12958
-1098.44
-12790.7
-2510.49
-12526.7
-3915.75
-12160.8
-5350.8
-11687
-6839.43
-11097.1
-8405.81
-10382.4
-10047.2
-9538.13
-11722.6
-8564.64
-13371
-7469.11
-14912.7
-6266.11
-16253.2
-4977.75
-17294.6
-3634.06
-17965
-2271.07
-18228.4
-919.953
-18074.7
395.378
-17559.1
1668.09
-16859.7
2869.81
-15796.2
3936.38
-14088.9
4830.52
-12015.8
5559.79
-9993.43
6164.35
-8331.99
6693.51
-7143.17
7181.19
-6346.49
7639.9
-5791.7
8072.86
-5379.84
8484.65
-5072.95
8882.35
-4850.29
9271.17
-4679.13
9651.49
-4518.32
10020
-4335.15
10372.7
-4114.48
10707.3
-3855.71
11023.1
-3565.33
11319.8
-3255.95
11597.3
-2955.91
11856.5
-2711.23
12103
-2550.06
12349.3
-2428.3
12606.5
-2219.72
12850.9
-1766.12
12977.8
-1002.15
12796
-120.604
12129.6
378.302
11074.8
-136.311
10082.6
-1818.36
9690.28
-3977.39
10060.8
-5143.07
11039.7
-4475.58
12239.8
-1990.66
12984.1
1414.87
13017.2
3913.78
12632
4927.91
12101.3
5153.16
11586.4
5139.76
11179.8
5012.74
10926.3
4605.46
10848.9
3485.6
10987.3
889.329
11209
-2737.87
11374.3
-5586.72
11454.6
-7321.19
11466.6
-8376.13
11427.7
-9108.81
11351.3
-9674.3
11250.5
-10115.9
11140
-10434.3
11036.6
-10617.7
10958.9
-10652.9
10926.6
-10528.9
10960.7
-10237.4
11083.1
-9773.26
11316.7
-9134
11682.7
-8320.01
12196.5
-7337.03
12860.8
-6200.75
13656.4
-4943.82
14535.7
-3626.52
15426.5
-2341.31
16243.9
-1205.34
16920.7
-334.831
17446.3
207.345
17839.3
470.933
18123
581.262
18274.3
583.938
18535
832.174
-1129.16
-7918.41
6612.42
-8415.49
6792.92
-8919.81
6922.39
-9425.53
7035.84
-9929.18
7101.76
-10431.2
7143.51
-10935.4
7156.81
-11442.4
7087.88
-11939.9
6792.73
-12393.4
6050.94
-12742.4
4636.06
-12928.3
2610.52
-12955.7
532.501
-12874.6
-1179.47
-12704.2
-2680.9
-12439.1
-4180.85
-12073.3
-5716.6
-11601
-7311.78
-11013.2
-8993.61
-10300.9
-10759.5
-9458.75
-12564.7
-8486.89
-14342.8
-7392.36
-16007.3
-6189.84
-17455.7
-4902.14
-18582.3
-3560.32
-19306.8
-2201.96
-19586.7
-861.475
-19415.2
434.661
-18855.2
1687.16
-18112.2
2874.62
-16983.7
3929.09
-15143.3
4809.14
-12895.8
5522.43
-10706.7
6112.29
-8921.86
6631.25
-7662.13
7113.17
-6828.42
7567.77
-6246.29
7995.96
-5808.03
8401.54
-5478.54
8790.43
-5239.17
9164.31
-5053.02
9518.67
-4872.68
9847.05
-4663.53
10146.3
-4413.72
10418.4
-4127.78
10667.6
-3814.62
10894.2
-3482.51
11086.7
-3148.4
11225.6
-2850.16
11308.6
-2632.98
11385.4
-2505.18
11553.6
-2387.9
11859.7
-2072.15
12168.8
-1311.34
12194.5
-146.26
11689.2
883.622
10659.3
893.582
9489.29
-648.363
8832.7
-3320.8
8932.09
-5242.45
9668.59
-5212.09
10829.5
-3151.53
11815.9
428.399
12094.3
3635.38
11869.1
5153.11
11456
5566.27
11048.4
5547.44
10745.8
5315.27
10595
4756.31
10631.2
3449.34
10905.9
614.655
11225.5
-3057.46
11440.7
-5801.9
11545.1
-7425.63
11570.9
-8401.93
11540.6
-9078.55
11467.8
-9601.46
11364.1
-10012.2
11242.7
-10312.9
11119
-10494
11009.5
-10543.4
10930.9
-10450.3
10900.4
-10206.9
10935.2
-9808.09
11053.4
-9252.21
11273.9
-8540.5
11614.7
-7677.85
12088.9
-6674.89
12697.4
-5552.39
13420.7
-4349.74
14214.1
-3134.78
15015.6
-2006.8
15757.5
-1076.71
16383.7
-418.911
16850.9
3.7754
17157.4
274.789
17395.1
346.252
18124.5
102.708
-2452.71
-7845.51
7087.22
-8343.75
7291.15
-8847.97
7426.62
-9353.52
7541.39
-9855.8
7604.05
-10355.4
7643.13
-10857.1
7658.53
-11363.2
7593.92
-11862.2
7291.78
-12319.2
6507.86
-12670.1
4986.99
-12851.8
2792.21
-12870.5
551.231
-12782.5
-1267.44
-12607.7
-2855.7
-12340.1
-4448.49
-11973.1
-6083.64
-11500.7
-7784.13
-10913.7
-9580.61
-10202.5
-11470.7
-9361.35
-13405.9
-8390.07
-15314.1
-7295.66
-17101.7
-6092.92
-18658.5
-4805.34
-19869.9
-3465.13
-20647
-2111.65
-20940.2
-782.973
-20743.9
491.51
-20129.7
1721
-19341.7
2891.93
-18154.6
3931.68
-16183.1
4793.93
-13758
5486.45
-11399.2
6056.2
-9491.6
6558.83
-8164.76
7027.23
-7296.82
7466.81
-6685.87
7873.55
-6214.78
8244.57
-5849.56
8575.22
-5569.82
8855.25
-5333.05
9073.91
-5091.34
9228.96
-4818.58
9330.18
-4514.94
9395.86
-4193.46
9445.7
-3864.45
9489.6
-3526.42
9512.87
-3171.68
9473.33
-2810.62
9340.29
-2499.94
9177.51
-2342.4
9181.51
-2391.9
9543.97
-2434.61
10196.5
-1963.86
10725.4
-675.208
10671.8
937.297
9923.82
1641.52
8797
478.46
8039.7
-2563.51
8005.01
-5207.76
8553.21
-5760.29
9553.19
-4151.51
10620.4
-638.796
11090.6
3165.18
11028.5
5215.16
10754.4
5840.37
10475.6
5826.23
10292.1
5498.83
10253.2
4795.19
10416.1
3286.51
10830.6
200.15
11240.7
-3467.65
11500.8
-6061.9
11630.1
-7555
11674.6
-8446.4
11660
-9063.94
11599.1
-9540.56
11501.9
-9915.04
11380.3
-10191.3
11247.9
-10361.6
11120.1
-10415.6
11012.3
-10342.5
10939.1
-10133.7
10914.5
-9783.47
10952.2
-9289.93
11067.1
-8655.33
11275.2
-7885.99
11592.7
-6992.44
12031.5
-5991.1
12591.7
-4909.96
13255.3
-3798.36
13982.7
-2734.19
14711.6
-1805.69
15353.8
-1061.06
15818
-460.426
16165
-72.2569
16794.3
-283.042
18307.9
-1410.85
-4195.38
-7770.64
7581.02
-8265.68
7786.19
-8770.2
7931.14
-9275.75
8046.95
-9776.99
8105.28
-10274.4
8140.51
-10773.6
8157.79
-11278.6
8098.9
-11779.2
7792.39
-12239.9
6968.5
-12592.9
5339.98
-12769.6
2968.97
-12778.3
559.895
-12682
-1363.71
-12501.4
-3036.32
-12229.8
-4720.1
-11860
-6453.39
-11386.3
-8257.91
-10798.7
-10168.1
-10087.4
-12182
-9246.16
-14247.1
-8274.59
-16285.7
-7179.61
-18196.6
-5976.16
-19861.9
-4688.4
-21157.7
-3349.67
-21985.8
-2001.36
-22288.5
-685.944
-22059.3
564.152
-21379.8
1767.71
-20545.2
2919.42
-19306.3
3940.83
-17204.5
4779.86
-14597.1
5444.37
-12063.8
5984.93
-10032.2
6459.19
-8639.02
6896.03
-7733.65
7291.21
-7081.05
7626.24
-6549.81
7878.64
-6101.96
8025.71
-5716.89
8054.61
-5361.94
7975.03
-5011.76
7819.86
-4663.41
7632.24
-4327.32
7451.61
-4012.82
7306.89
-3719.74
7211.65
-3431.18
7152.17
-3112.2
7077.46
-2735.92
6928.86
-2351.33
6727.67
-2141.21
6636.41
-2300.64
6888.07
-2686.28
7608.66
-2684.45
8569.26
-1635.81
9105.09
401.466
8795.63
1950.98
7909.73
1364.36
7217.84
-1871.62
7161.79
-5151.71
7596.73
-6195.23
8422.75
-4977.53
9469.2
-1685.24
10080.4
2553.98
10170.9
5124.66
10042
5969.25
9899.69
5968.56
9838.07
5560.45
9912.07
4721.18
10215.1
2983.48
10769.7
-354.403
11258.1
-3956.08
11554.7
-6358.53
11707.8
-7708.08
11773.9
-8512.51
11780.2
-9070.25
11738.1
-9498.42
11655.5
-9832.41
11542
-10077.8
11410
-10229.7
11273.7
-10279.3
11147.6
-10216.4
11045.5
-10031.6
10979.6
-9717.52
10960.8
-9271.18
11000.6
-8695.13
11112.4
-7997.72
11311.9
-7191.95
11615.6
-6294.8
12035.3
-5329.67
12569.5
-4332.63
13189.3
-3353.94
13818.7
-2435.1
14337.7
-1580.04
14743.9
-866.629
15461.5
-789.862
16998.7
-1820.25
19241.4
-3653.57
-6002.55
-7689.8
8066.63
-8182.19
8278.58
-8686.93
8435.88
-9192.65
8552.67
-9693.2
8605.83
-10188.6
8635.9
-10685.4
8654.6
-11189.2
8602.73
-11691.4
8294.6
-12156
7433.1
-12511.2
5695.1
-12682.1
3139.86
-12679
556.871
-12572.9
-1469.8
-12385
-3224.22
-12108
-4997.18
-11734
-6827.36
-11257.4
-8734.52
-10668
-10757.5
-9955.5
-12894.5
-9113.26
-15089.4
-8140.75
-17258.2
-7044.81
-19292.6
-5840.47
-21066.2
-4552.47
-22445.7
-3215.27
-23323
-1872.43
-23631.3
-571.846
-23359.9
651.033
-22602.7
1825.6
-21719.8
2954.63
-20435.3
3952.47
-18202.3
4760.23
-15404.8
5385.3
-12688.8
5880.53
-10527.4
6301.38
-9059.87
6664.69
-8096.97
6944.75
-7361.12
7096.78
-6701.84
7081.27
-6086.45
6891.85
-5527.47
6574.44
-5044.53
6213.76
-4651.07
5892.76
-4342.42
5660.27
-4094.83
5526.83
-3879.38
5479.46
-3672.37
5497.4
-3449.13
5558.19
-3172.98
5635.4
-2813.13
5699.84
-2415.77
5728.35
-2169.73
5724.07
-2296.36
5777.44
-2739.65
6102.49
-3009.49
6839.15
-2372.47
7553.34
-312.721
7574.31
1930.01
6988.22
1950.46
6454.99
-1338.39
6409.92
-5106.64
6753.42
-6538.74
7423.07
-5647.18
8391.72
-2653.89
9106.51
1839.19
9335.82
4895.35
9348.91
5956.16
9339.27
5978.2
9393.14
5506.58
9579.31
4535.01
10040.3
2522.53
10730.2
-1044.33
11279.8
-4505.72
11603.3
-6681.97
11777.8
-7882.59
11867.1
-8601.83
11898
-9101.22
11880
-9480.37
11818.4
-9770.84
11720.5
-9979.82
11596.1
-10105.3
11457.9
-10141.1
11319.5
-10077.9
11193.8
-9905.95
11092.6
-9616.25
11025.5
-9204.15
11002.5
-8672.05
11035
-8030.23
11138.1
-7295.09
11328.9
-6485.59
11620.1
-5620.92
12006.1
-4718.59
12441.2
-3789.01
12836
-2829.97
13223.3
-1967.32
14073.7
-1716.98
15872.1
-2588.28
18297.4
-4245.52
20591.7
-5947.93
-7478.06
-7603.59
8541.58
-8094.06
8769.05
-8598.52
8940.34
-9104.56
9058.71
-9604.8
9106.08
-10098.5
9129.59
-10592.9
9148.99
-11095.4
9105.26
-11599.2
8798.42
-12068.1
7901.91
-12425.2
6052.28
-12589.1
3303.73
-12572.5
540.313
-12455
-1587.31
-12258.3
-3420.96
-11974.2
-5281.29
-11594.5
-7207.06
-11113.7
-9215.34
-10521.4
-11349.8
-9806.65
-13609.2
-8962.74
-15933.3
-7988.92
-18232
-6891.99
-20389.5
-5686.94
-22271.3
-4398.97
-23733.6
-3063.51
-24658.4
-1726.45
-24968.4
-442.204
-24644.1
750.766
-23795.6
1893.03
-22862.1
2994.73
-21537
3961.4
-19169
4725.65
-16169.1
5292.52
-13255.7
5712.52
-10947.4
6029.08
-9376.43
6234.45
-8302.34
6276.16
-7402.83
6105.25
-6530.93
5733.35
-5714.56
5265.14
-5059.25
4857.87
-4637.27
4626.8
-4420.01
4589.1
-4304.72
4689.71
-4195.43
4858.2
-4047.87
5042.07
-3856.25
5213.84
-3620.9
5369.84
-3328.98
5524.13
-2967.42
5685.28
-2576.92
5816.72
-2301.16
5842.18
-2321.82
5755.19
-2652.66
5717.96