/*--------------------------------*- C++ -*----------------------------------*\
| =========                 |                                                 |
| \\      /  F ield         | OpenFOAM: The Open Source CFD Toolbox           |
|  \\    /   O peration     | Version:  4.1                                   |
|   \\  /    A nd           | Web:      www.OpenFOAM.org                      |
|    \\/     M anipulation  |                                                 |
\*---------------------------------------------------------------------------*/
FoamFile
{
    version     2.0;
    format      ascii;
    class       volVectorField;
    location    "1900";
    object      U;
}
// * * * * * * * * * * * * * * * * * * * * * * * * * * * * * * * * * * * * * //

dimensions      [0 1 -1 0 0 0 0];

internalField   nonuniform List<vector> 
26785
(
(-1.10261e-13 0.0275748 -60.9369)
(-1.06129e-13 0.0417105 -61.9144)
(-1.02541e-13 0.0424982 -62.9394)
(-1.02941e-13 0.0467517 -64.0008)
(-9.82158e-14 0.0488799 -65.1049)
(-9.93132e-14 0.0499745 -66.2064)
(-9.61529e-14 0.04896 -67.2828)
(-1.00557e-13 0.0444702 -68.2851)
(-9.85672e-14 0.0335673 -69.1335)
(-1.12229e-13 0.0122647 -69.6842)
(-1.17884e-13 -0.0230518 -69.7217)
(-1.23897e-13 -0.0704172 -69.0307)
(-1.30123e-13 -0.120536 -67.539)
(-1.35704e-13 -0.165836 -65.3501)
(-1.40849e-13 -0.205489 -62.5965)
(-1.45776e-13 -0.242068 -59.366)
(-1.50423e-13 -0.277517 -55.7052)
(-1.54545e-13 -0.312984 -51.6384)
(-1.57278e-13 -0.349023 -47.1766)
(-1.60417e-13 -0.385551 -42.325)
(-1.45672e-13 -0.421357 -37.0953)
(-1.49424e-13 -0.45453 -31.5157)
(-1.49805e-13 -0.482269 -25.6395)
(-1.12465e-13 -0.500275 -19.5508)
(-1.05456e-13 -0.509487 -13.3511)
(-4.76471e-14 -0.552348 -7.20882)
(-2.68699e-14 -0.633086 -1.01273)
(-1.93455e-14 -0.576214 4.60415)
(-1.12518e-13 -0.465017 9.15649)
(-1.60292e-13 -0.42192 13.7313)
(-2.15693e-13 -0.38721 18.0381)
(-1.8766e-13 -0.344283 21.9258)
(-1.73605e-13 -0.293349 25.2353)
(-1.33563e-13 -0.239932 27.9167)
(-1.46305e-13 -0.191398 30.023)
(-1.33367e-13 -0.152675 31.6631)
(-1.0977e-13 -0.123959 32.9564)
(-8.63027e-14 -0.102942 34.0017)
(-6.64881e-14 -0.08743 34.8686)
(-5.67102e-14 -0.0759615 35.6045)
(-3.82091e-14 -0.0673979 36.2435)
(-3.39949e-14 -0.0606626 36.809)
(-3.48191e-14 -0.054777 37.3145)
(-5.38366e-14 -0.0489734 37.7649)
(-6.54666e-14 -0.042759 38.1595)
(-8.23956e-14 -0.0359059 38.4944)
(-9.15712e-14 -0.028401 38.7656)
(-9.64425e-14 -0.0204202 38.9696)
(-9.81111e-14 -0.0123333 39.1056)
(-9.88918e-14 -0.0045607 39.1766)
(-9.12059e-14 0.00284858 39.1881)
(-8.79624e-14 0.0105898 39.1439)
(-8.29648e-14 0.019826 39.0391)
(-7.82523e-14 0.0308596 38.8602)
(-7.51144e-14 0.0412319 38.5963)
(-7.13205e-14 0.0451106 38.2676)
(-7.56029e-14 0.0365615 37.9485)
(-7.23891e-14 0.0163964 37.7461)
(-6.45383e-14 -0.00471931 37.7201)
(-6.69514e-14 -0.0127017 37.8179)
(-6.51748e-14 4.26115e-05 37.9037)
(-6.09647e-14 0.0322106 37.8418)
(-5.30479e-14 0.0765305 37.5413)
(-5.08463e-14 0.119101 36.9779)
(-5.11499e-14 0.148013 36.176)
(-4.96351e-14 0.166719 35.1567)
(-5.07315e-14 0.190875 33.9352)
(-5.43084e-14 0.219825 32.6171)
(-5.99987e-14 0.211263 31.4929)
(-6.34841e-14 0.108171 30.9784)
(-7.31071e-14 -0.0905179 31.3905)
(-7.33457e-14 -0.321345 32.8063)
(-6.83471e-14 -0.513838 35.1779)
(-6.28599e-14 -0.634279 38.368)
(-5.9754e-14 -0.683368 42.1292)
(-5.45768e-14 -0.673499 46.1393)
(-5.64941e-14 -0.618741 50.0677)
(-6.07215e-14 -0.53304 53.6316)
(-6.54645e-14 -0.429344 56.6277)
(-7.07473e-14 -0.318896 58.9417)
(-7.60785e-14 -0.211133 60.5427)
(-8.30048e-14 -0.113743 61.4683)
(-8.81677e-14 -0.0320814 61.8055)
(-9.23097e-14 0.0319012 61.6698)
(-9.63708e-14 0.0795426 61.1829)
(-9.82229e-14 0.113217 60.4567)
(-9.91374e-14 0.135195 59.5845)
(-9.95211e-14 0.148037 58.6381)
(-9.96309e-14 0.154551 57.6674)
(-9.89955e-14 0.157329 56.7028)
(-9.73329e-14 0.158385 55.7597)
(-9.50125e-14 0.15899 54.8433)
(-9.20408e-14 0.159772 53.9528)
(-8.85036e-14 0.160728 53.0848)
(-8.42848e-14 0.161857 52.238)
(-8.02352e-14 0.162211 51.4036)
(-7.54114e-14 0.163193 50.6056)
(-7.07709e-14 0.160186 49.7653)
(-6.59891e-14 0.165134 49.1381)
(-6.18074e-14 0.150274 48.0028)
(-8.1953e-14 0.104922 -62.0265)
(-7.97436e-14 0.141072 -63.1706)
(-7.27629e-14 0.146293 -64.3955)
(-6.98358e-14 0.159893 -65.6495)
(-6.50138e-14 0.167071 -66.9441)
(-7.18026e-14 0.170593 -68.2294)
(-6.84992e-14 0.167322 -69.4832)
(-7.22767e-14 0.152871 -70.6579)
(-7.76829e-14 0.117961 -71.6743)
(-7.72353e-14 0.050161 -72.3866)
(-7.63375e-14 -0.0612262 -72.5738)
(-7.36341e-14 -0.20915 -72.0122)
(-6.95249e-14 -0.363455 -70.6226)
(-6.43162e-14 -0.499651 -68.517)
(-6.13267e-14 -0.61754 -65.8529)
(-5.27349e-14 -0.727229 -62.715)
(-4.79975e-14 -0.834323 -59.1432)
(-4.96966e-14 -0.941697 -55.1611)
(-4.75922e-14 -1.0512 -50.7785)
(-5.9187e-14 -1.16282 -46.0001)
(-7.57153e-14 -1.27351 -40.8365)
(-7.66027e-14 -1.3784 -35.3133)
(-9.96354e-14 -1.46995 -29.4773)
(-7.7104e-14 -1.53433 -23.3991)
(-9.08001e-14 -1.55639 -17.1574)
(-7.92442e-14 -1.57524 -10.8987)
(-3.18348e-14 -1.62757 -4.89934)
(-1.41368e-14 -1.52532 0.845516)
(-1.36187e-14 -1.32039 6.12935)
(-8.20537e-14 -1.25557 10.9259)
(-6.6872e-14 -1.1888 15.4079)
(-4.16713e-14 -1.05953 19.4067)
(-2.06525e-14 -0.895917 22.7712)
(-5.00891e-15 -0.729137 25.4774)
(-2.38194e-14 -0.581802 27.5982)
(-3.66273e-14 -0.465368 29.2491)
(-4.23251e-14 -0.379162 30.5516)
(-5.06124e-14 -0.316354 31.6063)
(-6.16447e-14 -0.270367 32.4837)
(-7.20316e-14 -0.236611 33.2314)
(-8.66338e-14 -0.211531 33.8835)
(-7.9384e-14 -0.191857 34.4635)
(-7.96469e-14 -0.174633 34.9845)
(-7.22509e-14 -0.157525 35.4512)
(-6.78334e-14 -0.139043 35.8622)
(-5.81676e-14 -0.11852 36.2135)
(-6.10918e-14 -0.0959506 36.5005)
(-4.97573e-14 -0.0719076 36.7196)
(-5.22374e-14 -0.0475561 36.8698)
(-3.18408e-14 -0.0242402 36.9544)
(-2.89554e-14 -0.0022162 36.9795)
(-2.62497e-14 0.0205369 36.9501)
(-1.78701e-14 0.0477114 36.8629)
(-2.46907e-14 0.0809137 36.7037)
(-1.78795e-14 0.113565 36.4566)
(-1.11253e-14 0.127708 36.1334)
(-1.84262e-14 0.103172 35.8072)
(-2.76083e-14 0.0406895 35.5968)
(-2.56701e-14 -0.025606 35.5763)
(-2.8093e-14 -0.0503125 35.695)
(-2.60989e-14 -0.0141181 35.8158)
(-3.17129e-14 0.0688924 35.8185)
(-3.45331e-14 0.175825 35.6308)
(-3.01435e-14 0.288216 35.1914)
(-3.04923e-14 0.403933 34.442)
(-3.10047e-14 0.521181 33.3847)
(-3.62235e-14 0.597476 32.1798)
(-3.97959e-14 0.547374 31.1438)
(-6.26958e-14 0.309936 30.5306)
(-6.34221e-14 -0.075099 30.2745)
(-4.83731e-14 -0.494351 30.1361)
(-4.25432e-14 -0.907696 30.2276)
(-3.24092e-14 -1.32288 31.0729)
(-2.63579e-14 -1.70523 33.0582)
(-2.10852e-14 -1.98004 36.1321)
(-2.38707e-14 -2.09042 39.9786)
(-2.49061e-14 -2.02563 44.217)
(-2.3895e-14 -1.81073 48.4788)
(-2.66147e-14 -1.48949 52.4336)
(-2.9666e-14 -1.1116 55.817)
(-3.37331e-14 -0.723227 58.4551)
(-4.22205e-14 -0.36097 60.2748)
(-5.17845e-14 -0.0495231 61.2941)
(-6.06928e-14 0.197492 61.5987)
(-6.98488e-14 0.376594 61.319)
(-7.9891e-14 0.493725 60.6228)
(-8.89477e-14 0.560928 59.669)
(-9.60502e-14 0.591526 58.5796)
(-1.00364e-13 0.597845 57.4397)
(-1.03363e-13 0.590101 56.3032)
(-1.04828e-13 0.5759 55.2003)
(-1.04906e-13 0.560169 54.145)
(-1.03225e-13 0.545647 53.1408)
(-1.01638e-13 0.532967 52.1855)
(-9.85724e-14 0.522583 51.2764)
(-9.39073e-14 0.511844 50.4026)
(-8.90299e-14 0.504984 49.5838)
(-8.44268e-14 0.488262 48.7407)
(-7.92002e-14 0.49637 48.115)
(-7.5849e-14 0.446047 47.0141)
(-5.82688e-14 0.197972 -63.2378)
(-5.27649e-14 0.249024 -64.4618)
(-6.17381e-14 0.259754 -65.8203)
(-5.55892e-14 0.281169 -67.1648)
(-5.9009e-14 0.292307 -68.5212)
(-6.77079e-14 0.29712 -69.8368)
(-6.34007e-14 0.290946 -71.0937)
(-6.86418e-14 0.26651 -72.2493)
(-6.75816e-14 0.208252 -73.2312)
(-6.38978e-14 0.0951928 -73.901)
(-5.69843e-14 -0.0906058 -74.0491)
(-4.87168e-14 -0.337337 -73.4667)
(-4.06955e-14 -0.594156 -72.091)
(-3.41777e-14 -0.819995 -70.0429)
(-2.85098e-14 -1.01559 -67.4526)
(-2.67603e-14 -1.19834 -64.3887)
(-1.94127e-14 -1.3772 -60.8936)
(-2.45836e-14 -1.55678 -56.9877)
(-1.50844e-14 -1.74004 -52.6798)
(-2.54697e-14 -1.92687 -47.9744)
(-1.67385e-14 -2.11239 -42.8826)
(-3.36635e-14 -2.28922 -37.4316)
(-6.57809e-14 -2.44718 -31.6697)
(-5.68107e-14 -2.56946 -25.6679)
(-5.8137e-14 -2.63375 -19.5055)
(-6.31085e-14 -2.657 -13.3047)
(-5.70242e-14 -2.67217 -7.28043)
(-1.92087e-15 -2.54888 -1.44005)
(-2.70642e-14 -2.31805 4.04555)
(-6.05876e-14 -2.17675 9.02131)
(-7.41562e-14 -2.02565 13.6137)
(-3.32904e-14 -1.78691 17.6835)
(-5.51375e-14 -1.50475 21.0924)
(-7.42165e-14 -1.22317 23.8243)
(-7.99487e-14 -0.976712 25.9606)
(-7.74647e-14 -0.78296 27.6246)
(-7.53064e-14 -0.639975 28.9424)
(-7.4977e-14 -0.53599 30.0158)
(-7.1326e-14 -0.459904 30.9147)
(-6.7979e-14 -0.404065 31.686)
(-6.47723e-14 -0.362589 32.363)
(-5.98499e-14 -0.33004 32.9686)
(-5.29403e-14 -0.301453 33.5152)
(-4.63116e-14 -0.272905 34.0068)
(-4.02052e-14 -0.24191 34.441)
(-3.59763e-14 -0.207392 34.8131)
(-3.33968e-14 -0.169393 35.1183)
(-3.18288e-14 -0.128917 35.353)
(-3.10512e-14 -0.0879774 35.5163)
(-3.15955e-14 -0.0489513 35.6121)
(-3.28291e-14 -0.0124605 35.6476)
(-3.50775e-14 0.0247568 35.6291)
(-3.72099e-14 0.0692259 35.5546)
(-3.92992e-14 0.124843 35.4083)
(-3.84205e-14 0.181983 35.1695)
(-4.27159e-14 0.20991 34.8443)
(-5.08091e-14 0.171088 34.5094)
(-4.93983e-14 0.0638956 34.3012)
(-5.74452e-14 -0.0527071 34.3109)
(-5.64985e-14 -0.100702 34.4921)
(-5.3463e-14 -0.0501876 34.7018)
(-5.47462e-14 0.0766145 34.795)
(-5.62536e-14 0.257512 34.6289)
(-5.45736e-14 0.474733 34.0782)
(-6.11078e-14 0.696396 33.15)
(-6.54127e-14 0.858551 32.0512)
(-6.04163e-14 0.879803 31.0839)
(-5.97349e-14 0.733412 30.3653)
(-5.5039e-14 0.490155 29.6183)
(-4.37269e-14 0.232465 28.3799)
(-3.00074e-14 -0.0959748 26.632)
(-2.78256e-14 -0.683665 25.1672)
(-2.76141e-14 -1.54639 24.9148)
(-3.23111e-14 -2.43977 26.0421)
(-4.23379e-14 -3.13467 28.2157)
(-4.38534e-14 -3.54145 31.1404)
(-4.18607e-14 -3.65361 34.6422)
(-3.69857e-14 -3.49343 38.5612)
(-3.1388e-14 -3.10133 42.6817)
(-2.6031e-14 -2.53759 46.7304)
(-2.13816e-14 -1.87668 50.4187)
(-1.75846e-14 -1.19442 53.5002)
(-1.73138e-14 -0.555444 55.8145)
(-1.99981e-14 -0.00751632 57.3055)
(-2.50568e-14 0.419836 58.01)
(-3.32021e-14 0.71723 58.0326)
(-4.28881e-14 0.899269 57.549)
(-5.27659e-14 0.993344 56.7401)
(-6.16679e-14 1.02702 55.7515)
(-6.99777e-14 1.02343 54.6856)
(-7.59783e-14 0.99994 53.608)
(-8.02966e-14 0.968231 52.5562)
(-8.36576e-14 0.935434 51.549)
(-8.47839e-14 0.904448 50.5935)
(-8.41354e-14 0.877362 49.6915)
(-8.22822e-14 0.850494 48.8348)
(-7.98942e-14 0.831346 48.041)
(-7.73761e-14 0.797706 47.2362)
(-7.37896e-14 0.804375 46.6415)
(-7.30027e-14 0.718185 45.6207)
(-4.56875e-14 0.308485 -64.1456)
(-4.64142e-14 0.362516 -65.4045)
(-4.86066e-14 0.378284 -66.8072)
(-5.48327e-14 0.403825 -68.1577)
(-6.33506e-14 0.415824 -69.4973)
(-6.32847e-14 0.418969 -70.7795)
(-6.45708e-14 0.407556 -71.9969)
(-6.06079e-14 0.371551 -73.1166)
(-5.06623e-14 0.289326 -74.0739)
(-3.9332e-14 0.131686 -74.7363)
(-2.73712e-14 -0.126202 -74.895)
(-1.79265e-14 -0.467783 -74.3361)
(-1.32919e-14 -0.822215 -72.9919)
(-8.61731e-15 -1.13391 -70.9855)
(-1.00462e-14 -1.40572 -68.4515)
(-8.0173e-15 -1.66097 -65.4498)
(-7.96989e-15 -1.91125 -62.0196)
(-8.17329e-15 -2.16313 -58.1796)
(-1.55866e-14 -2.42054 -53.937)
(-1.19033e-14 -2.68319 -49.2953)
(-2.1042e-14 -2.94408 -44.2649)
(-3.68898e-14 -3.19264 -38.8728)
(-5.55718e-14 -3.41449 -33.1677)
(-5.75961e-14 -3.58844 -27.2203)
(-5.77469e-14 -3.68979 -21.1113)
(-5.38648e-14 -3.72912 -14.9556)
(-4.44531e-14 -3.73025 -8.93846)
(2.05187e-15 -3.5833 -3.11618)
(-1.71437e-14 -3.30973 2.4548)
(-7.2892e-14 -3.09197 7.57498)
(-7.48448e-14 -2.86182 12.2464)
(-5.23687e-14 -2.52242 16.3776)
(-6.91805e-14 -2.12297 19.8221)
(-4.74977e-14 -1.72447 22.5738)
(-6.39969e-14 -1.37764 24.7233)
(-4.54724e-14 -1.10653 26.4002)
(-5.56878e-14 -0.907237 27.7342)
(-7.11283e-14 -0.762641 28.828)
(-5.36555e-14 -0.656946 29.7506)
(-6.22569e-14 -0.579366 30.5475)
(-5.98076e-14 -0.52167 31.251)
(-4.00755e-14 -0.476235 31.8832)
(-3.24507e-14 -0.436054 32.4559)
(-4.79314e-14 -0.395602 32.9719)
(-5.41889e-14 -0.35143 33.4283)
(-6.00072e-14 -0.302119 33.8199)
(-5.96126e-14 -0.247843 34.1415)
(-5.24261e-14 -0.190111 34.3895)
(-4.97599e-14 -0.131876 34.5636)
(-6.19619e-14 -0.0766821 34.6681)
(-6.36071e-14 -0.0256218 34.7116)
(-7.67752e-14 0.0258787 34.7024)
(-7.31604e-14 0.0876129 34.639)
(-6.47172e-14 0.166529 34.5043)
(-6.4992e-14 0.250261 34.2713)
(-6.42042e-14 0.29368 33.9404)
(-7.88816e-14 0.238259 33.5961)
(-8.06017e-14 0.0780098 33.4013)
(-8.83568e-14 -0.101055 33.4728)
(-8.56956e-14 -0.182935 33.7594)
(-8.96635e-14 -0.11713 34.082)
(-8.29216e-14 0.0784623 34.2392)
(-7.30403e-14 0.377548 34.0308)
(-6.83015e-14 0.720802 33.3566)
(-6.86885e-14 1.0068 32.368)
(-5.97853e-14 1.14359 31.3687)
(-6.15855e-14 1.11354 30.5406)
(-6.73732e-14 1.00368 29.7572)
(-6.35814e-14 0.92406 28.6991)
(-5.61226e-14 0.844453 27.1791)
(-4.04837e-14 0.507931 25.4001)
(-4.8312e-14 -0.379988 24.0317)
(-4.73797e-14 -1.65238 23.6768)
(-5.60822e-14 -2.87101 24.2427)
(-5.77503e-14 -3.80422 25.4134)
(-4.35671e-14 -4.42647 27.0442)
(-3.97385e-14 -4.75793 29.1409)
(-3.20745e-14 -4.80196 31.7425)
(-3.14661e-14 -4.55781 34.8341)
(-3.12967e-14 -4.04585 38.3036)
(-3.09889e-14 -3.31925 41.94)
(-3.04322e-14 -2.45887 45.4687)
(-2.82804e-14 -1.55734 48.6101)
(-2.75592e-14 -0.701927 51.1391)
(-2.54488e-14 0.0369595 52.9218)
(-2.49614e-14 0.61339 53.923)
(-2.59856e-14 1.00889 54.1991)
(-2.94856e-14 1.24436 53.9209)
(-3.39743e-14 1.36031 53.2806)
(-4.03042e-14 1.39665 52.4358)
(-4.48569e-14 1.38556 51.4973)
(-4.95602e-14 1.34981 50.5358)
(-5.37263e-14 1.30422 49.5923)
(-5.62117e-14 1.25634 48.6882)
(-5.74638e-14 1.21163 47.8336)
(-5.69032e-14 1.16644 47.0267)
(-5.58082e-14 1.13251 46.2838)
(-5.38591e-14 1.07957 45.5407)
(-5.09202e-14 1.08084 44.9937)
(-5.10644e-14 0.958601 44.0776)
(-3.83227e-14 0.431006 -64.6993)
(-4.84317e-14 0.478041 -65.9818)
(-5.69574e-14 0.498907 -67.3843)
(-5.9739e-14 0.526831 -68.7166)
(-6.31196e-14 0.539248 -70.029)
(-6.51155e-14 0.541165 -71.2832)
(-5.24968e-14 0.525895 -72.4786)
(-4.48959e-14 0.480329 -73.5866)
(-3.14583e-14 0.376314 -74.5441)
(-1.98628e-14 0.175785 -75.218)
(-1.24606e-14 -0.153662 -75.3947)
(-8.45029e-15 -0.590744 -74.8535)
(-1.15345e-14 -1.04313 -73.5273)
(-1.02226e-14 -1.43955 -71.5501)
(-1.35259e-14 -1.78608 -69.0616)
(-1.6082e-14 -2.11307 -66.1118)
(-1.16742e-14 -2.43444 -62.7377)
(-1.09179e-14 -2.75846 -58.9561)
(-9.65054e-15 -3.09009 -54.7723)
(-1.13849e-14 -3.42885 -50.1884)
(-1.42879e-14 -3.76573 -45.214)
(-1.97593e-14 -4.08718 -39.8753)
(-4.39154e-14 -4.37499 -34.2206)
(-6.06292e-14 -4.60341 -28.3199)
(-7.2546e-14 -4.74334 -22.2548)
(-7.17176e-14 -4.79828 -16.1354)
(-7.69474e-14 -4.78813 -10.1311)
(-8.65238e-15 -4.62405 -4.32263)
(-1.34433e-14 -4.31838 1.27436)
(-7.12452e-14 -4.0358 6.46753)
(-8.37095e-14 -3.72076 11.192)
(-8.37204e-14 -3.27163 15.3672)
(-7.03723e-14 -2.74697 18.8361)
(-3.09823e-14 -2.22786 21.6004)
(-3.71066e-14 -1.77985 23.758)
(-4.424e-14 -1.43196 25.444)
(-5.24749e-14 -1.17745 26.7918)
(-5.76683e-14 -0.99328 27.9049)
(-6.02159e-14 -0.858665 28.8505)
(-5.69345e-14 -0.759702 29.6722)
(-5.50215e-14 -0.685923 30.4013)
(-5.50379e-14 -0.627563 31.0592)
(-7.31001e-14 -0.57556 31.6568)
(-8.84544e-14 -0.522788 32.196)
(-9.85164e-14 -0.46488 32.6733)
(-1.04875e-13 -0.400149 33.0829)
(-1.08004e-13 -0.328959 33.4195)
(-1.095e-13 -0.253367 33.6797)
(-1.06419e-13 -0.177339 33.8633)
(-1.14856e-13 -0.105746 33.9756)
(-1.14642e-13 -0.0403344 34.027)
(-1.23039e-13 0.0248175 34.028)
(-1.24892e-13 0.103311 33.9789)
(-1.24652e-13 0.206231 33.8599)
(-1.28694e-13 0.319151 33.6355)
(-1.2206e-13 0.380473 33.2971)
(-1.17846e-13 0.305077 32.9402)
(-1.05258e-13 0.0798856 32.7702)
(-9.90924e-14 -0.175462 32.9349)
(-8.67661e-14 -0.295114 33.3498)
(-9.36532e-14 -0.201304 33.7655)
(-9.92998e-14 0.0854162 33.9368)
(-1.03837e-13 0.516198 33.6661)
(-1.07188e-13 0.971181 32.9289)
(-1.0084e-13 1.29584 31.9544)
(-1.15261e-13 1.41351 31.0082)
(-1.13527e-13 1.37363 30.1618)
(-1.1535e-13 1.31192 29.2694)
(-1.01468e-13 1.32071 28.1524)
(-9.25032e-14 1.30487 26.7899)
(-8.14175e-14 0.952307 25.3205)
(-7.45192e-14 -0.0984646 24.0307)
(-5.87274e-14 -1.62158 23.4499)
(-4.69994e-14 -3.04879 23.5882)
(-2.72372e-14 -4.13303 24.1606)
(-1.31997e-14 -4.89428 25.0065)
(-1.44741e-14 -5.38925 26.1269)
(-1.23059e-14 -5.62932 27.6045)
(-1.58677e-14 -5.59503 29.53)
(-1.81474e-14 -5.26941 31.9466)
(-2.13979e-14 -4.66203 34.8107)
(-2.79722e-14 -3.81915 37.9762)
(-2.92423e-14 -2.82035 41.2112)
(-3.13645e-14 -1.76482 44.243)
(-3.57337e-14 -0.753833 46.8189)
(-3.89107e-14 0.125288 48.7526)
(-4.02734e-14 0.810089 49.9435)
(-4.14768e-14 1.27217 50.402)
(-4.37056e-14 1.53945 50.2894)
(-4.5871e-14 1.6646 49.8018)
(-4.93112e-14 1.69783 49.1011)
(-5.22212e-14 1.67764 48.3004)
(-5.48053e-14 1.63045 47.4709)
(-5.62305e-14 1.57147 46.6549)
(-5.62051e-14 1.51158 45.8742)
(-5.49887e-14 1.44846 45.1373)
(-5.21538e-14 1.39951 44.4598)
(-4.96546e-14 1.32587 43.7915)
(-4.6186e-14 1.31995 43.3018)
(-4.84408e-14 1.16213 42.5012)
(-4.07722e-14 0.542937 -64.9635)
(-4.48272e-14 0.598779 -66.2778)
(-5.49727e-14 0.620864 -67.6709)
(-5.75017e-14 0.650705 -68.9901)
(-5.85768e-14 0.663205 -70.2874)
(-5.15551e-14 0.664024 -71.5287)
(-3.99279e-14 0.64529 -72.716)
(-3.01706e-14 0.590684 -73.8216)
(-1.83957e-14 0.465443 -74.7838)
(-1.37694e-14 0.222522 -75.47)
(-1.12877e-14 -0.178196 -75.6633)
(-1.37431e-14 -0.710522 -75.1359)
(-2.01417e-14 -1.25974 -73.8207)
(-2.53103e-14 -1.73886 -71.8631)
(-2.93905e-14 -2.15845 -69.4107)
(-3.23176e-14 -2.5562 -66.5044)
(-3.34996e-14 -2.94798 -63.1788)
(-3.42572e-14 -3.34377 -59.4489)
(-2.7463e-14 -3.74953 -55.318)
(-1.85776e-14 -4.1645 -50.7866)
(-1.79045e-14 -4.57755 -45.8626)
(-1.9437e-14 -4.97195 -40.5716)
(-1.508e-14 -5.32555 -34.961)
(-4.1428e-14 -5.60848 -29.1002)
(-7.376e-14 -5.78818 -23.0718)
(-6.99669e-14 -5.86178 -16.9835)
(-7.63184e-14 -5.84392 -10.9946)
(-5.18881e-14 -5.66316 -5.20118)
(-1.30915e-14 -5.3273 0.392662)
(-6.95313e-14 -4.98303 5.61642)
(-7.49929e-14 -4.58229 10.3747)
(-8.20756e-14 -4.02226 14.578)
(-5.31111e-14 -3.37179 18.0608)
(-4.79794e-14 -2.73216 20.8304)
(-4.71644e-14 -2.18361 22.9902)
(-4.59184e-14 -1.76007 24.6805)
(-5.21479e-14 -1.45169 26.039)
(-5.63436e-14 -1.22902 27.1693)
(-6.0712e-14 -1.06614 28.1365)
(-5.82299e-14 -0.946107 28.9819)
(-7.83434e-14 -0.856334 29.7355)
(-9.64445e-14 -0.784961 30.4179)
(-1.00802e-13 -0.720852 31.0395)
(-1.17488e-13 -0.655271 31.6012)
(-1.21941e-13 -0.582982 32.0988)
(-1.17601e-13 -0.502105 32.526)
(-1.12316e-13 -0.413262 32.8775)
(-1.05446e-13 -0.319103 33.1502)
(-9.91801e-14 -0.224709 33.3441)
(-9.24572e-14 -0.136523 33.4653)
(-8.53001e-14 -0.0572104 33.5266)
(-7.79613e-14 0.0205443 33.5419)
(-7.27795e-14 0.11491 33.5132)
(-7.14729e-14 0.242769 33.4158)
(-7.23332e-14 0.388756 33.1984)
(-6.88373e-14 0.471485 32.8376)
(-5.68205e-14 0.370715 32.4587)
(-3.5359e-14 0.0634721 32.3546)
(-2.3689e-14 -0.282828 32.705)
(-1.12878e-14 -0.435133 33.3246)
(-8.95556e-15 -0.290723 33.8488)
(-1.33448e-14 0.108823 34.0036)
(-3.33369e-14 0.678066 33.6372)
(-6.20594e-14 1.23413 32.8122)
(-8.88795e-14 1.58786 31.798)
(-1.04854e-13 1.69172 30.8214)
(-1.18696e-13 1.64981 29.9201)
(-1.26839e-13 1.62674 28.9823)
(-1.13272e-13 1.70184 27.8922)
(-1.02715e-13 1.74423 26.6449)
(-8.09374e-14 1.3999 25.3199)
(-6.26938e-14 0.236339 24.0737)
(-4.89249e-14 -1.51325 23.3789)
(-3.17336e-14 -3.12159 23.3008)
(-7.09364e-16 -4.3095 23.5572)
(6.54797e-15 -5.14466 23.9698)
(-6.68644e-17 -5.72894 24.5138)
(-8.08562e-15 -6.09706 25.2526)
(-1.69281e-14 -6.23337 26.2881)
(-2.47648e-14 -6.10674 27.7228)
(-2.87075e-14 -5.69622 29.6241)
(-2.75698e-14 -5.00748 31.989)
(-2.45052e-14 -4.0811 34.7218)
(-1.93795e-14 -2.99184 37.6347)
(-1.98187e-14 -1.83833 40.4802)
(-2.54085e-14 -0.727607 43.0006)
(-3.19121e-14 0.243935 44.9824)
(-3.97065e-14 0.99743 46.2699)
(-4.70406e-14 1.49706 46.8413)
(-5.34684e-14 1.77805 46.8503)
(-5.82242e-14 1.90309 46.4916)
(-6.22029e-14 1.92947 45.9249)
(-6.53243e-14 1.89979 45.26)
(-6.68083e-14 1.84083 44.5669)
(-6.58533e-14 1.77169 43.884)
(-6.3679e-14 1.69326 43.2344)
(-6.09898e-14 1.63054 42.6331)
(-5.88824e-14 1.53442 42.0505)
(-5.51513e-14 1.52177 41.6255)
(-5.99089e-14 1.32729 40.9431)
(-4.23627e-14 0.665333 -65.0582)
(-4.93173e-14 0.722088 -66.3685)
(-5.08961e-14 0.745398 -67.7631)
(-5.52066e-14 0.776679 -69.0784)
(-5.25074e-14 0.789164 -70.3707)
(-4.38971e-14 0.78896 -71.6059)
(-3.07297e-14 0.767066 -72.7872)
(-2.02649e-14 0.704015 -73.8899)
(-1.46513e-14 0.558383 -74.8559)
(-1.64019e-14 0.273806 -75.5548)
(-2.06548e-14 -0.198086 -75.7652)
(-3.05069e-14 -0.826216 -75.2492)
(-3.79632e-14 -1.47209 -73.9387)
(-4.27025e-14 -2.0323 -71.9925)
(-4.50411e-14 -2.52323 -69.5682)
(-4.78515e-14 -2.99068 -66.6984)
(-4.43335e-14 -3.45219 -63.4149)
(-4.49032e-14 -3.91929 -59.7309)
(-4.97129e-14 -4.39899 -55.6477)
(-4.38702e-14 -4.8903 -51.1639)
(-5.31353e-14 -5.37988 -46.2857)
(-3.32685e-14 -5.84782 -41.0376)
(-2.70649e-14 -6.26791 -35.4659)
(-4.33555e-14 -6.60605 -29.6395)
(-4.83039e-14 -6.82608 -23.6422)
(-7.00026e-14 -6.91912 -17.5811)
(-8.31422e-14 -6.89512 -11.6084)
(-4.86349e-14 -6.69803 -5.83137)
(-2.96356e-14 -6.33441 -0.256551)
(-4.72944e-14 -5.93411 4.97049)
(-7.4171e-14 -5.44967 9.74688)
(-6.09095e-14 -4.77689 13.964)
(-4.8574e-14 -3.99816 17.451)
(-5.13521e-14 -3.23636 20.2185)
(-6.89405e-14 -2.58685 22.3739)
(-6.61326e-14 -2.08851 24.0636)
(-6.59165e-14 -1.72769 25.4294)
(-6.71431e-14 -1.46778 26.5751)
(-7.14844e-14 -1.27741 27.5628)
(-7.01176e-14 -1.13667 28.4309)
(-8.76611e-14 -1.03105 29.2082)
(-8.83877e-14 -0.946653 29.9146)
(-1.042e-13 -0.870241 30.5598)
(-9.98323e-14 -0.791462 31.1441)
(-9.1905e-14 -0.704263 31.6623)
(-8.37413e-14 -0.606661 32.1079)
(-7.9624e-14 -0.499592 32.4758)
(-6.73447e-14 -0.386332 32.7624)
(-5.86922e-14 -0.273174 32.9679)
(-4.49552e-14 -0.168445 33.0992)
(-2.40445e-14 -0.0760951 33.1717)
(2.50804e-15 0.0126464 33.2034)
(7.47171e-15 0.121867 33.1976)
(9.98595e-15 0.277375 33.1191)
(1.17948e-14 0.464176 32.8917)
(1.34875e-14 0.572293 32.4883)
(8.11343e-15 0.428 32.1278)
(1.08138e-14 -7.54631e-05 32.2424)
(2.2791e-17 -0.457708 32.9647)
(-7.4891e-15 -0.620679 33.9133)
(-4.1622e-15 -0.380094 34.5957)
(1.93399e-15 0.169767 34.7183)
(-2.96608e-15 0.890561 34.1786)
(-9.11328e-15 1.53868 33.1537)
(-2.63459e-14 1.9098 31.9851)
(-2.82165e-14 1.99517 30.8942)
(-4.29832e-14 1.94626 29.8987)
(-5.72951e-14 1.94805 28.892)
(-4.6864e-14 2.0677 27.7779)
(-3.94992e-14 2.14268 26.5682)
(-2.42846e-14 1.79932 25.355)
(-3.47357e-14 0.561911 24.1989)
(-3.54508e-14 -1.36454 23.4643)
(-1.99381e-14 -3.11638 23.2558)
(-6.16496e-15 -4.37768 23.3156)
(-4.76106e-15 -5.25297 23.4675)
(-1.01795e-14 -5.88187 23.6704)
(-1.60309e-14 -6.32223 23.9608)
(-2.54442e-14 -6.57046 24.4166)
(-3.54787e-14 -6.59786 25.1357)
(-4.27545e-14 -6.37385 26.2169)
(-4.94894e-14 -5.88048 27.7336)
(-4.85202e-14 -5.1232 29.7044)
(-3.9992e-14 -4.13862 32.0675)
(-3.27357e-14 -2.99531 34.6728)
(-2.62355e-14 -1.78747 37.3013)
(-2.23524e-14 -0.622652 39.7049)
(-2.34945e-14 0.397432 41.657)
(-2.79168e-14 1.18001 42.9638)
(-3.51128e-14 1.68733 43.5883)
(-4.15388e-14 1.96339 43.6801)
(-4.73163e-14 2.0782 43.4283)
(-5.27417e-14 2.0932 42.9838)
(-5.61052e-14 2.05112 42.4513)
(-5.7739e-14 1.98254 41.8912)
(-5.70504e-14 1.89421 41.3469)
(-5.59e-14 1.82079 40.8325)
(-5.46827e-14 1.70062 40.3484)
(-5.36979e-14 1.68598 39.9924)
(-6.08728e-14 1.45271 39.4255)
(-4.79488e-14 0.792017 -64.9999)
(-5.29299e-14 0.848809 -66.3142)
(-5.41834e-14 0.873227 -67.7177)
(-5.2419e-14 0.905428 -69.036)
(-4.61098e-14 0.917531 -70.3272)
(-3.36867e-14 0.916053 -71.5566)
(-2.23393e-14 0.891107 -72.7301)
(-1.76823e-14 0.820212 -73.8282)
(-1.82361e-14 0.655135 -74.7987)
(-2.45084e-14 0.329657 -75.5126)
(-3.37261e-14 -0.213542 -75.7418)
(-4.21178e-14 -0.938432 -75.2355)
(-4.78731e-14 -1.68103 -73.9243)
(-5.10173e-14 -2.32071 -71.9826)
(-5.33622e-14 -2.88121 -69.5797)
(-5.34958e-14 -3.41717 -66.7401)
(-5.79224e-14 -3.94759 -63.4929)
(-5.57791e-14 -4.48543 -59.8497)
(-5.33573e-14 -5.03881 -55.8096)
(-5.14863e-14 -5.60649 -51.3692)
(-4.96933e-14 -6.17285 -46.5326)
(-4.47347e-14 -6.71471 -41.3229)
(-3.95153e-14 -7.20174 -35.7855)
(-4.60768e-14 -7.59563 -29.9889)
(-3.97175e-14 -7.85657 -24.0181)
(-5.81542e-14 -7.96999 -17.9808)
(-6.10546e-14 -7.94115 -12.0245)
(-4.92502e-14 -7.72684 -6.26481)
(-4.45219e-14 -7.33537 -0.7162)
(-2.92455e-14 -6.88314 4.49523)
(-7.94429e-14 -6.3172 9.27356)
(-5.65623e-14 -5.53055 13.4919)
(-4.91452e-14 -4.62233 16.9742)
(-6.5094e-14 -3.7379 19.7322)
(-7.82924e-14 -2.98811 21.8771)
(-6.99653e-14 -2.4167 23.5615)
(-7.16518e-14 -2.0055 24.9321)
(-7.70157e-14 -1.70992 26.092)
(-8.15847e-14 -1.49293 27.0995)
(-7.70638e-14 -1.33189 27.9898)
(-8.52107e-14 -1.2106 28.7903)
(-8.35018e-14 -1.11321 29.5204)
(-8.50681e-14 -1.02437 30.1894)
(-7.53514e-14 -0.932077 30.7967)
(-6.75569e-14 -0.829524 31.3365)
(-6.55999e-14 -0.71469 31.8016)
(-6.65355e-14 -0.588854 32.1864)
(-7.1529e-14 -0.455889 32.4871)
(-7.10154e-14 -0.323396 32.7028)
(-5.81097e-14 -0.201993 32.8411)
(-6.06565e-14 -0.0974743 32.9214)
(-5.51733e-14 0.000621731 32.967)
(-5.4835e-14 0.12486 32.9805)
(-5.28679e-14 0.314029 32.9107)
(-5.02518e-14 0.550004 32.6635)
(-4.45009e-14 0.672608 32.2592)
(-4.55426e-14 0.434301 32.0638)
(-3.88122e-14 -0.169898 32.5421)
(-4.20424e-14 -0.744237 33.6461)
(-4.19042e-14 -0.877318 34.8817)
(-4.42856e-14 -0.480451 35.7495)
(-3.61407e-14 0.278046 35.92)
(-1.94531e-14 1.18616 35.2487)
(-4.74826e-15 1.92717 33.9978)
(1.02909e-15 2.29949 32.6058)
(3.37086e-15 2.35121 31.3173)
(-3.98469e-15 2.28481 30.1379)
(-1.24997e-14 2.29901 28.9662)
(-1.43684e-14 2.44176 27.742)
(-1.72336e-14 2.52713 26.5135)
(-2.23179e-14 2.17434 25.3719)
(-4.40112e-14 0.879816 24.3117)
(-4.87634e-14 -1.19727 23.5908)
(-3.23896e-14 -3.07101 23.323)
(-2.35669e-14 -4.38679 23.2676)
(-3.05062e-14 -5.28135 23.2593)
(-2.71782e-14 -5.92744 23.2545)
(-2.23556e-14 -6.40269 23.2744)
(-3.00883e-14 -6.71549 23.3734)
(-4.05946e-14 -6.84468 23.6272)
(-5.69437e-14 -6.76181 24.1244)
(-6.94507e-14 -6.44218 24.9547)
(-7.20535e-14 -5.87291 26.1892)
(-6.98349e-14 -5.06086 27.8555)
(-6.35338e-14 -4.03904 29.9126)
(-5.55767e-14 -2.8693 32.2398)
(-4.58803e-14 -1.64054 34.6441)
(-3.71104e-14 -0.458054 36.8961)
(-3.16954e-14 0.572794 38.7626)
(-2.97327e-14 1.34963 40.0297)
(-3.11553e-14 1.8392 40.662)
(-3.46985e-14 2.09482 40.8085)
(-3.88508e-14 2.19122 40.646)
(-4.12196e-14 2.18978 40.3161)
(-4.16568e-14 2.13606 39.9066)
(-4.11407e-14 2.0463 39.4874)
(-4.10102e-14 1.96657 39.0708)
(-4.13954e-14 1.82146 38.7017)
(-4.16714e-14 1.81562 38.4112)
(-5.17288e-14 1.53778 37.9551)
(-4.39393e-14 0.921542 -64.8177)
(-5.37661e-14 0.979881 -66.1508)
(-5.50229e-14 1.0049 -67.5664)
(-4.94456e-14 1.03736 -68.8912)
(-4.08169e-14 1.04847 -70.1821)
(-2.79901e-14 1.04532 -71.4044)
(-1.89354e-14 1.01745 -72.5687)
(-2.10847e-14 0.939478 -73.6625)
(-2.75548e-14 0.756065 -74.6394)
(-3.39052e-14 0.390447 -75.3711)
(-4.54913e-14 -0.224429 -75.6211)
(-5.30508e-14 -1.04749 -75.1234)
(-5.68089e-14 -1.88726 -73.8067)
(-5.80672e-14 -2.60485 -71.8633)
(-5.88484e-14 -3.23307 -69.4759)
(-5.9852e-14 -3.83629 -66.6608)
(-6.05515e-14 -4.43473 -63.4449)
(-6.11824e-14 -5.04268 -59.8377)
(-5.81295e-14 -5.66942 -55.8365)
(-4.90719e-14 -6.31348 -51.4355)
(-5.2207e-14 -6.95691 -46.6365)
(-4.78878e-14 -7.57316 -41.4613)
(-4.93783e-14 -8.12772 -35.9541)
(-6.45426e-14 -8.57791 -30.183)
(-3.19385e-14 -8.88015 -24.2346)
(-5.14297e-14 -9.01433 -18.2182)
(-5.35526e-14 -8.98131 -12.2784)
(-7.42075e-14 -8.74868 -6.53735)
(-4.08104e-14 -8.32846 -1.02002)
(-3.28665e-14 -7.82735 4.16139)
(-7.94031e-14 -7.18252 8.92757)
(-4.65312e-14 -6.28192 13.1366)
(-4.97675e-14 -5.24336 16.6067)
(-6.66548e-14 -4.23582 19.3487)
(-8.4253e-14 -3.38634 21.4773)
(-7.64894e-14 -2.74367 23.1521)
(-8.48643e-14 -2.28427 24.5251)
(-8.6862e-14 -1.95468 25.6984)
(-8.2388e-14 -1.71195 26.7253)
(-6.80961e-14 -1.53099 27.6374)
(-5.55891e-14 -1.39422 28.4604)
(-4.01986e-14 -1.28396 29.2139)
(-4.73656e-14 -1.18265 29.9065)
(-5.03726e-14 -1.07661 30.5367)
(-5.60601e-14 -0.958289 31.0975)
(-6.30692e-14 -0.825656 31.5809)
(-6.78621e-14 -0.680312 31.9805)
(-6.94541e-14 -0.526668 32.2914)
(-6.88087e-14 -0.373807 32.5122)
(-6.66264e-14 -0.235369 32.653)
(-6.27462e-14 -0.119726 32.7403)
(-5.81888e-14 -0.0136533 32.805)
(-5.37372e-14 0.127391 32.8469)
(-5.10396e-14 0.355251 32.8034)
(-4.75316e-14 0.635011 32.5965)
(-3.64387e-14 0.73705 32.3224)
(-3.64884e-14 0.358856 32.3439)
(-4.22447e-14 -0.429701 32.9147)
(-6.25389e-14 -1.10642 33.9345)
(-7.98629e-14 -1.20764 35.155)
(-8.89818e-14 -0.644241 36.2274)
(-8.72112e-14 0.364299 36.708)
(-6.83759e-14 1.51489 36.2281)
(-4.30212e-14 2.38272 34.9678)
(-2.9956e-14 2.76689 33.4276)
(-1.67549e-14 2.7867 31.919)
(-1.21801e-14 2.69973 30.486)
(-1.77554e-14 2.7109 29.0758)
(-1.41569e-14 2.84683 27.689)
(-2.17185e-14 2.91034 26.4044)
(-3.4984e-14 2.5215 25.2998)
(-5.59586e-14 1.17094 24.3495)
(-5.04679e-14 -1.03336 23.7069)
(-3.24051e-14 -3.00454 23.4457)
(-4.15262e-14 -4.35638 23.3343)
(-3.76734e-14 -5.25554 23.2285)
(-2.68503e-14 -5.90273 23.0938)
(-3.02115e-14 -6.39091 22.9463)
(-3.91183e-14 -6.73772 22.8259)
(-5.02658e-14 -6.92912 22.7888)
(-6.14129e-14 -6.94209 22.9041)
(-7.41867e-14 -6.7537 23.2501)
(-7.97845e-14 -6.3462 23.9054)
(-7.93611e-14 -5.71171 24.9346)
(-8.08009e-14 -4.85835 26.3667)
(-7.88626e-14 -3.81599 28.1732)
(-7.19692e-14 -2.641 30.2543)
(-6.25163e-14 -1.41738 32.4409)
(-5.31732e-14 -0.247978 34.5206)
(-4.57197e-14 0.759271 36.2607)
(-4.10906e-14 1.49895 37.4468)
(-3.98712e-14 1.94888 38.0584)
(-4.01147e-14 2.17111 38.2407)
(-4.00391e-14 2.24126 38.1596)
(-4.02789e-14 2.22171 37.9321)
(-3.99095e-14 2.1426 37.6602)
(-4.00741e-14 2.06207 37.3545)
(-4.17866e-14 1.89423 37.1199)
(-4.42263e-14 1.91588 36.8745)
(-5.87623e-14 1.58073 36.5325)
(-4.96846e-14 1.05679 -64.5306)
(-5.54015e-14 1.11594 -65.8999)
(-5.41252e-14 1.14074 -67.327)
(-4.69587e-14 1.1728 -68.661)
(-3.67384e-14 1.18214 -69.9517)