/*--------------------------------*- C++ -*----------------------------------*\
| =========                 |                                                 |
| \\      /  F ield         | OpenFOAM: The Open Source CFD Toolbox           |
|  \\    /   O peration     | Version:  4.1                                   |
|   \\  /    A nd           | Web:      www.OpenFOAM.org                      |
|    \\/     M anipulation  |                                                 |
\*---------------------------------------------------------------------------*/
FoamFile
{
    version     2.0;
    format      ascii;
    class       volScalarField;
    location    "1100";
    object      p;
}
// * * * * * * * * * * * * * * * * * * * * * * * * * * * * * * * * * * * * * //

dimensions      [0 2 -2 0 0 0 0];

internalField   nonuniform List<scalar> 
26785
(
339.075
316.79
297.114
280.402
267.353
258.142
253.035
252.521
255.851
262.795
272.034
281.388
289.76
296.984
303.169
308.45
312.88
316.473
319.28
321.214
322.314
323.023
323.77
324.69
325.618
326.193
326
324.632
321.593
316.297
308.558
298.664
286.992
273.839
259.536
244.698
230.425
218.285
210.072
207.226
210.291
219.15
233.441
252.874
276.898
304.314
333.729
364.143
394.772
424.701
453.929
484.517
518.773
554.107
585.5
611.611
633.831
653.357
669.978
682.77
690.96
695.289
696.831
697.18
698.004
699.233
697.686
694.28
688.16
680.536
673.622
665.575
653.718
637.595
616.858
591.983
564.927
539.013
514.906
491.348
471.841
455.935
439.357
421.806
404.114
386.4
369.313
353.773
337.748
318.669
295.821
268.552
235.929
198.097
156.364
113.319
75.3929
47.5691
26.3386
5.75736
338.996
316.758
297.072
280.354
267.307
258.094
252.979
252.463
255.787
262.739
271.998
281.368
289.749
296.975
303.163
308.447
312.881
316.48
319.294
321.23
322.323
323.023
323.765
324.689
325.626
326.215
326.037
324.684
321.655
316.349
308.582
298.657
286.955
273.775
259.439
244.559
230.234
218.04
209.786
206.925
209.989
218.848
233.133
252.579
276.645
304.115
333.577
364.042
394.73
424.647
453.724
484.092
518.289
553.765
585.253
611.349
633.533
653.06
669.77
682.674
690.961
695.361
696.739
697.079
697.949
698.885
697.382
694.113
688.389
680.732
673.619
665.349
653.197
636.504
615.938
591.828
565.28
539.457
515.125
490.953
471.408
455.913
439.432
421.997
404.387
386.639
369.402
353.812
337.771
318.6
295.697
268.481
235.88
197.925
155.808
112.135
74.1379
47.0052
25.7602
5.28464
338.89
316.703
296.993
280.264
267.221
258.004
252.871
252.346
255.654
262.62
271.923
281.326
289.723
296.957
303.149
308.439
312.884
316.495
319.322
321.261
322.34
323.022
323.757
324.687
325.644
326.262
326.116
324.799
321.792
316.465
308.641
298.651
286.893
273.66
259.261
244.297
229.869
217.567
209.234
206.342
209.404
218.263
232.538
252.01
276.16
303.729
333.28
363.831
394.64
424.572
453.402
483.386
517.441
553.134
584.769
610.823
632.94
652.473
669.358
682.492
690.906
695.286
696.756
697.287
698.155
698.733
697.231
693.966
688.44
681.05
673.875
665.585
653.492
636.486
615.167
590.235
563.755
538.729
514.926
490.539
471.507
456.741
439.961
422.398
404.83
387.096
369.695
353.817
337.661
318.543
295.742
268.624
235.973
197.745
154.95
110.245
72.2811
46.295
25.3943
5.20632
338.758
316.607
296.867
280.13
267.095
257.875
252.713
252.172
255.453
262.441
271.809
281.262
289.682
296.927
303.127
308.426
312.886
316.515
319.361
321.305
322.364
323.022
323.745
324.685
325.674
326.335
326.239
324.974
321.997
316.637
308.728
298.647
286.812
273.504
259.01
243.918
229.334
216.868
208.41
205.468
208.521
217.374
231.634
251.142
275.41
303.122
332.799
363.453
394.404
424.459
453.158
482.798
516.612
552.409
584.112
610.058
632.077
651.625
668.764
682.226
690.828
695.145
697.057
697.637
698.418
698.718
697.272
693.958
688.6
681.428
674.113
665.733
653.653
636.49
614.868
589.545
562.764
538.02
514.514
489.353
470.833
457.277
440.58
422.894
405.335
387.518
370.089
354.027
337.858
318.845
296.137
269.166
236.609
198.205
154.642
108.797
70.6162
45.031
23.7322
4.22491
338.607
316.491
296.709
279.965
266.94
257.716
252.515
251.945
255.187
262.2
271.654
281.173
289.626
296.885
303.096
308.407
312.887
316.54
319.411
321.359
322.395
323.022
323.73
324.683
325.713
326.43
326.397
325.199
322.259
316.856
308.842
298.648
286.716
273.307
258.677
243.409
228.615
215.932
207.312
204.308
207.354
216.196
230.436
249.974
274.378
302.265
332.1
362.883
393.992
424.217
452.883
482.306
515.942
551.742
583.374
609.108
630.989
650.547
667.999
681.869
690.764
695.094
697.508
698.112
698.625
698.742
697.476
694.169
688.884
681.911
674.508
666.017
653.991
636.863
614.97
589.084
561.991
538.071
515.814
491.112
471.49
457.439
441.304
423.811
406.172
388.169
370.763
354.16
337.417
318.274
295.426
268.28
235.884
197.766
154.142
108.739
72.1026
46.8735
24.7453
3.21402
338.371
316.346
296.521
279.77
266.76
257.534
252.282
251.671
254.859
261.899
271.458
281.059
289.552
296.831
303.055
308.381
312.886
316.569
319.471
321.423
322.431
323.021
323.713
324.682
325.761
326.543
326.583
325.461
322.564
317.11
308.974
298.65
286.596
273.046
258.237
242.754
227.714
214.778
205.973
202.905
205.947
214.772
228.989
248.554
273.096
301.174
331.179
362.102
393.372
423.789
452.502
481.838
515.45
551.222
582.631
608.036
629.726
649.274
667.072
681.428
690.742
695.232
698.008
698.62
698.874
698.876
697.724
694.566
689.351
682.497
675.017
666.394
654.392
637.379
615.348
588.959
561.364
537.85
516.747
494.209
474.909
459.287
442.394
424.679
406.84
388.957
371.4
354.121
336.712
317.277
294.085
266.583
234.34
197.175
154.851
110.753
75.1768
50.3681
28.7342
6.314
338.079
316.184
296.309
279.553
266.56
257.335
252.024
251.356
254.476
261.542
271.223
280.92
289.462
296.763
303.003
308.348
312.88
316.602
319.538
321.493
322.472
323.022
323.695
324.681
325.815
326.669
326.788
325.75
322.902
317.39
309.118
298.644
286.431
272.699
257.681
241.962
226.655
213.44
204.426
201.288
204.328
213.131
227.33
246.923
271.604
299.878
330.057
361.117
392.537
423.135
451.962
481.365
515.133
550.883
581.932
606.892
628.34
647.842
665.989
680.95
690.777
695.594
698.443
699.13
699.404
699.315
698.114
695.116
690.047
683.252
675.676
666.963
655.003
638.177
616.167
589.399
561.074
537.612
517.503
496.649
477.576
461.151
443.673
425.698
407.792
389.964
372.161
354.296
336.265
316.419
292.97
265.313
233.21
196.685
155.703
113.856
79.5969
53.7714
31.2401
8.35873
337.8
316.003
296.07
279.317
266.345
257.123
251.746
251.005
254.04
261.13
270.95
280.757
289.353
296.68
302.941
308.306
312.871
316.639
319.61
321.568
322.518
323.024
323.678
324.682
325.874
326.805
327.006
326.058
323.262
317.687
309.264
298.609
286.195
272.249
257.01
241.052
225.467
211.946
202.699
199.486
202.524
211.295
225.483
245.102
269.923
298.401
328.754
359.944
391.493
422.251
451.239
480.87
514.982
550.727
581.3
605.725
626.892
646.306
664.788
680.468
690.843
695.987
698.822
699.762
700.215
700.056
698.744
695.825
690.976
684.239
676.502
667.707
655.814
639.215
617.392
590.534
561.482
537.496
518.178
498.884
480.124
462.981
445.151
426.977
408.919
390.923
372.769
354.342
335.653
315.28
291.551
263.928
232.279
196.663
157.174
117.325
83.7497
57.0412
33.8097
10.4326
337.526
315.795
295.809
279.066
266.12
256.906
251.46
250.627
253.561
260.668
270.641
280.57
289.227
296.584
302.868
308.257
312.859
316.681
319.686
321.648
322.57
323.03
323.662
324.684
325.936
326.946
327.234
326.38
323.638
317.992
309.4
298.524
285.868
271.694
256.238
240.048
224.176
210.319
200.809
197.516
200.553
209.282
223.465
243.11
268.068
296.756
327.282
358.592
390.247
421.138
450.323
480.35
514.982
550.732
580.743
604.577
625.441
644.739
663.542
680.007
690.918
696.364
699.294
700.565
701.212
701.023
699.624
696.721
692.09
685.465
677.557
668.647
656.861
640.533
619.036
592.378
562.925
537.926
518.974
500.752
482.475
464.945
446.861
428.511
410.242
391.969
373.423
354.467
335.091
314.119
290.063
262.432
231.229
196.607
158.905
121.271
88.3117
60.4646
36.3871
12.3366
337.257
315.574
295.532
278.805
265.887
256.687
251.171
250.229
253.049
260.164
270.299
280.36
289.084
296.474
302.785
308.201
312.844
316.729
319.765
321.733
322.629
323.041
323.649
324.685
326
327.091
327.466
326.709
324.023
318.3
309.507
298.36
285.438
271.04
255.384
238.97
222.799
208.575
198.773
195.396
198.434
207.117
221.295
240.961
266.052
294.956
325.653
357.07
388.802
419.8
449.215
479.808
515.106
550.856
580.248
603.471
624.041
643.231
662.368
679.619
691.018
696.792
699.937
701.534
702.366
702.188
700.749
697.839
693.365
686.899
678.864
669.769
658.132
642.118
621.065
594.868
565.429
539.279
520.269
502.686
484.711
467.011
448.738
430.217
411.702
393.076
374.099
354.625
334.569
313.014
288.685
261.102
230.356
196.632
160.491
124.574
92.2372
63.8073
38.8936
13.9656
336.919
315.333
295.239
278.534
265.647
256.466
250.883
249.82
252.514
259.626
269.928
280.129
288.925
296.352
302.694
308.141
312.827
316.781
319.847
321.824
322.695
323.057
323.638
324.686
326.063
327.235
327.699
327.041
324.411
318.599
309.56
298.099
284.905
270.302
254.464
237.835
221.354
206.728
196.604
193.144
196.188
204.828
218.996
238.672
263.887
293.009
323.874
355.383
387.164
418.243
447.924
479.249
515.313
551.036
579.8
602.453
622.745
641.855
661.376
679.327
691.15
697.301
700.748
702.668
703.686
703.559
702.119
699.203
694.816
688.547
680.434
671.075
659.611
643.959
623.443
597.905
568.852
541.788
522.179
504.99
487.083
469.243
450.808
432.093
413.299
394.291
374.862
354.859
334.128
311.979
287.386
259.902
229.624
196.776
162.002
127.341
95.358
66.615
41.1371
15.258
336.563
315.083
294.931
278.254
265.401
256.242
250.598
249.4
251.962
259.061
269.534
279.881
288.752
296.218
302.595
308.077
312.808
316.836
319.932
321.919
322.77
323.08
323.629
324.686
326.127
327.378
327.929
327.372
324.8
318.877
309.531
297.73
284.277
269.492
253.489
236.653
219.854
204.796
194.323
190.785
193.836
202.445
216.596
236.263
261.589
290.926
321.954
353.536
385.336
416.473
446.464
478.675
515.538
551.203
579.374
601.524
621.57
640.717
660.633
679.1
691.307
697.889
701.713
703.967
705.186
705.144
703.734
700.822
696.471
690.403
682.273
672.622
661.28
646.036
626.123
601.386
573.018
545.501
524.792
507.719
489.766
471.711
453.099
434.158
415.048
395.637
375.755
355.239
333.883
311.14
286.258
258.86
228.987
196.88
163.173
129.488
97.8474
68.9404
43.1244
16.3156
336.223
314.813
294.607
277.969
265.152
256.019
250.321
248.974
251.394
258.471
269.12
279.618
288.568
296.076
302.491
308.01
312.786
316.89
320.02
322.017
322.852
323.11
323.623
324.685
326.19
327.517
328.151
327.696
325.185
319.114
309.399
297.253
283.566
268.623
252.471
235.439
218.318
202.801
191.951
188.347
191.406
200.008
214.129
233.762
259.176
288.723
319.9
351.535
383.325
414.499
444.853
478.079
515.699
551.255
578.926
600.696
620.598
639.924
660.155
678.927
691.497
698.566
702.831
705.438
706.875
706.949
705.595
702.704
698.361
692.443
684.375
674.492
663.129
648.321
629.052
605.206
577.739
550.232
528.241
510.841
492.823
474.451
455.621
436.409
416.951
397.117
376.765
355.741
333.817
310.543
285.362
257.984
228.428
196.917
164.044
131.138
99.8317
70.8765
44.8586
17.205
335.894
314.53
294.274
277.682
264.904
255.799
250.055
248.545
250.82
257.863
268.692
279.346
288.376
295.927
302.383
307.941
312.76
316.938
320.109
322.117
322.942
323.15
323.623
324.685
326.253
327.654
328.364
328.008
325.567
319.282
309.151
296.675
282.782
267.703
251.417
234.205
216.766
200.766
189.517
185.86
188.924
197.566
211.639
231.201
256.675
286.415
317.726
349.386
381.137
412.331
443.122
477.43
515.771
551.24
578.498
599.985
619.899
639.519
659.958
678.847
691.759
699.358
704.109
707.087
708.763
708.982
707.708
704.856
700.512
694.671
686.742
676.719
665.148
650.782
632.179
609.268
582.838
555.718
532.634
514.449
496.327
477.514
458.394
438.864
419.023
398.753
377.925
356.391
333.933
310.179
284.706
257.289
227.954
196.914
164.706
132.421
101.398
72.4557
46.3614
17.9556
335.573
314.241
293.933
277.394
264.655
255.58
249.803
248.117
250.244
257.244
268.254
279.066
288.178
295.773
302.27
307.871
312.73
316.977
320.199
322.215
323.038
323.201
323.628
324.689
326.316
327.786
328.566
328.305
325.94
319.354
308.785
296.008
281.939
266.739
250.335
232.965
215.218
198.715
187.043
183.352
186.414
195.159
209.173
228.623
254.118
284.025
315.444
347.097
378.783
409.983
441.29
476.797
515.802
551.15
578.047
599.433
619.527
639.488
660.031
678.906
692.139
700.294
705.557
708.924
710.86
711.248
710.078
707.282
702.937
697.114
689.365
679.3
667.424
653.38
635.46
613.489
588.165
561.732
537.993
518.734
500.316
480.98
461.465
441.566
421.301
400.577
379.265
357.224
334.251
310.042
284.274
256.779
227.585
196.892
165.188
133.382
102.591
73.7235
47.7097
18.6016
335.192
313.944
293.588
277.107
264.407
255.364
249.563
247.692
249.672
256.617
267.809
278.782
287.977
295.616
302.154
307.799
312.696
317.002
320.287
322.308
323.135
323.262
323.641
324.698
326.379
327.914
328.757
328.584
326.284
319.304
308.307
295.264
281.044
265.739
249.234
231.732
213.692
196.669
184.549
180.841
183.889
192.811
206.777
226.071
251.543
281.58
313.07
344.679
376.279
407.488
439.408
476.255
515.737
550.904
577.576
599.093
619.471
639.757
660.333
679.135
692.678
701.397
707.188
710.962
713.176
713.757
712.71
709.988
705.653
699.809
692.201
682.212
670.112
656.101
638.855
617.795
593.583
568.023
544.134
523.785
504.788
484.941
464.921
444.582
423.838
402.624
380.81
358.254
334.775
310.121
284.046
256.429
227.307
196.864
165.544
134.112
103.525
74.7523
48.8417
19.1467
334.808
313.649
293.24
276.823
264.163
255.151
249.339
247.278
249.109
255.988
267.362
278.498
287.775
295.457
302.035
307.724
312.657
317.009
320.362
322.387
323.23
323.332
323.665
324.716
326.442
328.038
328.935
328.845
326.565
319.117
307.726
294.456
280.106
264.707
248.121
230.517
212.202
194.64
182.049
178.337
181.343
190.517
204.475
223.586
248.993
279.112
310.624
342.148
373.641
404.872
437.606
475.782
515.526
550.475
577.133
598.953
619.66
640.24
660.823
679.55
693.401
702.685
709.011
713.208
715.721
716.517
715.614
712.983
708.677
702.797
695.243
685.427
673.264
659.067
642.314
622.137
598.981
574.347
550.667
529.491
509.771
489.451
468.864
448.005
426.716
404.954
382.593
359.494
335.492
310.385
283.986
256.215
227.115
196.859
165.843
134.719
104.308
75.5535
49.5486
19.5392
334.449
313.347
292.891
276.546
263.925
254.943
249.13
246.88
248.563
255.365
266.918
278.216
287.574
295.296
301.913
307.646
312.614
316.996
320.418
322.454
323.318
323.409
323.697
324.744
326.505
328.156
329.097
329.095
326.741
318.788
307.056
293.595
279.13
263.649
247.004
229.327
210.756
192.641
179.554
175.852
178.778
188.253
202.268
221.195
246.505
276.651
308.126
339.523
370.9
402.174
436.041
475.286
515.137
549.903
576.741
598.964
620.023
640.873
661.474
680.154
694.323
704.171
711.038
715.672
718.505
719.536
718.797
716.277
712.02
706.109
698.533
688.902
676.813
662.493
645.909
626.47
604.301
580.555
557.215
535.604
515.21
494.423
473.275
451.857
429.98
407.619
384.661
360.977
336.425
310.844
284.097
256.139
227.021
196.9
166.125
135.249
104.975
76.1315
49.8146
19.7716
334.118
313.045
292.546
276.277
263.694
254.74
248.938
246.503
248.04
254.752
266.481
277.94
287.375
295.134
301.787
307.563
312.565
316.967
320.452
322.511
323.397
323.491
323.737
324.781
326.567
328.266
329.237
329.35
326.778
318.327
306.311
292.689
278.123
262.572
245.887
228.165
209.356
190.68
177.082
173.407
176.237
185.998
200.142
218.914
244.115
274.228
305.595
336.824
368.081
399.502
434.744
474.729
514.583
549.246
576.396
599.08
620.507
641.623
662.269
680.951
695.454
705.864
713.275
718.363
721.534
722.823
722.269
719.878
715.69
709.771
702.137
692.599
680.689
666.412
649.867
630.873
609.512
586.581
563.615
541.878
520.976
499.702
478.039
456.059
433.584
410.6
387.016
362.72
337.597
311.521
284.404
256.227
227.049
197.008
166.405
135.708
105.521
76.5376
49.8642
19.8994
333.808
312.746
292.206
276.016
263.469
254.541
248.762
246.149
247.546
254.158
266.057
277.672
287.179
294.972
301.657
307.473
312.511
316.924
320.46
322.559
323.465
323.575
323.78
324.828
326.627
328.366
329.349
329.617
326.666
317.752
305.504
291.746
277.09
261.481
244.774
227.03
208.006
188.772
174.663
171.034
173.777
183.745
198.087
216.75
241.848
271.871
303.054
334.083
365.202
397.051
433.637
474.096
513.899
548.546
576.086
599.266
621.079
642.467
663.2
681.941
696.801
707.77
715.732
721.287
724.818
726.386
726.041
723.798
719.698
713.795
706.108
696.556
684.837
670.706
654.28
635.563
614.746
592.492
569.959
548.215
526.943
505.178
483.035
460.502
437.438
413.834
389.62
364.706
339.004
312.426
284.921
256.498
227.216
197.196
166.691
136.104
105.956
76.8303
49.8838
19.976
333.458
312.451
291.873
275.765
263.252
254.348
248.602
245.819
247.084
253.586
265.65
277.415
286.987
294.808
301.523
307.376
312.449
316.872
320.441
322.594
323.519
323.655
323.828
324.884
326.684
328.454
329.433
329.877
326.419
317.088
304.646
290.772
276.037
260.382
243.666
225.921
206.707
186.935
172.334
168.779
171.478
181.521
196.098
214.709
239.727
269.6
300.522
331.331
362.298
394.966
432.652
473.383
513.117
547.824
575.797
599.496
621.717
643.396
664.265
683.126
698.365
709.895
718.415
724.451
728.364
730.235
730.12
728.046
724.053
718.189
710.474
700.868
689.234
675.309
659.063
640.61
620.211
598.483
576.365
554.627
532.995
510.795
488.183
465.11
441.472
417.259
392.423
366.9
340.626
313.549
285.649
256.954
227.529
197.474
167.005
136.467
106.313
77.0524
49.9167
20.021
333.128
312.166
291.551
275.527
263.046
254.162
248.457
245.513
246.655
253.042
265.262
277.171
286.8
294.643
301.384
307.272
312.379
316.811
320.4
322.615
323.565
323.732
323.885
324.946
326.735
328.525
329.489
330.066
326.046
316.355
303.749
289.774
274.969
259.276
242.563
224.832
205.46
185.189
170.128
166.684
169.441
179.387
194.187
212.801
237.767
267.432
298.021
328.598
359.513
393.238
431.742
472.597
512.262
547.089
575.514
599.751
622.406
644.402
665.459
684.502
700.147
712.244
721.329
727.863
732.18
734.376
734.515
732.632
728.765
722.962
715.245
705.596
693.952
680.182
664.16
645.976
625.963
604.677
582.877
561.104
539.102
516.519
493.447
469.847
445.646
420.838
395.396
369.278
342.446
314.877
286.577
257.593
227.99
197.853
167.364
136.825
106.629
77.2322
49.9419
20.0354
332.833
311.884
291.24
275.303
262.849
253.982
248.325
245.235
246.261
252.531
264.897
276.942
286.619
294.478
301.241
307.16
312.301
316.743
320.344
322.625
323.608
323.803
323.949
325.013
326.776
328.576
329.521
330.086
325.546
315.569
302.822
288.757
273.891
258.168
241.462
223.762
204.268
183.554
168.097
164.769
167.75
177.423
192.378
211.041
235.982
265.374
295.583
325.846
357.054
391.794
430.862
471.747
511.352
546.34
575.225
600.021
623.139
645.483
666.781
686.067
702.148
714.817
724.478
731.527
736.271
738.817
739.233
737.561
733.841
728.119
720.426
710.759
699.09
685.373
669.549
651.657
631.988
611.078
589.498
567.624
545.299
522.345
498.821
474.706
449.952
424.562
398.528
371.829
344.453
316.399
287.697
258.408
228.598
198.338
167.783
137.197
106.929
77.388
49.9421
20.02
332.578
311.613
290.944
275.092
262.662
253.809
248.204
244.988
245.907
252.058
264.56
276.728
286.443
294.311
301.095
307.041
312.215
316.668
320.276
322.618
323.653
323.864
324.016
325.078
326.803
328.597
329.536
329.883
324.927
314.738
301.87
287.726
272.807
257.057
240.364
222.71
203.142
182.071
166.356
163.09
166.429
175.699
190.712
209.446
234.371
263.433
293.223
323.157
354.971
390.555
429.984
470.843
510.401
545.57
574.92
600.298
623.909
646.636
668.229
687.818
704.363
717.617
727.867
735.45
740.643
743.562
744.279
742.839
739.286
733.667
726.019
716.359
704.685
690.992
675.287
657.642
638.28
617.658
596.212
574.214
551.602
528.283
504.314
479.692
454.393
428.432
401.818
374.552
346.641
318.108
289.001
259.392
229.349
198.932
168.27
137.599
107.23
77.5348
49.9205
19.9807
332.356
311.355
290.664
274.895
262.485
253.641
248.091
244.773
245.591
251.625
264.253
276.534
286.275
294.144
300.944
306.916
312.121
316.588
320.198
322.597
323.703
323.909
324.075
325.135
326.809
328.583
329.552
329.513
324.214
313.869
300.9
286.686
271.719
255.945
239.269
221.678
202.088
180.775
164.98
161.795
165.467
174.276
189.225
208.047
232.953
261.601
290.864
320.735
353.23
389.456
429.092
469.895
509.417
544.775
574.594
600.576
624.713
647.86
669.801
689.749
706.792
720.645
731.499
739.635
745.301
748.616
749.656
748.47
745.104
739.608
732.027
722.394
710.735
697.074
681.454
663.976
644.847
624.422
603.041
580.914
558.024
534.344
509.935
484.812
458.975
432.452
405.269
377.445
349.009
320
290.483
260.541
230.242
199.637
168.832
138.042
107.548
77.6883
49.8938
19.9272
332.109
311.11
290.402
274.713
262.318
253.48
247.986
244.588
245.311
251.237
263.98
276.359
286.114
293.977
300.79
306.785
312.02
316.502
320.115
322.568
323.744
323.934
324.122
325.178
326.788
328.54
329.551
329.097
323.443
312.969
299.915
285.64
270.629
254.832
238.177
220.664
201.089
179.635
163.763
160.834
164.814
173.163
187.969
206.864
231.654
259.804
288.55
318.652
351.759
388.444
428.178
468.912
508.402
543.949
574.245
600.854
625.548
649.156
671.496
691.858
709.431
723.901
735.377
744.084
750.247
753.982
755.367
754.455
751.296
745.943
738.449
728.862
717.23
703.604
688.054
670.694
651.719
631.41
610.032
587.75
564.581
540.54
515.692
490.074
463.704
436.626
408.881
380.508
351.552
322.069
292.138
261.85
231.275
200.454
169.477
138.538
107.897
77.8638
49.8806
19.8688
331.903
310.882
290.158
274.546
262.161
253.324
247.886
244.433
245.065
250.895
263.741
276.205
285.961
293.81
300.633
306.65
311.914
316.41
320.025
322.535
323.763
323.934
324.155
325.202
326.741
328.476
329.497
328.661
322.637
312.049
298.924
284.596
269.542
253.719
237.089
219.661
200.135
178.602
162.512
159.816
164.299
172.371
186.939
205.865
230.391
257.943
286.415
316.895
350.492
387.477
427.236
467.897
507.357
543.091
573.873
601.128
626.412
650.521
673.311
694.14
712.277
727.384
739.5
748.801
755.482
759.659
761.412
760.795
757.863
752.673
745.284
735.759
724.164
710.571
695.071
677.788
658.9
638.636
617.206
594.742
571.286
546.879
521.593
495.481
468.583
440.955
412.655
383.74
354.268
324.313
293.964
263.318
232.448
201.388
170.212
139.098
108.291
78.0751
49.8961
19.8134
331.739
310.665
289.933
274.392
262.012
253.173
247.789
244.305
244.852
250.605
263.541
276.073
285.817
293.644
300.475
306.511
311.803
316.313
319.931
322.496
323.752
323.913
324.175
325.205
326.669
328.372
329.364
328.141
321.806
311.119
297.935
283.557
268.457
252.609
236.01
218.671
199.269
177.76
161.664
159.03
163.827
171.808
186.119
204.959
229.123
256.136
284.574
315.421
349.362
386.522
426.26
466.845
506.276
542.199
573.479
601.396
627.304
651.956
675.245
696.59
715.326
731.093
743.87
753.785
761.006
765.648
767.789
767.489
764.804
759.795
752.529
743.079
731.527
717.963
702.494
685.25
666.392
646.113
624.581
601.909
578.152
553.37
527.644
501.038
473.614
445.441
416.592
387.139
357.156
326.729
295.957
264.944
233.763
202.443
171.045
139.732
108.74
78.3341
49.9528
19.7674
331.628
310.466
289.728
274.249
261.869
253.024
247.691
244.196
244.664
250.368
263.379
275.965
285.683
293.481
300.315
306.37
311.688
316.211
319.836
322.451
323.713
323.875
324.187
325.189
326.559
328.212
329.12
327.529
320.952
310.179
296.94
282.509
267.358
251.484
234.915
217.669
198.489
177.159
161.092
158.414
163.483
171.377
185.415
204.115
227.891
254.533
283.044
314.165
348.309
385.552
425.242
465.749
505.152
541.27
573.062
601.657
628.22
653.458
677.294
699.204
718.575
735.027
748.485
759.034
766.818
771.946
774.498
774.535
772.116
767.306
760.177
750.813
739.308
725.769
710.312
693.07
674.195
653.849
632.172
609.265
585.191
560.023
533.85
506.751
478.802
450.087
420.692
390.706
360.215
329.315
298.116
266.726
235.219
203.621
171.981
140.45
109.255
78.6514
50.0618
19.736
331.557
310.285
289.54
274.117
261.731
252.878
247.591
244.103
244.497
250.185
263.26
275.881
285.559
293.321
300.156
306.228
311.571
316.104
319.74
322.398
323.648
323.823
324.199
325.143
326.406
327.999
328.768
326.836
320.054
309.206
295.915
281.427
266.222
250.325
233.785
216.639
197.764
176.773
160.751
157.786
163.083
171.009
184.803
203.341
226.786
253.203
281.782
313.051
347.283
384.545
424.167
464.594
503.978
540.302
572.619
601.907
629.158
655.024
679.455
701.977
722.018
739.181
753.342
764.546
772.914
778.55
781.534
781.929
779.795
775.199
768.221
758.952
747.497
733.976
718.513
701.244
682.31
661.853
639.993
616.823
592.414
566.848
540.221
512.625
484.15
454.895
424.959
394.441
363.444
332.072
300.442
268.666
236.82
204.927
173.027
141.258
109.844
79.0358
50.2329
19.7233
331.467
310.117
289.369
273.992
261.595
252.731
247.484
244.021
244.347
250.055
263.183
275.821
285.446
293.164
299.997
306.085
311.453
315.994
319.646
322.335
323.557
323.772
324.2
325.051
326.214
327.74
328.326
326.069
319.104
308.191
294.851
280.304
265.046
249.132
232.625
215.59
197.086
176.569
160.615
157.386
162.753
170.71
184.289
202.689
225.89
252.136
280.712
312.009
346.244
383.479
423.019
463.367
502.743
539.292
572.15
602.144
630.113
656.649
681.723
704.903
725.65
743.55
758.436
770.317
779.29
785.456
788.892
789.665
787.834
783.469
776.653
767.486
756.085
742.576
727.092
709.768
690.739
670.132
648.055
624.595
599.832
573.854
546.765
518.667
489.666
459.87
429.394
398.349
366.846
335
302.934
270.764
238.567
206.363
174.188
142.164
110.513
79.4947
50.4725
19.732
331.42
309.962
289.212
273.871
261.46
252.582
247.372
243.945
244.209
249.978
263.15
275.787
285.344
293.011
299.84
305.943
311.334
315.879
319.555
322.259
323.433
323.728
324.174
324.913
325.986
327.433
327.8
325.243
318.112
307.141
293.755
279.146
263.833
247.911
231.442
214.532
196.444
176.534
160.755
157.211
162.545
170.502
183.925
202.233
225.223
251.27
279.752
310.98
345.159
382.333
421.779
462.052
501.442
538.236
571.649
602.364
631.081
658.329
684.092
707.976
729.465
748.129
763.763
776.34
785.94
792.657
796.567
797.737
796.225
792.105
785.463
776.407
765.062
751.561
736.042
718.64
699.485
678.694
656.369
632.595
607.458
581.054
553.492
524.887
495.355
465.019
434.003
402.431
370.422
338.101
305.594
273.022
240.461
207.933
175.466
143.171
111.268
80.0333
50.7852
19.7641
331.399
309.817
289.065
273.753
261.321
252.429
247.251
243.872
244.083
249.953
263.162
275.779
285.254
292.864
299.685
305.801
311.214
315.763
319.465
322.156
323.299
323.678
324.105
324.736
325.729
327.077
327.198
324.367
317.086
306.064
292.632
277.958
262.592
246.666
230.246
213.476
195.829
176.655
161.342
157.426
162.573
170.479
183.79
202.004
224.739
250.524
278.83
309.921
343.998
381.082
420.429
460.637
500.066
537.132
571.115
602.563
632.056
660.057
686.557
711.189
733.455
752.91
769.314
782.609
792.857
800.146
804.551
806.136
804.961
801.1
794.645
785.709
774.423
760.926
745.36
727.86
708.552
687.548
664.946
640.835
615.304
588.458
560.413
531.294
501.228
470.349
438.793
406.692
374.177
341.377
308.424
275.44
242.505
209.639
176.866
144.284
112.112
80.656
51.178
19.8221
331.402
309.684
288.925
273.633
261.178
252.269
247.121
243.801
243.969
249.982
263.218
275.797
285.175
292.722
299.533
305.661
311.093
315.646
319.374
322.009
323.177
323.605
323.997
324.53
325.448
326.674
326.533
323.454
316.037
304.966
291.488
276.747
261.328
245.404
229.043
212.43
195.235
176.894
162.361
158.14
162.97
170.739
183.911
201.954
224.357
249.82
277.889
308.793
342.733
379.706
418.953
459.112
498.61
535.974
570.539
602.735
633.03
661.826
689.109
714.533
737.612
757.886
775.082
789.116
800.033
807.915
812.836
814.855
814.034
810.448
804.192
795.385
784.163
770.669
755.046
737.429
717.943
696.7
673.797
649.325
623.382
596.079
567.54
537.898
507.293
475.868
443.768
411.138
378.114
344.83
311.425
278.022
244.7
211.483
178.391
145.507
113.05
81.368
51.6649
19.9109
331.415
309.559
288.788
273.509
261.029
252.103
246.983
243.734
243.872
250.064
263.318
275.84
285.11
292.588
299.385
305.523
310.971
315.529
319.271
321.838
323.065
323.498
323.859
324.303
325.146
326.224
325.818
322.51
314.97
303.855
290.33
275.52
260.047
244.131
227.84
211.402
194.657
177.19
163.619
159.29
163.721
171.272
184.221
201.992
223.997
249.096
276.885
307.563
341.338
378.184
417.334
457.468
497.066
534.754
569.916
602.871
633.996
663.627
691.74
718
741.926
763.045
781.056
795.85
807.458
815.956
821.413
823.887
823.438
820.143
814.101
805.435
794.282
780.789
765.099
747.35
727.667
706.161
682.933
658.08
631.707
603.931
574.885
544.712
513.56
481.584
448.938
415.774
382.236
348.465
314.6
280.768
247.049
213.467
180.043
146.844
114.085
82.1744
52.265
20.0375
331.401
309.44
288.653
273.381
260.872
251.927
246.836
243.671
243.794
250.2
263.459
275.907
285.056
292.46
299.24
305.387
310.849
315.415
319.134
321.681
322.947
323.364
323.698
324.061
324.824
325.733
325.064
321.545
313.894
302.737
289.164
274.282
258.755
242.851
226.643
210.395
194.092
177.484
164.895
160.727
164.68
171.97
184.611
202.028
223.594
248.303
275.781
306.204
339.792
376.501
415.566
455.696
495.423
533.46
569.232
602.962
634.945
665.452
694.44
721.579
746.387
768.377
787.225
802.801
815.122
824.258
830.273
833.223
833.167
830.181
824.369
815.855
804.778
791.285
775.522
757.628
737.729
715.94
692.367
667.113
640.291
612.027
582.462
551.747
520.041
487.507
454.309
420.607
386.55
352.285
317.952
283.682
249.555
215.596
181.825
148.297
115.219
83.0761
52.9864
20.2053
331.388
309.326
288.516
273.246
260.707
251.743
246.679
243.613
243.739
250.39
263.64
275.997
285.015
292.34
299.101
305.253
310.727
315.303
318.964
321.552
322.809
323.212
323.518
323.807
324.481
325.203
324.278
320.566
312.813
301.617
287.995
273.038
257.459
241.569
225.456
209.412
193.536
177.743
166.049
162.347
165.704
172.714
184.986
201.998
223.101
247.404
274.549
304.698
338.084
374.653
413.642
453.788
493.67
532.081
568.478
602.999
635.867
667.29
697.199
725.259
750.983
773.871
793.578
809.957
823.015
832.812
839.41
842.859
843.217
840.561
834.997
826.647
815.653
802.161
786.319
768.268
748.138
726.048
702.11
676.437
649.149
620.381
590.283
559.015
526.746
493.647
459.891
425.643
391.061
356.294
321.486
286.767
252.22