/*--------------------------------*- C++ -*----------------------------------*\
| =========                 |                                                 |
| \\      /  F ield         | OpenFOAM: The Open Source CFD Toolbox           |
|  \\    /   O peration     | Version:  4.1                                   |
|   \\  /    A nd           | Web:      www.OpenFOAM.org                      |
|    \\/     M anipulation  |                                                 |
\*---------------------------------------------------------------------------*/
FoamFile
{
    version     2.0;
    format      ascii;
    class       surfaceScalarField;
    location    "1100";
    object      phi;
}
// * * * * * * * * * * * * * * * * * * * * * * * * * * * * * * * * * * * * * //

dimensions      [0 3 -1 0 0 0 0];

internalField   nonuniform List<scalar> 
52920
(
2732.77
-255.163
2980.8
-248.025
3214.78
-233.99
3423.86
-209.081
3597.48
-173.625
3723.07
-125.598
3790.16
-67.1
3798.75
-8.59583
3749.11
49.6365
3654.45
94.6553
3539.4
115.039
3421.11
118.289
3306.82
114.278
3198.32
108.496
3095.22
103.091
2998.52
96.6956
2914.16
84.3462
2853.94
60.2152
2831.16
22.7735
2846.86
-15.7138
2882.09
-35.2341
2913.65
-31.5686
2927.3
-13.6577
2923.07
4.21524
2913.02
10.045
2913.63
-0.61925
2941.35
-27.7306
3015.56
-74.2204
3158.22
-142.667
3379.07
-220.85
3670.16
-291.099
4016.55
-346.397
4405.06
-388.512
4824.67
-419.617
5262.05
-437.386
5698.25
-436.21
6109.27
-411.02
6469.78
-360.521
6760.44
-290.659
6973.87
-213.439
7112.44
-138.568
7183.14
-70.709
7192.23
-9.09523
7148.1
44.1291
7065.62
82.4801
6961.27
104.347
6846.79
114.473
6735.87
110.919
6659.28
76.5818
6627.33
31.9487
6548.7
78.6276
6259.91
288.788
5720.09
539.816
5056.1
663.993
4387.28
668.815
3746.5
640.787
3118.9
627.595
2480.63
638.268
1853.28
627.349
1290.95
562.334
822.554
468.392
572.473
250.085
374.177
198.292
42.6537
331.526
-285.803
328.453
-448.915
163.116
-446.68
-2.23755
3.91528
-450.591
867.07
-863.155
1707.6
-840.526
2166.51
-458.912
2475.98
-309.464
2918.63
-442.655
3315.9
-397.27
3710
-394.098
4156.23
-446.229
4585.11
-428.883
4994.53
-409.417
5342.94
-348.416
5439.17
-96.2295
5369.44
69.7371
5261.36
108.074
5090.68
170.687
4901.28
189.395
4737.38
163.906
4575.18
162.197
4329.45
245.734
4131.1
198.348
4188.77
-57.6698
4509.58
-320.809
5043.57
-533.996
5739.57
-695.996
6485.06
-745.492
7184.68
-699.62
7794.18
-609.499
8231.47
-437.294
8441.7
-210.223
8512.6
-70.9048
8378.56
134.046
334.523
2766.21
-520.046
3021.79
-503.607
3259.26
-471.462
3467.73
-417.559
3638.26
-344.159
3761.45
-248.795
3828.47
-134.124
3837.06
-17.1916
3785.23
101.457
3686.63
193.251
3567.08
234.583
3444.42
240.937
3326.14
232.55
3214.16
220.47
3108.62
208.627
3011.13
194.172
2927.35
168.12
2867.38
120.176
2843.7
46.4466
2859.7
-31.722
2899.36
-74.9029
2939.88
-72.0993
2965.62
-39.405
2975.11
-5.28701
2979.61
5.54006
2995.12
-16.1435
3037.95
-70.568
3127.76
-164.038
3285.38
-300.292
3517.22
-452.692
3812.35
-586.243
4154.53
-688.576
4529.88
-763.872
4927.62
-817.363
5337.03
-846.802
5743.61
-842.794
6126.85
-794.265
6462.22
-695.894
6728.97
-557.415
6917.83
-402.298
7029.71
-250.457
7071.14
-112.138
7048.76
13.279
6972.77
120.112
6860.21
195.042
6730.29
234.26
6595.84
248.923
6462.71
244.049
6356.53
182.755
6314.38
74.0994
6276.28
116.726
6052.5
512.569
5552.04
1040.27
4893.86
1322.18
4218.24
1344.43
3574.09
1284.94
2951.82
1249.86
2324.6
1265.48
1707.7
1244.25
1143.51
1126.53
632.229
979.667
228.616
653.703
-83.7881
510.695
-172.859
420.598
-293.422
449.013
-220.032
89.7297
-46.7594
-175.513
-78.2235
-419.123
-260.611
-680.769
-408.898
-692.237
-372.554
-495.257
-5.36736
-676.649
802.085
-1250.11
1982.55
-1577.74
2874.21
-1285.75
3212.6
-784.625
3450.3
-666.577
3820.54
-779.657
4287.45
-815.326
4527.87
-336.652
4590.47
7.14054
4610.01
88.5339
4538.34
242.351
4424.8
302.937
4323.61
265.102
4261.52
224.286
4221.64
285.608
4094.52
325.47
4005.52
31.334
4119.01
-434.298
4412.88
-827.871
4883.53
-1166.64
5460.47
-1322.44
6031.22
-1270.36
6544.02
-1122.3
6915.98
-809.252
7100.36
-394.606
7163.9
-134.443
7037.35
260.6
700.641
2787.71
-790.011
3044.98
-760.88
3280.14
-706.628
3483.71
-621.135
3648.76
-509.209
3768.39
-368.435
3834.53
-200.271
3842.55
-25.2142
3788.01
155.997
3684.65
296.597
3559.59
359.641
3431.54
368.983
3308.43
355.651
3192.52
336.369
3084.16
316.983
2984.52
293.806
2898.24
254.398
2835.5
182.9
2812.31
69.6269
2836.65
-56.0641
2892.35
-130.611
2952.61
-132.374
2998.74
-85.5343
3027.79
-34.3513
3050
-16.673
3080.39
-46.5504
3134.02
-124.199
3228.1
-258.13
3380.44
-452.64
3596.68
-668.933
3867.51
-857.083
4177.31
-998.376
4513.47
-1100.04
4871.94
-1175.84
5251.97
-1226.85
5644.22
-1235.05
6025.06
-1175.1
6362.49
-1033.33
6629.3
-824.232
6812.79
-585.788
6912.43
-350.11
6933.3
-133.007
6881.02
65.5528
6765.01
236.121
6600.87
359.182
6410.28
424.846
6210.91
448.283
6003.54
451.418
5794.78
391.51
5648.16
220.715
5597.86
167.019
5475.88
634.555
5098.12
1418.02
4520.35
1899.95
3887.92
1976.85
3269.9
1902.97
2668.22
1851.53
2057.16
1876.55
1447.64
1853.77
876.977
1697.2
410.204
1446.44
109.046
954.863
-234.762
854.5
-316.906
502.745
-316.697
448.803
-370.471
143.507
-338.119
-207.866
-345.078
-412.16
-454.129
-571.719
-486.324
-660.04
-367.952
-613.629
-158.722
-885.877
43.4752
-1452.31
339.144
-1873.41
1014.84
-1961.45
1993.7
-1763.49
2642.78
-1315.66
2942.11
-1078.98
3329.6
-1202.82
3613.74
-620.793
3790.47
-169.585
3938.07
-59.0666
3991.64
188.783
4002.05
292.529
4016.37
250.78
4026.42
214.233
4081.37
230.66
4050.31
356.533
3914.08
167.555
3808.45
-328.661
3785.34
-804.76
4003.22
-1384.52
4480.27
-1799.49
5042.44
-1832.54
5540.09
-1619.95
5875.55
-1144.71
6042.94
-561.997
6038.27
-129.772
5805.54
493.326
1153.25
2787.45
-1056.53
3037.85
-1011.28
3264.86
-933.647
3461.28
-817.555
3621.69
-669.624
3740.66
-487.418
3809.79
-269.404
3820.96
-36.3927
3766.12
210.838
3658.86
403.845
3528.19
490.31
3394.31
502.855
3265.97
483.976
3145.78
456.558
3033.88
428.877
2930.87
396.8
2841.57
343.692
2778.54
245.92
2762.39
85.7702
2802.51
-96.1915
2877.6
-205.709
2955.13
-209.916
3014.93
-145.339
3054.58
-74.0166
3084.29
-46.392
3118.1
-80.3633
3168.93
-175.035
3251.07
-340.286
3381.94
-583.516
3570.22
-857.219
3808.02
-1094.89
4080.43
-1270.79
4383.61
-1403.22
4727.72
-1519.96
5116.77
-1615.9
5531.3
-1649.58
5933.21
-1577.02
6282.35
-1382.46
6551.18
-1093.06
6730.59
-765.21
6823.91
-443.434
6837.57
-146.672
6776.02
127.105
6644.3
367.834
6452.02
551.465
6218.82
658.04
5964.85
702.246
5696.74
719.529
5412.5
675.747
5154.19
479.019
4994.81
326.401
4850.17
779.189
4531.04
1737.15
4028.72
2402.27
3457.99
2547.57
2886.04
2474.92
2318.94
2418.63
1730.22
2465.27
1127.26
2456.73
552.807
2271.65
173.382
1825.86
48.2193
1080.03
-112.845
1015.56
-234.038
623.94
-275.929
490.693
-487.982
355.562
-694.461
-1.38842
-786.793
-319.826
-857.435
-501.079
-842.025
-675.449
-692.258
-763.397
-538.269
-1039.87
-420.616
-1569.96
-211.829
-2082.19
145.381
-2318.66
549.488
-2167.59
882.884
-1649.05
1187.94
-1384.04
1963.88
-1978.76
3533.02
-2189.93
4131.25
-767.818
3816.94
255.251
3788.14
217.583
3879.9
200.766
3963.09
167.59
4002.7
174.617
4131.47
101.892
4343.14
144.865
4381.95
128.746
4232.54
-179.257
4013.23
-585.444
3720.32
-1091.61
3577
-1656.17
3765.04
-2020.59
4135.18
-1990.08
4546.09
-1555.62
5068.44
-1084.35
5296.09
-357.412
5178.55
610.86
1428.85
2758.22
-1309.82
2996.55
-1249.61
3214.17
-1151.28
3404.36
-1007.74
3561.98
-827.255
3682.48
-607.915
3757.25
-344.181
3775.04
-54.1945
3723.34
262.534
3614.68
512.498
3480.02
624.969
3341.41
641.453
3208.63
616.753
3084.52
580.665
2969.06
544.329
2862.96
502.892
2772.46
434.184
2712.95
305.421
2707.73
90.9841
2763.15
-151.625
2850.71
-293.278
2934.81
-294.023
2996.91
-207.442
3036.36
-113.476
3063.71
-73.7481
3092.21
-108.873
3132.79
-215.621
3197.91
-405.412
3306.72
-692.333
3469.59
-1020.1
3677.67
-1302.96
3923.04
-1516.17
4218.79
-1698.98
4581.39
-1882.56
4999.43
-2033.95
5432.8
-2082.95
5835.27
-1979.5
6170.71
-1717.91
6419.19
-1341.55
6577.93
-923.948
6654.32
-519.832
6656.6
-148.955
6590.21
193.496
6457.78
500.258
6262.86
746.382
6019.71
901.182
5745.28
976.674
5448.91
1015.9
5131.89
992.764
4816.42
794.485
4553.26
589.555
4308.57
1023.88
3960.27
2085.44
3491.34
2871.2
2976.79
3062.12
2458.85
2992.86
1934.71
2942.77
1370.68
3029.3
767.346
3060.06
196.537
2842.46
-85.7526
2108.15
-149.312
1143.59
-204.941
1071.19
-358.379
777.38
-526.049
658.362
-785.84
615.355
-1079.31
292.079
-1265.44
-133.693
-1341.93
-424.586
-1361.75
-655.628
-1274.13
-851.015
-1147.76
-1166.23
-1025.29
-1692.43
-836.546
-2270.94
-541.622
-2613.58
-241.163
-2468.05
-192.31
-1697.91
-591.949
-984.401
-1216.5
-1354.21
-1639.39
-1767.03
-1488.43
-918.781
-1295.54
62.3593
-1393.34
315.388
-1567.79
375.21
-1743.05
342.855
-1836.75
268.314
-1949.57
214.717
-1937.72
133.016
-1769.35
-39.6241
-1601.6
-347.012
-1453.29
-733.75
-1351.94
-1192.96
-1275.58
-1732.53
-1080.6
-2215.57
-783.2
-2287.48
-788.874
-1549.95
-1501.06
-372.167
-2398.44
539.969
-2808.82
1021.24
1598.32
2702.58
-1552.66
2933.29
-1480.32
3144.34
-1362.32
3329.45
-1192.87
3484.55
-982.356
3606.43
-729.805
3686.81
-424.567
3711.7
-79.0915
3663.92
310.305
3554.59
621.828
3416.78
762.769
3274.52
783.711
3138.44
752.822
3011.5
707.598
2893.69
662.129
2786.44
610.132
2697.73
522.888
2644.68
358.463
2650.35
85.3099
2715.48
-216.771
2806.01
-383.817
2887.12
-375.141
2943.6
-263.928
2976.44
-146.328
2996.39
-93.702
3016.07
-128.565
3044.75
-244.311
3094.25
-454.923
3185.32
-783.408
3326.62
-1161.41
3511.28
-1487.62
3748.14
-1753.05
4062.52
-2013.36
4455.72
-2275.76
4890.07
-2468.3
5315.99
-2508.88
5695.3
-2358.81
6002.58
-2025.19
6223.84
-1562.82
6358.74
-1058.85
6415.83
-576.931
6403.48
-136.604
6328.07
268.897
6191.91
636.414
5996.7
941.593
5753.7
1144.18
5475.89
1254.48
5170.11
1321.67
4838.89
1323.98
4497.6
1135.78
4168.83
918.321
3823.65
1369.06
3408.45
2500.63
2942.38
3337.27
2474.79
3529.71
2012.71
3454.93
1535.95
3419.53
997.958
3567.29
383.855
3674.17
-172.786
3399.11
-438.457
2373.82
-589.335
1294.47
-725.579
1207.43
-930.337
982.138
-1136.55
864.578
-1334.85
813.657
-1562.37
519.59
-1758.41
62.3548
-1866.99
-316.013
-1918.77
-603.843
-1887.47
-882.32
-1797.1
-1256.6
-1686.36
-1803.18
-1528.92
-2428.37
-1266.17
-2876.34
-916.589
-2817.63
-720.197
-1894.3
-1008.95
-695.642
-1648.8
-714.368
-2212.38
-1203.45
-2388.26
-742.898
-2326.83
0.929603
-2296.51
285.067
-2306.75
385.447
-2305.94
342.049
-2276.83
239.2
-2219.09
156.974
-2088.58
2.51095
-1949.95
-178.255
-1867.94
-429.02
-1836.15
-765.54
-1882.21
-1146.9
-2037.99
-1576.75
-2273.85
-1979.71
-2484.78
-2076.54
-2589.67
-1445.06
-2912.41
-49.4285
-3524.83
1152.4
-4098.2
1594.61
1938.37
2643.59
-1787.04
2865.89
-1702.62
3068.08
-1564.51
3245.71
-1370.5
3396.46
-1133.11
3518.91
-852.258
3605.35
-511.02
3638.57
-112.317
3595.48
353.388
3485.27
732.037
3343.9
904.139
3197.89
929.712
3058.9
891.799
2930.04
836.454
2811.63
780.541
2706.06
715.688
2622.42
606.522
2577.57
403.311
2591.47
71.403
2659.24
-284.549
2744.96
-469.547
2817.22
-447.406
2864.06
-310.782
2887.35
-169.627
2897.81
-104.171
2907.61
-138.376
2924.78
-261.484
2961.34
-491.488
3037.65
-859.731
3159.66
-1283.43
3331.49
-1659.45
3581.39
-2002.95
3927.19
-2359.17
4339.42
-2688
4765.13
-2894.02
5164.44
-2908.19
5514.02
-2708.4
5795.2
-2306.37
5994.07
-1761.7
6109.54
-1174.32
6150.37
-617.764
6124.45
-110.687
6038.28
355.065
5893.07
781.623
5690.67
1143.98
5443.06
1391.79
5161.66
1535.88
4849.96
1633.36
4510.81
1663.12
4158.09
1488.5
3788.12
1288.28
3356.71
1800.47
2868.18
2989.15
2394.35
3811.1
1969.77
3954.29
1564.88
3859.83
1141.21
3843.19
636.81
4071.69
19.4132
4291.56
-532.575
3951.1
-852.571
2693.81
-1112.9
1554.8
-1332.76
1427.3
-1561.36
1210.75
-1753.04
1056.25
-1898.77
959.385
-2062.41
683.23
-2240.24
240.183
-2374.84
-181.409
-2449.84
-528.844
-2456.5
-875.662
-2403.05
-1310.04
-2322.1
-1884.12
-2208.43
-2542.05
-2009.6
-3075.16
-1686.3
-3140.93
-1349.43
-2231.17
-1403.31
-641.766
-1932.92
-184.755
-2455.71
-680.667
-2636.72
-561.883
-2584.56
-51.2305
-2529.69
230.191
-2523.01
378.768
-2553.86
372.904
-2596.92
282.252
-2617.8
177.855
-2628.86
13.5772
-2658.1
-149.014
-2723.77
-363.356
-2840.16
-649.149
-3023.13
-963.929
-3303.25
-1296.64
-3690.76
-1592.19
-4118.52
-1648.79
-4448.37
-1115.21
-4673.11
175.317
-4923.99
1403.27
-5265.3
1935.92
2217.83
2578
-2012.77
2790.38
-1915.01
2982.01
-1756.15
3150.52
-1539.02
3295.27
-1277.86
3416.76
-973.757
3509
-603.266
3552.62
-155.942
3517.54
388.455
3408.86
840.71
3265.24
1047.75
3116.29
1078.65
2975.19
1032.9
2845.66
965.975
2728.8
897.39
2627.88
816.604
2551.69
682.706
2514.68
440.314
2532.2
53.8658
2596.01
-348.367
2672.04
-545.583
2732.84
-508.216
2768.53
-346.477
2780.95
-182.059
2780.87
-104.102
2780.28
-137.794
2786.61
-267.829
2812.22
-517.108
2874.47
-921.987
2980.62
-1389.58
3155.11
-1833.95
3433.95
-2281.8
3805.57
-2730.79
4214.2
-3096.63
4613.11
-3292.93
4981.59
-3276.67
5306.53
-3033.34
5568.79
-2568.63
5750.68
-1943.59
5849.93
-1273.58
5876.16
-643.996
5837.33
-71.8575
5740.64
451.747
5584.91
937.354
5371.44
1357.45
5114.13
1649.09
4824.89
1825.11
4505.35
1952.9
4160.03
2008.44
3801.88
1846.65
3398.71
1691.44
2888.03
2311.16
2330.9
3546.27
1852.38
4289.63
1473.38
4333.28
1128.9
4204.31
763.293
4208.8
306.501
4528.49
-286.117
4884.18
-831.963
4496.94
-1207.55
3069.4
-1540.97
1888.21
-1807.65
1693.98
-2051.04
1454.14
-2245.62
1250.84
-2385.7
1099.46
-2528.38
825.909
-2690.8
402.604
-2831.94
-40.2664
-2925.57
-435.215
-2964.06
-837.171
-2943.1
-1331.01
-2901.29
-1925.93
-2838.82
-2604.51
-2714.36
-3199.63
-2460.19
-3395.1
-2043.33
-2648.02
-1795.96
-889.131
-2091.43
110.713
-2609.38
-162.719
-2884.75
-286.513
-2915.76
-20.2146
-2888.51
202.94
-2898.48
388.736
-2973.35
447.776
-3080.53
389.431
-3187.09
284.413
-3303.84
130.323
-3442.03
-10.818
-3620.03
-185.355
-3846.59
-422.593
-4136.39
-674.132
-4510.87
-922.157
-4981.49
-1121.57
-5510.33
-1119.95
-5986.55
-638.989
-6267.02
455.782
-6415.02
1551.28
-6612.7
2133.59
2407.35
2506.78
-2229
2709.11
-2117.34
2891.03
-1938.08
3050.68
-1698.67
3188.01
-1415.19
3305.46
-1091.21
3400.34
-698.156
3453.92
-209.523
3429.44
412.928
3325.5
944.649
3182.33
1190.92
3032.61
1228.37
2891.35
1174.15
2763.34
1093.98
2650.63
1010.09
2556.73
910.5
2488.65
750.784
2457.03
471.921
2472.77
38.1175
2527.52
-403.127
2591.63
-609.694
2640.73
-557.333
2665.29
-371.041
2666.29
-183.069
2654.81
-92.6323
2643.15
-126.145
2639.08
-263.768
2654.35
-532.383
2701.97
-969.618
2799.39
-1487.01
2993.04
-2027.6
3304.32
-2593.08
3683.8
-3110.28
4069.68
-3482.52
4436.41
-3659.67
4779.31
-3619.57
5087.29
-3341.32
5336.2
-2817.55
5503.85
-2111.24
5587.91
-1357.65
5599.58
-655.665
5547.73
-20.0151
5441.39
558.086
5275.44
1103.3
5049.69
1583.2
4780.24
1918.53
4480.29
2125.06
4150.96
2282.23
3800.34
2359.06
3438.34
2208.65
2999.12
2130.65
2409.27
2901.01
1793.12
4162.41
1320.96
4761.79
994.297
4659.94
710.272
4488.33
402.604
4516.46
13.7276
4917.36
-511.901
5409.8
-1042.7
5027.75
-1479
3505.69
-1871.47
2280.68
-2170.53
1993.04
-2432
1715.6
-2646.02
1464.86
-2803.55
1256.99
-2946.41
968.77
-3098.04
554.239
-3236.98
98.6754
-3342.06
-330.137
-3404.31
-774.918
-3415.55
-1319.77
-3416.48
-1925.01
-3407.93
-2613.06
-3360.76
-3246.79
-3204.86
-3551
-2839.64
-3013.25
-2410.1
-1318.67
-2384.04
84.6548
-2786.73
239.967
-3137.48
64.2392
-3286.75
129.056
-3339
255.188
-3379.94
429.674
-3467.36
535.204
-3600.41
522.48
-3760.2
444.198
-3944.16
314.288
-4146.68
191.701
-4385.85
53.8144
-4673.88
-134.564
-5019.11
-328.902
-5433.78
-507.49
-5924.85
-630.498
-6461.12
-583.677
-6971.86
-128.249
-7305.36
789.283
-7463.57
1709.49
-7596.97
2266.99
2530.03
2431.56
-2435.36
2628.09
-2313.87
2804.15
-2114.14
2956.68
-1851.2
3086.12
-1544.65
3196.41
-1201.5
3288.54
-790.287
3347.58
-268.573
3333.05
427.45
3236.01
1041.68
3096.24
1330.68
2948.61
1375.99
2809.94
1312.82
2686.2
1217.71
2580.12
1116.16
2494.55
996.061
2433.63
811.69
2403.77
501.774
2412.38
29.4952
2454.24
-444.995
2505.75
-661.211
2544.36
-595.948
2558.98
-385.677
2548.65
-172.755
2525.12
-69.1106
2501.78
-102.814
2487.5
-249.503
2491.53
-536.425
2524.59
-1002.68
2624.47
-1586.9
2849.14
-2252.28
3183.87
-2927.82
3551.36
-3477.77
3905.08
-3836.24
4242.65
-3997.24
4566.71
-3943.64
4862.7
-3637.31
5100.63
-3055.49
5254.52
-2265.15
5323.24
-1426.37
5319.76
-652.192
5254.9
44.8442
5140.52
672.456
4965.78
1278.04
4728.13
1820.85
4446.08
2200.57
4134.28
2436.85
3794.49
2622.02
3440.04
2713.51
3073.01
2575.68
2588.37
2615.29
1917.62
3571.76
1256.41
4823.61
805.571
5212.64
536.514
4928.99
312.58
4712.27
69.5876
4759.45
-245.382
5232.33
-699.549
5863.97
-1215.79
5543.99
-1710.64
4000.54
-2149.97
2720.01
-2471.25
2314.31
-2748.62
1992.97
-2982.29
1698.54
-3160.26
1434.95
-3310.08
1118.59
-3455.78
699.944
-3591.12
234.011
-3701.21
-220.041
-3779.77
-696.36
-3826.11
-1273.43
-3870.76
-1880.36
-3916.43
-2567.39
-3944.84
-3218.39
-3892.34
-3603.5
-3639.99
-3265.6
-3176.18
-1782.48
-2932.16
-159.359
-3151.87
459.676
-3462.13
374.497
-3670.11
337.036
-3793.83
378.905
-3878.53
514.375
-3977.19
633.865
-4115.07
660.364
-4291.27
620.397
-4506.05
529.064
-4741.8
427.451
-5006
318.018
-5317.62
177.055
-5677.89
31.3659
-6092.92
-92.4565
-6562.68
-160.735
-7072.09
-74.2687
-7557.53
357.187
-7887.92
1119.67
-8052.65
1874.22
-8156.76
2371.09
2617
2358.16
-2647.06
2554.78
-2510.5
2725.14
-2284.5
2869.63
-1995.69
2991.07
-1666.09
3094.47
-1304.91
3182.1
-877.924
3241.61
-328.088
3232.46
436.598
3141.55
1132.59
3007.31
1464.92
2864.88
1518.41
2731.96
1445.73
2615.27
1334.4
2517.65
1213.78
2440.58
1073.12
2384.92
867.339
2352.91
533.774
2349.48
32.9173
2375.1
-470.614
2413.69
-699.814
2443.53
-625.799
2450.22
-392.379
2429.37
-151.914
2393.74
-33.4852
2358.67
-67.7553
2334.31
-225.159
2325.29
-527.409
2346.43
-1023.83
2462.11
-1702.58
2721.2
-2511.37
3062.92
-3269.54
3403.72
-3818.57
3724.04
-4156.57
4037.56
-4310.77
4346.81
-4252.89
4632.37
-3922.87
4859.51
-3282.64
4999.2
-2404.83
5052.19
-1479.36
5033.05
-633.057
4955.49
122.394
4835.21
792.737
4653.92
1459.32
4405.98
2068.78
4112.28
2494.27
3788.83
2760.29
3439.48
2971.37
3083.79
3069.19
2707.95
2951.52
2164.84
3158.38
1414.25
4322.35
727.026
5510.83
312.93
5626.73
108.346
5133.57
-40.708
4861.32
-218.327
4937.06
-508.03
5522.04
-936.199
6292.13
-1433.16
6040.96
-1948.82
4516.2
-2403.3
3174.5
-2733.95
2644.96
-3020.07
2279.09
-3265.81
1944.28
-3459.42
1628.56
-3617.9
1277.07
-3762.91
844.96
-3897.4
368.497
-4011.66
-105.778
-4104.1
-603.914
-4186.6
-1190.93
-4271.35
-1795.61
-4369.4
-2469.34
-4468.69
-3119.1
-4514.63
-3557.55
-4384.93
-3395.31
-3972.22
-2195.19
-3618.68
-512.892
-3651.07
492.062
-3871.08
594.51
-4084.94
550.896
-4249.45
543.414
-4372.23
637.153
-4487.77
749.402
-4626.24
798.842
-4797.38
791.532
-5007.07
738.755
-5243.84
664.225
-5504.94
579.115
-5802.92
475.033
-6141.22
369.671
-6526
292.322
-6961.95
275.214
-7439.98
403.761
-7881.7
798.913
-8183.52
1421.49
-8343.56
2034.27
-8435.04
2462.57
2689.52
2296.72
-2856.91
2485.91
-2699.69
2645.98
-2444.58
2780.45
-2130.16
2893.67
-1779.32
2991.67
-1402.92
3077.63
-963.893
3138.64
-389.105
3132.58
442.651
3045.31
1219.85
2916.69
1593.54
2781.6
1653.48
2657.18
1570.15
2549.8
1441.77
2461.59
1301.98
2392.32
1142.39
2339.76
919.891
2302.18
571.336
2282.38
52.7131
2288.23
-476.472
2313.08
-724.681
2335.69
-648.419
2336.78
-393.481
2306.79
-121.932
2259.86
13.4316
2214.02
-21.9298
2179.85
-191.002
2156.21
-503.784
2171.96
-1039.59
2315.58
-1846.21
2603.2
-2799
2934.12
-3600.47
3240.71
-4125.17
3530.34
-4446.21
3823.23
-4603.65
4118.28
-4547.95
4392.81
-4197.39
4608.65
-3498.49
4733.56
-2529.75
4770.52
-1516.33
4735.07
-597.609
4645.3
212.156
4521.81
916.23
4337.06
1644.07
4081.41
2324.43
3777.98
2797.7
3444.21
3094.06
3087.92
3327.66
2734.37
3422.74
2342.6
3343.29
1727.2
3773.77
904.941
5144.61
210.615
6205.16
-163.371
6000.72
-290.973
5261.16
-353.555
4923.91
-535.004
5118.51
-888.221
5875.25
-1302.45
6706.37
-1735.53
6474.04
-2208.6
4989.27
-2640.35
3606.24
-2968.66
2973.27
-3255.58
2566.01
-3505.05
2193.75
-3707.86
1831.38
-3874.37
1443.58
-4022.84
993.423
-4160.55
506.209
-4282.27
15.9495
-4391.84
-494.349
-4508.75
-1074.02
-4627.25
-1677.11
-4773.59
-2322.99
-4936.6
-2956.09
-5072.56
-3421.59
-5064.84
-3403.03
-4760.6
-2499.42
-4358.04
-915.454
-4204.8
338.822
-4320.07
709.777
-4509.7
740.525
-4693.79
727.51
-4846.95
790.309
-4984.61
887.062
-5131.27
945.507
-5299.23
959.489
-5496.11
935.632
-5719.52
887.633
-5965.77
825.368
-6241.8
751.066
-6555.33
683.199
-6912.62
649.612
-7317.87
680.465
-7748.9
834.789
-8137.03
1187.05
-8413.73
1698.19
-8576.14
2196.67
-8676.47
2562.9
2765.29
2233.12
-3061.51
2413.16
-2879.73
2563.29
-2594.71
2688.57
-2255.45
2793.54
-1884.29
2885.03
-1494.42
2968.84
-1047.7
3033.27
-453.541
3032.69
443.22
2949.45
1303.08
2826.46
1716.52
2699.69
1780.25
2585.28
1684.55
2488.29
1538.76
2409.45
1380.82
2346.77
1205.06
2295.42
971.237
2249.79
616.957
2210.06
92.4322
2192.25
-458.67
2201.61
-734.047
2217.78
-664.598
2215.32
-391.033
2178.09
-84.7109
2121.39
70.1222
2066.52
32.9227
2023.26
-147.751
1985.13
-465.663
2005.61
-1060.08
2184.72
-2025.32
2487.78
-3102.06
2793.5
-3906.2
3064.29
-4395.96
3326.43
-4708.34
3599.2
-4876.42
3878.3
-4827.07
4140.59
-4459.68
4345.13
-3703.03
4455.21
-2639.83
4475.92
-1537.04
4422.64
-544.332
4320.53
314.255
4196.77
1039.98
4012.44
1828.39
3752.52
2584.34
3442.12
3108.09
3100.41
3435.76
2741.4
3686.67
2392.97
3771.16
1974.34
3761.92
1276.28
4471.82
396.486
6024.4
-281.642
6883.28
-589.9
6308.98
-642.742
5314
-721.785
5002.95
-1021.29
5418.01
-1428.47
6282.44
-1771.38
7049.27
-2090.73
6793.39
-2474.82
5373.36
-2861.55
3992.96
-3180.04
3291.76
-3461.29
2847.26
-3708.19
2440.64
-3914.8
2037.99
-4088.05
1616.82
-4243.36
1148.73
-4389.08
651.933
-4522.99
149.859
-4651.79
-365.549
-4796.38
-929.421
-4946.73
-1526.77
-5135.48
-2134.24
-5353.43
-2738.15
-5568.74
-3206.28
-5679.5
-3292.28
-5521.1
-2657.82
-5134.54
-1302.01
-4826.18
30.4605
-4805.5
689.096
-4931.49
866.516
-5104.38
900.392
-5271.34
957.273
-5427.21
1042.94
-5586.71
1105.01
-5760.23
1133
-5954.53
1129.94
-6171.09
1104.19
-6410.68
1064.96
-6679.51
1019.89
-6982.91
986.604
-7321.38
988.078
-7690.61
1049.69
-8070.23
1214.41
-8410.4
1527.22
-8661.79
1949.58
-8820.94
2355.82
-8924.24
2666.21
2843.56
2167.53
-3258.18
2338.95
-3051.15
2481.36
-2737.12
2599.3
-2373.4
2696.7
-1981.7
2780.62
-1578.34
2859.84
-1126.93
2926.36
-520.067
2932.58
436.992
2855.05
1380.61
2738.44
1833.12
2620.39
1898.29
2516.27
1788.67
2429.46
1625.56
2359.02
1451.25
2301.45
1262.63
2249.86
1022.82
2194.82
671.986
2132.9
154.336
2087.54
-413.319
2078.71
-725.232
2088.31
-674.202
2083.77
-386.506
2041.57
-42.5263
1976.91
134.769
1915.07
94.7378
1863.87
-96.5634
1813.66
-415.462
1850.73
-1097.17
2066.2
-2240.8
2368.41
-3404.28
2640.25
-4178.04
2877.13
-4632.84
3113.63
-4944.85
3364.43
-5127.22
3624.9
-5087.55
3874.52
-4709.3
4069.31
-3897.82
4165.82
-2736.34
4170.61
-1541.84
4096.67
-470.403
3980.32
430.6
3858.02
1162.27
3677.94
2008.47
3417.81
2844.47
3103.84
3422.05
2757.56
3782.03
2401.29
4042.94
2059.1
4113.35
1599.17
4221.85
813.278
5257.71
-94.1196
6931.8
-723.104
7512.26
-984.093
6569.97
-1065.35
5395.25
-1273.53
5211.13
-1659.85
5804.32
-2016.32
6638.91
-2241.29
7274.23
-2436.58
6988.69
-2725.5
5662.28
-3065.33
4332.8
-3370.35
3596.78
-3641.75
3118.67
-3882.33
2681.22
-4089.39
2245.06
-4268.61
1796.04
-4433.52
1313.64
-4592.03
810.44
-4743.18
301.012
-4891.49
-217.243
-5054.47
-766.433
-5236.49
-1344.75
-5459.84
-1910.9
-5722.94
-2475.04
-6004.22
-2925
-6222.6
-3073.89
-6222.93
-2657.49
-5932.24
-1592.69
-5555.78
-346.002
-5385.18
518.492
-5396.58
877.917
-5507.32
1011.13
-5651.76
1101.72
-5804.44
1195.62
-5966.8
1267.36
-6143.85
1310.05
-6339.77
1325.86
-6556.43
1320.85
-6795.22
1303.75
-7059.58
1284.25
-7351.33
1278.36
-7668.46
1305.2
-8004.53
1385.77
-8341.03
1550.91
-8639.8
1825.98
-8864.87
2174.65
-9013.56
2504.5
-9111.87
2764.52
2922.09
2099.48
-3444.83
2264.93
-3216.6
2401.18
-2873.37
2512.43
-2484.65
2603.14
-2072.42
2680.14
-1655.34
2753.69
-1200.48
2819.98
-586.369
2832.72
424.251
2762.55
1450.77
2653.66
1942.01
2544.64
2007.32
2450.29
1883
2372.48
1703.37
2308.77
1514.95
2254.54
1316.86
2201.57
1075.79
2137.05
736.496
2052.82
238.556
1977.07
-337.578
1946.99
-695.163
1948.76
-675.987
1942.76
-380.516
1897.36
2.86605
1826.31
205.804
1759.81
161.226
1701.5
-38.2728
1643.79
-357.764
1708.7
-1162.09
1954.83
-2486.93
2240.96
-3690.41
2475.83
-4412.92
2681.91
-4838.92
2892.89
-5155.84
3118.69
-5353.02
3358.34
-5327.2
3596.52
-4947.48
3785.15
-4086.46
3871.16
-2822.36
3861.99
-1532.68
3764.86
-373.282
3630.34
565.115
3506.89
1285.72
3332.99
2182.36
3076.54
3100.91
2762.74
3735.85
2416.08
4128.68
2068.81
4390.21
1730.83
4451.32
1214.31
4738.38
347.927
6124.08
-549.226
7828.96
-1120.8
8083.83
-1389.06
6838.22
-1587.91
5594.1
-1910.37
5533.6
-2271.54
6165.49
-2518.95
6886.32
-2634.33
7389.62
-2733.34
7087.69
-2949.31
5878.25
-3251.16
4634.65
-3541.12
3886.73
-3800.69
3378.25
-4033.45
2913.98
-4239.7
2451.3
-4425
1981.34
-4601.27
1489.92
-4775.08
984.244
-4945.72
471.66
-5113.78
-49.1836
-5293.96
-586.251
-5504.51
-1134.2
-5750.11
-1665.3
-6047.74
-2177.41
-6379.2
-2593.54
-6685.89
-2767.2
-6838.8
-2504.58
-6713.74
-1717.75
-6403.53
-656.211
-6156.67
271.631
-6050.06
771.307
-6059.11
1020.18
-6138.1
1180.71
-6254.3
1311.81
-6396.65
1409.72
-6562.02
1475.42
-6750.13
1513.96
-6960.79
1531.51
-7193.71
1536.67
-7449.59
1540.13
-7728.13
1556.9
-8026.69
1603.77
-8339.07
1698.15
-8649.77
1861.61
-8930.58
2106.8
-9157.46
2401.53
-9330.22
2677.26
-9461.48
2895.78
3022.98
2030.76
-3633.44
2191.92
-3377.76
2319.93
-3001.39
2423
-2587.72
2507.31
-2156.73
2579.39
-1727.43
2649.18
-1270.28
2714.83
-652.021
2733.27
405.799
2671.46
1512.57
2571.85
2041.61
2472.36
2106.81
2387.05
1968.31
2316.61
1773.8
2257.54
1574.02
2204.5
1369.88
2148.6
1131.68
2075.14
809.951
1971.39
342.288
1866.06
-232.26
1812.57
-641.681
1804.25
-667.684
1795.67
-371.951
1747.33
51.1991
1670.93
282.19
1601.5
230.63
1535.54
27.6696
1477.17
-299.412
1579.18
-1264.11
1845.32
-2753.07
2103.9
-3949
2302.81
-4611.83
2480.91
-5017.02
2665.33
-5340.26
2863.35
-5551.05
3081.42
-5545.27
3310.94
-5177.01
3498.14
-4273.66
3577.91
-2902.13
3559.19
-1513.97
3439.3
-253.394
3281.85
722.555
3148.91
1418.66
2979.44
2351.82
2729.11
3351.25
2418.95
4046.01
2076.98
4470.64
1745.08
4722.12
1404.6
4791.8
813.605
5329.37
-114.627
7052.31
-957.896
8672.23
-1474.28
8600.21
-1796.92
7160.86
-2113.65
5910.83
-2463.28
5883.23
-2740.09
6442.29
-2891.08
7037.31
-2933.48
7432.02
-2975.69
7129.91
-3146.9
6049.46
-3420.14
4907.88
-3694.2
4160.8
-3941.62
3625.67
-4166.71
3139.07
-4372.23
2656.82
-4563.99
2173.1
-4752.21
1678.14
-4941.85
1173.88
-5131.96
661.772
-5320.7
139.561
-5520
-386.953
-5747.16
-907.043
-6008.41
-1404.05
-6329.35
-1856.47
-6694.17
-2228.72
-7063.24
-2398.14
-7340.86
-2226.96
-7405.94
-1652.68
-7276.62
-785.529
-7092.88
87.8893
-6955
633.425
-6891.93
957.115
-6901.05
1189.83
-6963.57
1374.34
-7067.51
1513.66
-7206.25
1614.15
-7376.16
1683.87
-7574.69
1730.05
-7799.62
1761.6
-8049.54
1790.05
-8322.88
1830.24
-8616.87
1897.76
-8926.06
2007.34
-9238.35
2173.9
-9533.82
2402.27
-9796.51
2664.23
-10025.1
2905.84
-10215.4
3086.12
3158.42
1965.59
-3814.81
2116.49
-3528.67
2234.39
-3119.3
2329.13
-2682.47
2406.98
-2234.58
2474.51
-1794.96
2542.27
-1338.05
2609.1
-718.857
2633.73
381.165
2580.49
1565.8
2491.1
2131
2401.66
2196.25
2324.73
2045.23
2260.04
1838.49
2203.51
1630.54
2149.55
1423.84
2089
1192.22
2007.39
891.555
1889.89
459.776
1760.79
-103.17
1683.67
-564.564
1662.53
-646.563
1648.13
-357.564
1594.74
104.574
1512.78
364.137
1440.82
302.578
1365.12
103.355
1315.78
-250.087
1461.11
-1409.45
1733.38
-3025.35
1957.56
-4173.19
2123.77
-4778.04
2275.89
-5169.15
2432.47
-5496.84
2601.32
-5719.9
2798.6
-5742.55
3022.62
-5401.03
3212.11
-4463.16
3289.16
-2979.19
3266.8
-1491.61
3127.65
-114.246
2944.42
905.775
2792.14
1570.93
2621.26
2522.7
2376.98
3595.52
2073.35
4349.63
1742.12
4801.86
1431.02
5033.21
1076.63
5146.18
398.588
6007.41
-551.65
8002.54
-1306.4
9426.97
-1782.16
9075.98
-2164.77
7543.47
-2546.2
6292.26
-2864.6
6201.63
-3063.62
6641.3
-3154.37
7128.06
-3159.28
7436.92
-3177.17
7147.8
-3324.23
6196.51
-3574.3
5157.96
-3832.03
4418.52
-4068.04
3861.68
-4286.54
3357.57
-4492.01
2862.29
-4690.2
2371.29
-4889.41
1877.35
-5093.35
1377.82
-5301.4
869.825
-5511.67
349.822
-5728.8
-169.82
-5966.4
-669.446
-6241.11
-1129.33
-6568.75
-1528.83
-6949.4
-1848.07
-7350.45
-1997.09
-7705.03
-1872.38
-7923.84
-1433.86
-7996.39
-712.979
-7964.66
56.1567
-7902.24
571.011
-7857.5
912.368
-7855.74
1188.07
-7897.25
1415.85
-7979.24
1595.65
-8099.36
1734.28
-8255.16
1839.67
-8443.95
1918.83
-8662.88
1980.53
-8909.4
2036.58
-9180.8
2101.64
-9473.33
2190.29
-9780.97
2314.98
-10092.7
2485.61
-10392
2701.61
-10665.1
2937.3
-10906.5
3147.2
-11105.9
3285.53
3299.13
1896.31
-3986.34
2037.4
-3669.75
2147.14
-3229.04
2235.08
-2770.42
2306.66
-2306.18
2368.28
-1856.58
2432.5
-1402.28
2500.8
-787.162
2532.69
349.265
2488.11
1610.37
2408.8
2210.3
2329.27
2275.78
2260
2114.48
2199.66
1898.82
2144.05
1686.14
2087.74
1480.15
2022.17
1257.78
1935.03
978.686
1811.23
583.556
1666.41
41.6395
1567.34
-465.51
1530.96
-610.2
1505.66
-332.281
1442.83
167.395
1353.89
453.057
1278.46
377.985
1190.34
191.456
1162.62
-222.389
1352.65
-1599.5
1615.81
-3288.52
1803.22
-4360.61
1940.73
-4915.56
2068.05
-5296.48
2196.19
-5624.98
2336.33
-5860.04
2514.48
-5920.71
2734.76
-5621.32
2927.2
-4655.6
3002.35
-3054.34
2978.91
-1468.18
2823.74
40.9219
2618.41
1111.09
2442.21
1747.12
2262.74
2702.16
2022.37
3835.89
1727.68
4644.31
1414.05
5115.48
1126.34
5320.92
737.515
5535
-32.8526
6777.77
-954.877
8924.56
-1597.25
10069.3
-2040.78
9519.51
-2462.48
7965.17
-2861.44
6691.21
-3136.32
6476.51
-3285.95
6790.94
-3346.79
7188.9
-3339.15
7429.28
-3352.78
7161.43
-3486.42
6330.15
-3715.69
5387.23
-3957.35
4660.18
-4183.31
4087.65
-4396.7
3570.97
-4602.81
3068.39
-4806.79
2575.27
-5014.89