/*--------------------------------*- C++ -*----------------------------------*\
| =========                 |                                                 |
| \\      /  F ield         | OpenFOAM: The Open Source CFD Toolbox           |
|  \\    /   O peration     | Version:  4.1                                   |
|   \\  /    A nd           | Web:      www.OpenFOAM.org                      |
|    \\/     M anipulation  |                                                 |
\*---------------------------------------------------------------------------*/
FoamFile
{
    version     2.0;
    format      ascii;
    class       volVectorField;
    location    "1100";
    object      U;
}
// * * * * * * * * * * * * * * * * * * * * * * * * * * * * * * * * * * * * * //

dimensions      [0 1 -1 0 0 0 0];

internalField   nonuniform List<vector> 
26785
(
(3.49427e-16 -0.058269 21.2868)
(5.56732e-16 -0.0519399 22.4872)
(-4.52259e-17 -0.0450132 23.5129)
(-1.94902e-15 -0.0349351 24.3246)
(1.66177e-15 -0.0214189 24.8726)
(3.61074e-15 -0.00338695 25.095)
(7.18539e-15 0.0178473 24.9408)
(4.04123e-15 0.0382275 24.4182)
(2.43133e-15 0.0574226 23.5564)
(5.73667e-16 0.071212 22.4168)
(6.30501e-15 0.0763728 21.1424)
(3.09229e-15 0.0755963 19.8787)
(1.48484e-15 0.0723137 18.6949)
(5.14512e-16 0.0685139 17.6041)
(5.09546e-16 0.0650512 16.5984)
(8.11483e-16 0.061443 15.6687)
(1.14576e-15 0.0557825 14.8224)
(1.35718e-15 0.0457449 14.0983)
(2.69664e-15 0.0309207 13.563)
(1.11844e-15 0.0166791 13.2494)
(1.02415e-15 0.00974143 13.0958)
(-1.61489e-15 0.0112586 12.9831)
(7.28736e-16 0.0177147 12.8165)
(2.9329e-15 0.0238337 12.5668)
(6.36233e-15 0.0254742 12.2709)
(8.40293e-15 0.0212093 11.9982)
(3.59768e-15 0.01121 11.815)
(4.36225e-16 -0.005263 11.783)
(-1.10049e-15 -0.0288395 11.9794)
(3.27687e-15 -0.055619 12.4652)
(-1.50253e-15 -0.0799557 13.2276)
(-3.28351e-16 -0.0992132 14.1977)
(-5.02121e-15 -0.113657 15.307)
(-6.28876e-15 -0.124032 16.5063)
(-8.78541e-15 -0.129596 17.7517)
(-4.88381e-15 -0.128292 18.9866)
(-8.53646e-15 -0.118259 20.138)
(-8.52812e-15 -0.0991937 21.1257)
(-7.86063e-15 -0.0735096 21.8811)
(-5.44495e-15 -0.0456585 22.3707)
(-3.31904e-15 -0.0190789 22.6024)
(-6.81438e-15 0.00474855 22.6091)
(-7.41203e-15 0.0265477 22.4263)
(-1.9567e-15 0.0460121 22.0782)
(2.25871e-15 0.0609933 21.5978)
(-6.85023e-15 0.0704897 21.0359)
(-7.54356e-16 0.0754945 20.4413)
(-8.43712e-16 0.0746499 19.8424)
(1.73123e-15 0.0632342 19.2921)
(3.68033e-15 0.0501747 18.8914)
(7.78923e-15 0.0674989 18.592)
(2.06614e-15 0.135278 17.9781)
(4.84609e-15 0.213677 16.6547)
(5.92246e-15 0.252274 14.7737)
(6.92449e-15 0.253414 12.7816)
(8.19765e-15 0.243923 10.9228)
(6.12425e-15 0.239026 9.18365)
(1.24537e-14 0.242212 7.5004)
(4.44161e-15 0.23831 5.78073)
(1.62352e-14 0.21568 4.18894)
(1.65566e-14 0.179083 2.81362)
(-4.06758e-14 0.106679 1.8112)
(-1.86889e-14 0.0233295 1.46595)
(9.23981e-16 0.141517 0.811695)
(-6.71249e-14 0.179967 -0.304617)
(-3.56743e-14 -0.0276389 -0.791991)
(-4.33043e-14 -0.126472 -1.5262)
(-4.45462e-14 -0.370339 -0.847913)
(-1.94701e-14 -0.596585 0.0414779)
(8.69966e-15 -0.612742 1.27576)
(4.12565e-14 -0.441 2.29791)
(5.70947e-14 -0.346122 2.75379)
(1.85233e-14 -0.24417 3.71756)
(-5.18181e-15 -0.0584324 4.58826)
(-1.74429e-14 0.0668049 5.50727)
(5.24018e-15 0.0850749 6.5661)
(3.74098e-15 0.0546884 7.63896)
(1.72124e-14 0.0208063 8.58529)
(1.93611e-14 -0.00386221 9.30417)
(1.81485e-14 0.0357425 9.71809)
(1.92932e-14 0.101598 9.63642)
(1.09334e-14 0.141247 9.17367)
(2.10097e-14 0.166786 8.55802)
(1.98052e-14 0.164891 7.90754)
(1.73607e-14 0.153904 7.2833)
(1.18062e-14 0.154595 6.62217)
(3.88249e-15 0.143856 5.924)
(2.80597e-15 0.0696041 5.37686)
(-1.19118e-14 -0.0470529 5.13867)
(-2.05682e-14 -0.159276 5.63463)
(-1.57721e-14 -0.245123 6.57077)
(-1.00308e-14 -0.293826 7.7835)
(-6.59023e-15 -0.292597 9.12261)
(-4.42946e-15 -0.256145 10.4073)
(-3.17191e-15 -0.210345 11.5568)
(-5.81347e-15 -0.145087 12.5212)
(-5.702e-15 -0.0525991 13.1626)
(-6.07581e-15 0.0218185 13.2749)
(-6.09664e-15 0.105907 13.0961)
(-6.23782e-15 0.170585 12.1268)
(6.36335e-16 -0.163714 21.5265)
(1.41751e-15 -0.148879 22.7875)
(7.8908e-16 -0.128395 23.8451)
(9.04018e-16 -0.0971153 24.6542)
(-5.37104e-16 -0.0561179 25.1728)
(2.28244e-15 -0.0036219 25.3606)
(1.4219e-15 0.0573602 25.1905)
(-8.00315e-15 0.117044 24.667)
(-5.44047e-15 0.174969 23.7914)
(-2.5115e-15 0.216962 22.6239)
(-4.30124e-15 0.232639 21.317)
(-3.65565e-15 0.230164 20.0227)
(-2.92975e-15 0.220072 18.8119)
(-1.85668e-15 0.208368 17.6977)
(-9.55901e-16 0.197288 16.6731)
(2.05908e-16 0.185171 15.7328)
(2.45009e-15 0.16708 14.8861)
(-4.33398e-16 0.137574 14.1654)
(3.60424e-15 0.0952308 13.6264)
(4.03543e-15 0.0535939 13.3049)
(-2.66055e-15 0.0318642 13.1591)
(3.53607e-15 0.0342466 13.0763)
(-1.21764e-14 0.0514329 12.956)
(-5.42035e-15 0.0682495 12.7602)
(-1.91949e-15 0.0720817 12.5203)
(-8.40538e-15 0.0585076 12.3038)
(-2.92633e-16 0.0277014 12.1747)
(-1.28639e-16 -0.023297 12.1956)
(6.29545e-16 -0.0963278 12.4448)
(-8.68204e-15 -0.177576 12.9742)
(-8.60923e-15 -0.248375 13.756)
(-5.88821e-15 -0.301793 14.7155)
(-8.86309e-16 -0.340271 15.7837)
(3.45056e-16 -0.366254 16.9108)
(-3.23586e-15 -0.377315 18.0585)
(-2.20956e-15 -0.368042 19.1856)
(-7.15532e-16 -0.333998 20.2354)
(2.566e-15 -0.274669 21.1349)
(6.62484e-15 -0.196922 21.8124)
(9.82607e-15 -0.113654 22.2274)
(1.45991e-14 -0.0350607 22.3818)
(1.05553e-14 0.0340322 22.306)
(5.42524e-15 0.0955425 22.0357)
(9.07657e-15 0.148498 21.5978)
(7.07552e-15 0.186367 21.0309)
(9.38624e-15 0.206747 20.3931)
(1.1477e-14 0.214979 19.7434)
(1.64545e-14 0.210151 19.1053)
(1.23282e-14 0.173207 18.4935)
(7.76435e-15 0.121344 18.0147)
(-7.38241e-16 0.163083 17.754)
(6.20908e-15 0.383373 17.3265)
(3.75744e-15 0.650548 16.1581)
(8.75755e-16 0.783574 14.3195)
(9.46079e-15 0.784264 12.3139)
(2.4617e-15 0.744318 10.4414)
(9.57883e-15 0.718244 8.70685)
(1.24812e-14 0.720579 7.04542)
(-3.84578e-15 0.705402 5.35477)
(-6.47502e-15 0.639819 3.78286)
(-1.63881e-14 0.553096 2.38277)
(-6.00679e-14 0.333769 1.28867)
(-1.02718e-13 0.263552 0.231884)
(-5.2402e-14 0.527924 -0.208908)
(-4.32723e-14 0.440528 -0.372908)
(-1.92187e-14 0.0423211 -0.839168)
(-1.63235e-16 -0.110061 -0.599617)
(7.43599e-14 -0.398254 -0.481826)
(7.65444e-14 -0.643969 -1.07285)
(-1.17452e-14 -0.474717 -1.45592)
(3.53657e-14 -0.216138 -1.62891)
(5.46803e-14 -0.235913 -1.4153)
(-1.21423e-14 -0.558794 -0.527261)
(-5.68093e-14 -0.771075 1.10439)
(9.04564e-15 -0.692507 2.95981)
(-3.85233e-14 -0.566658 4.08905)
(-2.33621e-14 -0.527994 4.9115)
(-2.41483e-14 -0.523224 5.78274)
(-2.94132e-14 -0.445169 6.66293)
(-1.18512e-14 -0.168521 7.42316)
(-7.36674e-15 0.0504058 7.75627)
(-1.47655e-15 0.132977 7.57113)
(-4.43318e-15 0.228919 7.20699)
(7.77239e-15 0.276474 6.74339)
(-1.18616e-15 0.268524 6.27779)
(-9.4762e-15 0.271407 5.82307)
(-3.30472e-14 0.299178 5.43224)
(-1.36931e-14 0.239087 5.16761)
(-2.54091e-14 -0.0349255 4.7169)
(-1.72138e-14 -0.359203 4.91343)
(-7.23756e-15 -0.593542 5.42332)
(3.59642e-17 -0.741492 6.1523)
(1.56911e-15 -0.782882 7.12595)
(-4.0612e-15 -0.748302 8.17065)
(-2.74402e-16 -0.681688 9.15359)
(-4.26596e-15 -0.512335 10.0074)
(-9.75468e-15 -0.232182 10.5805)
(-8.38992e-15 -0.00968579 10.679)
(-7.44077e-15 0.234096 10.4439)
(-6.34891e-15 0.40422 9.49718)
(8.71986e-16 -0.282158 21.6904)
(2.31979e-15 -0.257274 22.9718)
(-9.20549e-16 -0.218243 24.0183)
(2.40721e-15 -0.161617 24.7917)
(2.8005e-15 -0.0908423 25.2645)
(3.7017e-15 -0.0039418 25.4143)
(1.07647e-14 0.0958685 25.2294)
(5.31432e-15 0.195433 24.7067)
(3.56191e-15 0.294105 23.8208)
(1.92051e-16 0.36573 22.6276)
(-1.51685e-15 0.392209 21.2884)
(-2.05869e-15 0.38769 19.963)
(-1.72532e-15 0.370245 18.7251)
(-1.39673e-15 0.349948 17.5891)
(-1.02062e-15 0.330288 16.5496)
(-6.04247e-16 0.308614 15.6009)
(3.46177e-15 0.277578 14.7472)
(2.67051e-16 0.228794 14.0153)
(6.17232e-15 0.158388 13.4678)
(-8.44369e-15 0.0860604 13.1666)
(-1.33847e-16 0.0448078 13.0842)
(2.18421e-15 0.0446661 13.0882)
(-9.24619e-15 0.0712413 13.0576)
(-8.70028e-15 0.0988634 12.9465)
(-2.75025e-15 0.105839 12.7823)
(2.98633e-15 0.0843549 12.6283)
(1.08153e-14 0.0344094 12.546)
(5.75508e-15 -0.0489269 12.5922)
(7.53126e-16 -0.167268 12.8335)
(7.1235e-16 -0.296388 13.3133)
(3.65271e-15 -0.406722 14.0115)
(2.0833e-15 -0.488101 14.8618)
(1.70404e-17 -0.54409 15.7944)
(2.61752e-16 -0.579743 16.7724)
(2.07791e-15 -0.594568 17.7941)
(3.48727e-15 -0.581571 18.8503)
(1.04579e-14 -0.531037 19.8835)
(1.63939e-14 -0.437866 20.795)
(1.98559e-14 -0.310913 21.4857)
(2.32159e-14 -0.171515 21.8996)
(2.57448e-14 -0.0375495 22.0326)
(2.74882e-14 0.0819219 21.9139)
(2.88388e-14 0.188988 21.5742)
(2.95263e-14 0.280556 21.0401)
(2.95599e-14 0.344612 20.3448)
(2.87156e-14 0.375614 19.55)
(2.741e-14 0.383948 18.7284)
(2.54393e-14 0.378571 17.9202)
(2.34939e-14 0.328232 17.0997)
(2.20164e-14 0.222392 16.3058)
(1.99512e-14 0.223704 15.8248)
(1.50153e-14 0.547062 15.5811)
(9.4332e-15 1.01365 14.7977)
(5.93931e-15 1.273 13.2417)
(2.09542e-15 1.29301 11.3886)
(3.67149e-16 1.22956 9.60446)
(8.13029e-15 1.18377 7.93364)
(1.74283e-14 1.18712 6.32409)
(-8.74173e-15 1.16505 4.67395)
(2.08034e-14 1.06559 3.10971)
(-1.93828e-14 0.916078 1.67452)
(-3.92944e-14 0.627335 0.767752)
(-1.05085e-13 0.779776 0.0956327)
(-6.72199e-14 0.556809 -0.826251)
(-1.54315e-15 0.436352 -0.488923)
(-8.25165e-14 0.0558642 -0.954231)
(-8.18492e-14 -0.205686 -1.09572)
(1.29383e-14 -0.355456 -1.19754)
(-7.59295e-15 -0.450396 -1.62583)
(1.26888e-14 -0.428759 -1.83475)
(8.43796e-15 -0.370263 -1.71962)
(-1.45179e-14 -0.591135 -1.43904)
(8.47217e-15 -1.02979 -1.08912)
(-9.76524e-15 -1.31611 -0.804438)
(-7.79755e-15 -1.26623 -0.176264)
(-1.46011e-14 -1.0317 1.27202)
(-1.97037e-14 -0.820319 2.83234)
(-2.18218e-14 -0.740074 3.62025)
(-1.14114e-14 -0.667144 4.10817)
(-8.26006e-15 -0.160152 4.5661)
(-6.72692e-15 0.32594 5.38408)
(-9.19416e-16 0.42464 5.46067)
(-1.91381e-14 0.469891 5.5576)
(-8.93093e-15 0.48249 5.39391)
(-1.17834e-14 0.419464 5.17572)
(-1.09781e-14 0.388388 4.91174)
(-1.12315e-14 0.394238 4.70366)
(-1.63728e-14 0.297353 4.76008)
(-1.37263e-14 -0.045782 4.58905)
(-2.60049e-14 -0.412896 4.50034)
(-9.52188e-15 -0.692523 4.38004)
(-7.22827e-15 -0.962209 4.50148)
(-1.5927e-14 -1.12847 5.1721)
(-1.61719e-14 -1.12376 6.19357)
(-2.12501e-14 -1.02364 7.18153)
(-2.62825e-14 -0.763279 7.91687)
(-3.07346e-14 -0.317506 8.36852)
(-3.07492e-14 0.112504 8.40115)
(-2.70962e-14 0.624979 7.81444)
(-2.0359e-14 0.957688 6.50735)
(1.2885e-15 -0.400166 21.7138)
(-5.07142e-16 -0.361558 22.9468)
(-2.47932e-15 -0.302104 23.9323)
(-4.27008e-15 -0.220306 24.6501)
(-3.03915e-15 -0.121324 25.0834)
(-6.7262e-16 -0.0027064 25.2191)
(-2.49247e-15 0.133702 25.0513)
(2.14831e-17 0.273017 24.5625)
(1.80165e-15 0.414128 23.6922)
(-1.3607e-15 0.516822 22.4872)
(-1.7245e-15 0.554397 21.121)
(-1.46569e-15 0.547391 19.7658)
(-8.10718e-16 0.521807 18.5018)
(1.00774e-15 0.491966 17.346)
(-4.63333e-15 0.462915 16.2927)
(4.16355e-16 0.431583 15.3335)
(1.18634e-15 0.388109 14.4692)
(1.88699e-15 0.319541 13.7313)
(-1.72967e-15 0.217279 13.2006)
(3.9115e-15 0.107311 12.9616)
(-2.92904e-16 0.0418516 12.9735)
(-2.50137e-15 0.0388822 13.0658)
(-6.20758e-15 0.0766362 13.1027)
(-2.10814e-15 0.117165 13.0421)
(2.17092e-16 0.129706 12.9146)
(2.59878e-15 0.103451 12.7815)
(4.4044e-15 0.0387226 12.7)
(4.56511e-15 -0.0704187 12.7166)
(4.92033e-15 -0.226145 12.8876)
(4.41832e-15 -0.397029 13.2672)
(1.26089e-14 -0.54328 13.8524)
(1.11164e-14 -0.648968 14.573)
(4.56009e-15 -0.720884 15.3697)
(2.7595e-15 -0.773252 16.2587)
(7.50456e-15 -0.808066 17.2833)
(1.13773e-14 -0.808029 18.4155)
(1.02625e-14 -0.74957 19.5396)
(2.02802e-14 -0.621968 20.5137)
(1.85546e-14 -0.440282 21.2291)
(1.87114e-14 -0.238415 21.6408)
(2.62837e-14 -0.0435722 21.7593)
(2.35834e-14 0.131954 21.6252)
(2.05523e-14 0.291676 21.2682)
(2.42495e-14 0.431368 20.7061)
(3.02738e-14 0.533585 19.9514)
(2.99362e-14 0.586467 19.0587)
(3.15593e-14 0.601525 18.0997)
(2.74958e-14 0.600937 17.1325)
(2.27656e-14 0.556517 16.1528)
(2.53652e-14 0.414023 15.1363)
(2.77391e-14 0.324555 14.3014)
(1.24804e-14 0.653377 13.8474)
(1.9183e-14 1.28175 13.1752)
(4.91274e-15 1.68666 11.842)
(-1.18006e-15 1.75158 10.1831)
(2.30709e-15 1.68016 8.54735)
(3.08735e-17 1.6226 6.98837)
(1.15407e-14 1.63321 5.45912)
(4.30972e-15 1.61248 3.85928)
(3.73766e-14 1.48841 2.29329)
(-9.56789e-15 1.2451 0.860314)
(-5.71397e-14 0.885608 0.366432)
(-4.10488e-14 1.06736 0.323033)
(1.88164e-14 0.628821 -0.544018)
(2.30623e-14 0.394938 -0.44952)
(-5.49995e-14 0.19216 -0.876766)
(-5.72049e-14 -0.0504368 -1.64508)
(1.74653e-14 -0.249238 -2.13809)
(4.05345e-15 -0.345257 -2.51779)
(1.12569e-14 -0.374998 -2.68339)
(6.37198e-14 -0.367354 -2.44706)
(2.41717e-14 -0.586833 -2.13257)
(2.72756e-14 -1.00042 -1.9915)
(1.59594e-14 -1.35122 -1.7587)
(1.29598e-14 -1.51826 -1.23727)
(-1.51491e-16 -1.50117 -0.501219)
(-1.19477e-14 -1.26351 0.136312)
(-5.63708e-15 -1.02405 0.543209)
(-1.36124e-14 -1.15606 0.526036)
(-2.03204e-14 -1.12607 0.962001)
(-4.25113e-17 -0.457378 3.87792)
(-3.56338e-15 0.0253644 3.54029)
(8.34562e-15 0.235123 4.09768)
(-1.8291e-14 0.356712 4.51728)
(-9.41582e-16 0.343597 4.7108)
(-1.09806e-14 0.292963 4.65945)
(5.4041e-15 0.252178 4.66027)
(-2.1918e-14 0.28764 4.98862)
(-1.53209e-14 0.207445 4.65453)
(-4.49158e-14 -0.103271 3.60575)
(2.14425e-14 -0.456199 2.98069)
(-4.68254e-14 -0.891686 2.57838)
(-3.68391e-14 -1.28797 2.49305)
(-3.5356e-14 -1.42237 2.9772)
(-3.99719e-14 -1.31495 3.82866)
(-4.04416e-14 -0.997182 4.43591)
(-4.87915e-14 -0.617588 5.10899)
(-4.45349e-14 -0.182518 5.96372)
(-5.04661e-14 0.506099 5.61001)
(-3.93513e-14 1.24027 4.64727)
(1.35836e-15 -0.511297 21.5302)
(2.68201e-15 -0.460368 22.6635)
(-1.07721e-16 -0.383877 23.5773)
(-6.64992e-16 -0.280029 24.2507)
(-4.4616e-15 -0.15561 24.6649)
(-2.54302e-15 -0.00827216 24.8086)
(2.52846e-16 0.162473 24.6793)
(-2.60976e-15 0.341952 24.2503)
(1.0892e-15 0.52912 23.4245)
(9.19493e-16 0.666604 22.2303)
(1.1676e-15 0.717219 20.8517)
(-8.41565e-16 0.708205 19.4768)
(-5.36305e-15 0.674175 18.1943)
(-5.33484e-15 0.634232 17.024)
(-7.02893e-15 0.595395 15.9597)
(-2.27395e-15 0.554191 14.9909)
(3.24237e-15 0.497253 14.1214)
(2.64191e-15 0.405871 13.3936)
(3.30554e-15 0.26647 12.9035)
(2.21265e-15 0.114071 12.7416)
(1.91606e-15 0.0248797 12.8294)
(2.54209e-15 0.0228982 12.9664)
(-5.58236e-15 0.0752239 13.0217)
(7.34885e-16 0.13081 12.9661)
(3.07434e-15 0.150666 12.8351)
(4.67997e-15 0.121899 12.6889)
(-8.89062e-17 0.046104 12.5803)
(5.36136e-15 -0.0834635 12.5459)
(-2.26065e-15 -0.272178 12.6393)
(2.22388e-15 -0.482891 12.9327)
(2.07414e-15 -0.66267 13.4213)
(2.82713e-15 -0.791498 14.0308)
(2.90889e-15 -0.887973 14.7579)
(1.704e-15 -0.975927 15.6822)
(1.4934e-15 -1.04619 16.8207)
(5.55409e-15 -1.05985 18.0563)
(7.91469e-15 -0.982708 19.2184)
(8.68467e-15 -0.808237 20.1691)
(8.69302e-15 -0.563979 20.8284)
(8.32293e-15 -0.297546 21.1771)
(9.19618e-15 -0.0440845 21.2414)
(9.50113e-15 0.183441 21.0721)
(1.40994e-14 0.392043 20.6998)
(1.98037e-14 0.579735 20.1421)
(1.94581e-14 0.725263 19.3935)
(2.05993e-14 0.80896 18.4926)
(2.13344e-14 0.840313 17.4976)
(2.20687e-14 0.84845 16.4637)
(2.27396e-14 0.812727 15.4091)
(1.9787e-14 0.659141 14.3125)
(2.43605e-14 0.513776 13.2738)
(1.28504e-14 0.81545 12.4845)
(1.39576e-14 1.53659 11.6334)
(4.48014e-15 2.05225 10.3474)
(1.37246e-15 2.1581 8.84119)
(8.94692e-15 2.08594 7.37087)
(6.53601e-15 2.02581 5.95137)
(5.7626e-15 2.05515 4.51956)
(-1.18192e-15 2.04937 2.96798)
(2.68478e-14 1.90464 1.37078)
(-3.46812e-14 1.51044 0.0207406)
(-5.29832e-14 1.0288 -0.0808561)
(7.29001e-15 1.03494 -0.136037)
(1.51557e-14 0.684765 -0.645275)
(-2.49211e-15 0.489965 -1.00386)
(-2.67883e-14 0.437816 -1.49246)
(4.00401e-15 0.192302 -2.30703)
(2.65877e-14 -0.0926971 -3.06355)
(1.54071e-14 -0.255179 -3.48112)
(-1.01344e-14 -0.356797 -3.68335)
(3.17715e-14 -0.446889 -3.57105)
(1.87673e-14 -0.69316 -3.33175)
(2.30576e-14 -1.11204 -3.17903)
(1.57666e-14 -1.51877 -2.94463)
(1.96259e-14 -1.73588 -2.48285)
(5.54876e-15 -1.65727 -1.87086)
(-7.51712e-15 -1.23952 -1.36441)
(-1.84753e-14 -0.916713 -1.55902)
(-2.72178e-14 -1.15287 -3.00168)
(-1.22651e-14 -1.11052 -4.46128)
(1.92356e-14 -0.321956 -4.39836)
(5.70501e-15 0.205843 -3.65575)
(-1.37998e-14 0.264091 -3.82175)
(1.33601e-14 0.266757 -3.88155)
(5.48278e-15 0.199835 -4.37835)
(-8.05981e-15 0.156054 -4.5283)
(-7.17482e-15 0.124606 -4.68054)
(-9.50631e-15 0.0571096 -4.81149)
(-1.27182e-14 -0.122116 -4.57992)
(-1.59544e-14 -0.377687 -4.32616)
(-1.31759e-14 -0.687769 -4.04506)
(-2.56186e-14 -1.06443 -3.83155)
(-3.94379e-14 -1.4594 -3.73262)
(-4.89342e-14 -1.71931 -3.58646)
(-4.96515e-14 -1.64978 -3.16038)
(-5.0082e-14 -1.11638 -2.80288)
(-5.29427e-14 -0.320094 -3.05615)
(-4.05278e-14 0.403292 -4.65934)
(-3.98759e-14 0.867181 -5.86022)
(-4.31158e-14 1.12567 -5.77553)
(1.17435e-15 -0.631908 21.1121)
(1.08149e-15 -0.560905 22.1928)
(1.41873e-15 -0.466305 23.0706)
(-1.05065e-15 -0.341414 23.7181)
(-2.91413e-15 -0.193348 24.1213)
(-2.25528e-15 -0.0198404 24.277)
(-1.86623e-15 0.182919 24.1883)
(-4.98976e-15 0.402084 23.824)
(-6.47787e-15 0.637962 23.051)
(-1.90222e-15 0.813499 21.8752)
(3.54117e-15 0.878913 20.4914)
(1.07677e-15 0.868353 19.1048)
(-2.8232e-15 0.825733 17.8124)
(-2.97977e-15 0.775465 16.6358)
(-2.8064e-15 0.72672 15.5675)
(-1.23808e-15 0.675229 14.5977)
(3.03808e-16 0.603213 13.7369)
(-2.45488e-15 0.485902 13.0372)
(4.657e-15 0.305273 12.5995)
(3.34277e-16 0.109546 12.5029)
(-2.64594e-15 0.000411963 12.627)
(8.68764e-16 0.00361753 12.7637)
(5.67058e-15 0.0725583 12.8009)
(-3.77727e-15 0.143919 12.723)
(-6.89569e-15 0.171635 12.5679)
(2.65529e-15 0.141463 12.3943)
(2.30904e-15 0.0570899 12.2519)
(2.71649e-15 -0.0895295 12.1684)
(2.33059e-15 -0.309295 12.2017)
(5.85496e-16 -0.557799 12.432)
(2.38684e-15 -0.768266 12.8363)
(4.26776e-15 -0.925662 13.3752)
(4.12303e-15 -1.06456 14.132)
(3.15297e-15 -1.20349 15.181)
(4.73017e-15 -1.3067 16.4283)
(-1.32757e-16 -1.31865 17.6824)
(-5.54675e-16 -1.2087 18.7878)
(1.76547e-15 -0.980952 19.6527)
(1.43218e-15 -0.673943 20.2273)
(-9.12585e-16 -0.346054 20.503)
(1.53584e-15 -0.0385078 20.5095)
(7.45613e-15 0.236418 20.3005)
(7.39485e-15 0.488852 19.9046)
(5.57783e-15 0.720168 19.341)
(1.11442e-14 0.907356 18.599)
(1.28078e-14 1.02381 17.7105)
(1.65759e-14 1.0769 16.7235)
(1.9306e-14 1.0999 15.6813)
(2.10591e-14 1.07633 14.6021)
(2.28164e-14 0.921635 13.4768)
(2.37341e-14 0.753677 12.352)
(2.00334e-14 1.05004 11.3137)
(1.15683e-14 1.82535 10.1983)
(5.51939e-15 2.39914 8.84684)
(1.40776e-15 2.51946 7.4483)
(5.03657e-15 2.4441 6.14415)
(8.53689e-15 2.38978 4.87568)
(1.12166e-14 2.45346 3.55243)
(-7.64253e-15 2.48506 2.04454)
(2.46725e-14 2.30901 0.364204)
(9.74282e-16 1.72528 -0.818103)
(-1.33625e-14 1.10976 -1.01046)
(-4.78832e-15 0.985711 -1.41945)
(-1.79908e-14 0.765072 -1.90922)
(-3.60386e-14 0.684366 -2.44033)
(5.58424e-16 0.651422 -2.86042)
(2.14745e-14 0.402316 -3.3983)
(3.12263e-14 0.0621465 -4.03333)
(2.08624e-14 -0.168981 -4.48917)
(3.82726e-14 -0.318769 -4.74297)
(6.727e-14 -0.471774 -4.7536)
(2.30494e-14 -0.743402 -4.60948)
(1.83e-14 -1.16525 -4.45628)
(9.67952e-15 -1.61241 -4.24705)
(2.26869e-14 -1.91027 -3.86958)
(1.12675e-15 -1.86917 -3.29034)
(-5.72524e-15 -1.29901 -2.59469)
(-1.42151e-14 -0.636348 -2.45084)
(-3.03116e-14 -0.738697 -3.78876)
(-3.36153e-14 -1.00729 -5.30674)
(-2.53116e-14 -0.548293 -5.82535)
(-7.1882e-15 0.0673065 -5.71959)
(3.71897e-15 0.231339 -5.58375)
(2.77846e-14 0.270793 -5.50706)
(3.07047e-14 0.233153 -5.5609)
(-9.17225e-15 0.168092 -5.46149)
(-5.09365e-15 0.125986 -5.37741)
(-1.35429e-15 0.00737526 -5.16827)
(-2.75148e-15 -0.170949 -4.85288)
(-9.04801e-15 -0.396258 -4.70293)
(-1.39642e-14 -0.671769 -4.59315)
(-2.65372e-14 -0.990619 -4.61137)
(-3.67424e-14 -1.34918 -4.79547)
(-4.25172e-14 -1.66599 -5.15646)
(-4.05499e-14 -1.6817 -5.61911)
(-4.58394e-14 -1.03755 -5.95646)
(-4.55464e-14 0.045633 -5.87412)
(-4.43057e-14 0.650792 -6.61551)
(-4.38019e-14 0.805873 -7.81201)
(-4.39685e-14 1.06454 -8.23166)
(9.45965e-16 -0.732811 20.6662)
(2.29593e-15 -0.655715 21.6967)
(-2.86133e-16 -0.547249 22.525)
(5.41236e-16 -0.403585 23.1288)
(-9.00807e-16 -0.234322 23.5073)
(1.54337e-16 -0.0378742 23.6679)
(1.99758e-15 0.193974 23.6206)
(-1.1707e-15 0.452216 23.3307)
(-1.5162e-15 0.740038 22.6208)
(4.85428e-15 0.957383 21.4662)
(4.26421e-15 1.03924 20.0756)
(-3.85748e-15 1.02719 18.6768)
(-3.69747e-15 0.975517 17.3769)
(-3.6066e-15 0.914531 16.1987)
(-3.06217e-15 0.855482 15.1341)
(-2.48356e-15 0.79279 14.1761)
(1.37368e-15 0.703709 13.3416)
(1.74041e-15 0.558006 12.686)
(-5.02916e-16 0.334661 12.3014)
(5.47591e-16 0.0982013 12.2438)
(-6.34743e-15 -0.0257751 12.3654)
(4.47431e-15 -0.0142105 12.4715)
(6.70063e-15 0.0720305 12.4721)
(9.49146e-15 0.158956 12.3597)
(1.42307e-14 0.194329 12.1723)
(1.52842e-14 0.16303 11.9674)
(8.49489e-15 0.0714533 11.7917)
(7.84475e-15 -0.0907043 11.667)
(1.35581e-16 -0.340582 11.6585)
(4.96881e-15 -0.623812 11.8345)
(4.36885e-15 -0.865724 12.1667)
(7.53368e-17 -1.06624 12.7048)
(-1.06226e-15 -1.26518 13.5801)
(-1.01872e-15 -1.45442 14.7555)
(9.14232e-16 -1.57312 16.0262)
(4.34789e-16 -1.56737 17.2109)
(-1.12188e-15 -1.41894 18.2188)
(1.03566e-17 -1.13917 18.9984)
(8.71553e-16 -0.772401 19.5056)
(-1.41296e-16 -0.386063 19.7264)
(2.93985e-15 -0.0275307 19.6887)
(2.90669e-15 0.292402 19.4485)
(-2.39644e-15 0.586175 19.0307)
(1.25507e-15 0.85841 18.4511)
(1.31559e-15 1.08451 17.6966)
(4.16429e-15 1.23159 16.8023)
(7.95866e-15 1.30658 15.8172)
(1.59072e-14 1.34748 14.7753)
(1.3628e-14 1.33929 13.6858)
(1.52062e-14 1.18903 12.5531)
(1.34641e-14 1.02111 11.3992)
(1.57101e-14 1.34316 10.186)
(4.7898e-15 2.15868 8.8109)
(4.59966e-15 2.74097 7.35824)
(1.96566e-15 2.84064 6.05005)
(6.50197e-15 2.75425 4.91206)
(1.27386e-14 2.71147 3.80336)
(1.71863e-14 2.82605 2.60752)
(6.95761e-15 2.92557 1.15849)
(1.80001e-14 2.70586 -0.594621)
(1.90053e-15 1.93344 -1.66545)
(4.44309e-15 1.19843 -2.20451)
(9.3334e-16 1.05787 -2.83866)
(1.18515e-14 0.9061 -3.3836)
(1.90556e-14 0.825885 -3.90352)
(4.45586e-14 0.762665 -4.23714)
(5.04097e-14 0.536176 -4.5837)
(7.78622e-15 0.194764 -5.04202)
(1.7272e-14 -0.0851149 -5.48764)
(2.07334e-14 -0.286016 -5.77709)
(3.67437e-14 -0.498951 -5.86466)
(8.55926e-15 -0.810102 -5.80447)
(2.68476e-15 -1.24687 -5.68645)
(3.74397e-15 -1.72372 -5.52616)
(1.75525e-14 -2.08303 -5.25174)
(8.0002e-15 -2.09834 -4.79333)
(7.90212e-15 -1.45913 -4.07321)
(-4.95943e-15 -0.467725 -3.44378)
(-2.52442e-14 -0.311121 -4.34074)
(-3.0955e-14 -0.599767 -5.77777)
(-6.67607e-15 -0.416722 -6.23816)
(-2.57774e-16 -0.0340109 -6.20682)
(-9.17905e-15 0.174394 -6.0064)
(1.87662e-14 0.253306 -5.90133)
(1.28872e-14 0.2133 -5.91275)
(1.69303e-15 0.120455 -5.9548)
(5.63181e-17 0.0324922 -6.00586)
(-6.2118e-15 -0.120336 -5.99831)
(-1.19955e-14 -0.294183 -5.98251)
(-8.43783e-15 -0.499574 -6.05343)
(-1.81441e-14 -0.738986 -6.1853)
(-1.86831e-14 -0.981805 -6.42762)
(-2.69271e-14 -1.22834 -6.79663)
(-3.25403e-14 -1.45615 -7.34391)
(-3.99606e-14 -1.51056 -8.09034)
(-4.52115e-14 -1.09035 -8.76167)
(-4.84359e-14 -0.109755 -8.94344)
(-4.51975e-14 0.767026 -9.16019)
(-4.35272e-14 1.07557 -9.61064)
(-4.30466e-14 1.26115 -9.99616)
(2.27643e-15 -0.841395 20.1705)
(2.08322e-15 -0.753713 21.1437)
(5.71868e-16 -0.627895 21.9113)
(3.49286e-15 -0.465799 22.4617)
(4.53412e-15 -0.277907 22.8066)
(4.33399e-15 -0.0625088 22.9636)
(1.79271e-15 0.194295 22.9518)
(2.17677e-15 0.489863 22.7443)
(5.71082e-15 0.833356 22.1221)
(3.83926e-15 1.09762 21.0095)
(1.01704e-15 1.19838 19.6233)
(-1.66661e-15 1.18507 18.2185)
(-3.45759e-15 1.12369 16.9158)
(-3.47575e-15 1.05115 15.7415)
(-3.63776e-15 0.980718 14.6897)
(5.73993e-16 0.905213 13.7576)
(2.96471e-15 0.797178 12.9654)
(6.59262e-15 0.622353 12.3613)
(6.97517e-15 0.357864 12.0178)
(3.38349e-15 0.0852987 11.9667)
(-3.12535e-16 -0.0492396 12.0571)
(-1.86209e-15 -0.0278715 12.1182)
(-1.63469e-15 0.0752749 12.0757)
(5.06062e-16 0.177089 11.9246)
(-4.93901e-15 0.219525 11.701)
(-7.90187e-16 0.186881 11.4629)
(-3.86433e-15 0.0886116 11.2547)
(-9.5913e-16 -0.0887559 11.0967)
(7.26458e-16 -0.367128 11.0571)
(1.88092e-15 -0.682335 11.1757)
(-3.32253e-16 -0.963934 11.4669)
(-3.33326e-15 -1.22667 12.0897)
(-2.76215e-15 -1.49114 13.1133)
(-1.32543e-15 -1.71392 14.3429)
(1.36691e-15 -1.82913 15.5487)
(-7.58086e-16 -1.79909 16.6279)
(-3.49998e-16 -1.61506 17.5489)
(3.56216e-15 -1.28773 18.27)
(4.85265e-15 -0.86374 18.7328)
(3.51716e-15 -0.420584 18.9127)
(9.58941e-15 -0.0131295 18.8387)
(1.27998e-14 0.3501 18.5711)
(1.34851e-14 0.684056 18.1331)
(1.31656e-14 0.997149 17.5371)
(7.07034e-15 1.2618 16.7625)
(4.98939e-15 1.43766 15.8482)
(5.28205e-15 1.53284 14.8508)
(6.57974e-15 1.59193 13.8005)
(1.31842e-14 1.59883 12.7)
(1.42364e-14 1.45367 11.5711)
(1.20916e-14 1.30519 10.4091)
(1.72662e-14 1.68534 9.04298)
(9.69161e-15 2.53431 7.42496)
(4.83317e-15 3.07888 5.88226)
(2.7735e-15 3.12222 4.67226)
(6.94015e-15 3.0154 3.70864)
(6.95422e-15 2.98787 2.76955)
(2.47222e-14 3.16668 1.71443)
(1.36985e-14 3.36121 0.374135)
(3.051e-14 3.09321 -1.34946)
(9.41259e-15 2.1609 -2.40071)
(1.81691e-14 1.35963 -3.21462)
(2.49637e-14 1.21423 -3.94268)
(2.52979e-14 1.05879 -4.51902)
(1.82871e-14 0.932899 -5.04117)
(1.02981e-14 0.832908 -5.3722)
(2.89053e-14 0.623885 -5.66616)
(1.61082e-14 0.303358 -6.02863)
(5.10176e-15 -0.00521586 -6.42358)
(6.34229e-15 -0.24916 -6.72255)
(3.31558e-14 -0.503156 -6.86833)
(7.24693e-15 -0.850684 -6.87057)
(5.7019e-15 -1.3021 -6.81006)
(2.07303e-15 -1.80008 -6.71804)
(9.41817e-15 -2.21414 -6.55625)
(5.55183e-15 -2.31567 -6.24683)
(3.35084e-15 -1.72557 -5.62068)
(6.95965e-15 -0.496152 -4.57869)
(-6.33613e-15 0.0164547 -4.61767)
(-5.76642e-15 -0.303542 -5.88415)
(7.6874e-15 -0.322606 -6.57791)
(7.12009e-15 -0.0733129 -6.75758)
(3.95934e-15 0.113502 -6.64761)
(-1.53342e-16 0.237681 -6.5558)
(6.98955e-15 0.247733 -6.59795)
(1.55632e-15 0.170051 -6.74793)
(-1.01059e-15 0.0616111 -6.91316)
(-5.38852e-15 -0.10054 -7.09231)
(-1.08577e-14 -0.27206 -7.2564)
(-2.3527e-15 -0.461984 -7.50064)
(-4.69805e-15 -0.682947 -7.81124)
(-1.015e-14 -0.900858 -8.223)
(-1.7573e-14 -1.09617 -8.74857)
(-2.07427e-14 -1.2348 -9.42754)
(-2.37779e-14 -1.19955 -10.2882)
(-3.13742e-14 -0.790604 -11.1118)
(-3.56689e-14 0.00818361 -11.5652)
(-3.49194e-14 0.757168 -11.7084)
(-3.20224e-14 1.15287 -11.8295)
(-2.90586e-14 1.34378 -12.0202)
(2.47302e-15 -0.944726 19.632)
(1.9727e-15 -0.845864 20.5425)
(1.83595e-15 -0.704398 21.2569)
(-6.27886e-16 -0.526117 21.7622)
(-9.86762e-16 -0.322305 22.0715)
(2.07017e-15 -0.0920526 22.2096)
(5.97905e-16 0.184217 22.2098)
(-2.42416e-15 0.513026 22.0707)
(6.54191e-16 0.914371 21.5497)
(1.52531e-15 1.23114 20.5019)
(-4.68253e-16 1.35433 19.1394)
(-4.29587e-16 1.34081 17.7429)
(-1.70044e-15 1.26949 16.4487)
(-2.082e-15 1.18458 15.289)
(-2.66186e-15 1.10137 14.2626)
(-1.51566e-15 1.01134 13.3703)
(-3.38398e-17 0.883339 12.6294)
(3.02673e-17 0.680547 12.0729)
(1.27532e-14 0.378748 11.7484)
(8.12882e-15 0.0749128 11.6737)
(-4.53966e-15 -0.0676694 11.7161)
(-4.15446e-15 -0.0363641 11.7296)
(-3.71578e-15 0.0830721 11.6459)
(-8.67559e-15 0.199305 11.4556)
(3.76649e-15 0.248175 11.1931)
(-4.50888e-15 0.213732 10.9189)
(5.4092e-15 0.108449 10.6769)
(3.43591e-15 -0.0843428 10.4922)
(7.05611e-15 -0.388534 10.4213)
(-2.19933e-15 -0.736729 10.4792)
(-5.76518e-15 -1.0741 10.7881)
(-3.49066e-15 -1.41335 11.5594)
(-2.29464e-15 -1.73244 12.6911)
(3.38419e-15 -1.96659 13.8848)
(6.28501e-15 -2.06789 14.9813)
(8.83398e-15 -2.01626 15.9645)
(9.02393e-15 -1.80284 16.8276)
(9.36915e-15 -1.43138 17.5143)
(9.3479e-15 -0.950381 17.9463)
(8.13777e-15 -0.450387 18.0903)
(8.29008e-15 0.00488196 17.9818)
(6.68036e-15 0.410093 17.6858)
(8.76205e-15 0.782937 17.2294)
(1.10347e-14 1.13736 16.6193)
(6.96807e-15 1.44145 15.8236)
(4.65323e-15 1.6453 14.8834)
(3.05962e-15 1.7591 13.8656)
(3.02997e-15 1.83558 12.7989)
(4.39959e-15 1.8549 11.6849)
(8.56405e-15 1.71409 10.5674)
(1.40385e-14 1.60583 9.39641)
(1.57338e-14 2.07471 7.86287)
(1.1822e-14 2.94609 6.01848)
(4.40997e-15 3.40705 4.42286)
(3.22896e-15 3.36083 3.33521)
(8.86463e-15 3.22677 2.55933)
(6.66203e-15 3.217 1.77719)
(1.64724e-14 3.46539 0.873932)
(4.25874e-15 3.76393 -0.270468)
(3.25992e-14 3.47311 -1.84175)
(-2.06675e-16 2.43011 -2.95838)
(2.27192e-14 1.58971 -3.99119)
(3.03414e-14 1.40419 -4.77922)
(1.61903e-14 1.21686 -5.3881)
(-1.48659e-14 1.04797 -5.94229)
(-4.8073e-16 0.907788 -6.31769)
(2.23309e-14 0.698398 -6.62119)
(-3.26462e-15 0.393142 -6.93811)
(-8.34328e-15 0.0683966 -7.27593)
(2.76185e-15 -0.21264 -7.56635)
(2.97296e-14 -0.499651 -7.74949)
(7.57903e-15 -0.878411 -7.801)
(8.14137e-15 -1.34189 -7.81158)
(1.19923e-14 -1.85235 -7.79728)
(-1.44383e-15 -2.30339 -7.75248)
(8.18273e-15 -2.48657 -7.60333)
(9.05103e-15 -2.02236 -7.16445)
(4.29252e-16 -0.752387 -6.10369)
(1.25486e-14 0.146607 -5.34466)
(1.55069e-14 0.0426292 -6.05408)
(1.18544e-14 -0.114718 -6.90762)
(-6.37648e-15 -0.0361384 -7.3278)
(-1.21712e-14 0.0795675 -7.42047)
(7.44712e-15 0.209811 -7.41346)
(1.12e-14 0.266749 -7.46008)
(7.20499e-15 0.219167 -7.62597)
(-1.29157e-16 0.116408 -7.84887)
(1.33984e-15 -0.0366354 -8.13609)
(-6.09839e-16 -0.198918 -8.43288)
(-2.83894e-15 -0.364084 -8.77833)
(-4.32701e-15 -0.54554 -9.1889)
(-6.01665e-15 -0.720426 -9.69122)
(-6.20245e-15 -0.874274 -10.2909)
(-7.72582e-15 -0.977581 -11.0103)
(-1.35976e-14 -0.936038 -11.8693)
(-1.59911e-14 -0.581601 -12.6779)
(-1.94307e-14 0.10146 -13.2402)
(-1.71825e-14 0.768137 -13.452)
(-1.42401e-14 1.16608 -13.4798)
(-1.07661e-14 1.36088 -13.5136)
(1.83773e-15 -1.04495 19.0457)
(2.20807e-15 -0.936871 19.9248)
(1.40029e-15 -0.780015 20.6233)
(9.71327e-16 -0.584966 21.103)
(5.81853e-16 -0.365106 21.3798)
(2.29325e-15 -0.121801 21.4865)
(2.93075e-15 0.168606 21.4672)
(6.88635e-15 0.524038 21.3562)
(2.80903e-15 0.981667 20.9213)
(1.84377e-16 1.35541 19.9489)
(1.46355e-15 1.50483 18.6284)
(-2.08222e-15 1.49264 17.2579)
(-5.30243e-15 1.41151 15.9876)
(-3.59601e-15 1.31354 14.8573)
(-2.74916e-15 1.21627 13.8703)