/*--------------------------------*- C++ -*----------------------------------*\
| =========                 |                                                 |
| \\      /  F ield         | OpenFOAM: The Open Source CFD Toolbox           |
|  \\    /   O peration     | Version:  4.1                                   |
|   \\  /    A nd           | Web:      www.OpenFOAM.org                      |
|    \\/     M anipulation  |                                                 |
\*---------------------------------------------------------------------------*/
FoamFile
{
    version     2.0;
    format      ascii;
    class       volScalarField;
    location    "1300";
    object      k;
}
// * * * * * * * * * * * * * * * * * * * * * * * * * * * * * * * * * * * * * //

dimensions      [0 2 -2 0 0 0 0];

internalField   nonuniform List<scalar> 
6820
(
0.226697
0.279347
0.331744
0.382734
0.43093
0.475126
0.51442
0.54829
0.576587
0.599476
0.617344
0.630716
0.64018
0.64634
0.649768
0.650989
0.650466
0.648594
0.645709
0.642084
0.637945
0.633472
0.628806
0.624061
0.619321
0.614654
0.610107
0.605726
0.601498
0.597637
0.593201
0.592919
0.573722
0.207938
0.216621
0.219548
0.220394
0.221057
0.222078
0.223474
0.22514
0.226961
0.228846
0.230731
0.232584
0.234394
0.236162
0.237902
0.239628
0.241358
0.243107
0.244886
0.246707
0.248574
0.250492
0.252461
0.254478
0.256539
0.258638
0.260766
0.262915
0.265066
0.267234
0.269308
0.271642
0.273194
0.201064
0.204896
0.206826
0.206612
0.205168
0.203176
0.200968
0.198675
0.196348
0.194008
0.19167
0.189349
0.187063
0.184828
0.182661
0.180578
0.178592
0.176713
0.174949
0.173308
0.171791
0.170401
0.169138
0.167998
0.166981
0.166081
0.165293
0.164613
0.164033
0.163547
0.163144
0.162821
0.162547
0.199585
0.199595
0.199834
0.199709
0.199082
0.198053
0.196754
0.195281
0.193696
0.192037
0.19033
0.188591
0.186834
0.18507
0.183308
0.181557
0.179825
0.178118
0.176444
0.174806
0.17321
0.171659
0.170156
0.168704
0.167303
0.165957
0.164664
0.163426
0.162242
0.161112
0.160036
0.159013
0.15804
0.199411
0.198486
0.19779
0.197167
0.196484
0.195676
0.194737
0.193687
0.19255
0.191348
0.190098
0.188816
0.187511
0.186191
0.184864
0.183536
0.182211
0.180895
0.17959
0.1783
0.177029
0.175777
0.174549
0.173345
0.172168
0.171018
0.169896
0.168804
0.167742
0.166711
0.165711
0.164743
0.163807
0.199395
0.198258
0.197235
0.196308
0.195431
0.194563
0.193675
0.192755
0.191799
0.190812
0.189799
0.188765
0.187716
0.186657
0.185592
0.184526
0.183461
0.182401
0.181348
0.180303
0.17927
0.17825
0.177243
0.176253
0.175279
0.174322
0.173384
0.172466
0.171567
0.170689
0.169832
0.168996
0.168182
0.199395
0.198217
0.197099
0.196044
0.195047
0.194092
0.193165
0.192252
0.191343
0.190435
0.189525
0.188612
0.187697
0.186781
0.185867
0.184955
0.184048
0.183146
0.182252
0.181366
0.180489
0.179623
0.178769
0.177926
0.177097
0.176282
0.17548
0.174694
0.173922
0.173166
0.172426
0.171702
0.170995
0.199395
0.198211
0.19707
0.195974
0.194924
0.193917
0.192948
0.19201
0.191097
0.190204
0.189326
0.188462
0.187608
0.186764
0.185929
0.185103
0.184287
0.18348
0.182683
0.181896
0.181119
0.180354
0.179599
0.178857
0.178126
0.177408
0.176702
0.176009
0.17533
0.174663
0.17401
0.17337
0.172744
0.199395
0.19821
0.197064
0.195957
0.194889
0.19386
0.192867
0.191909
0.190981
0.190082
0.189208
0.188355
0.187523
0.186708
0.18591
0.185127
0.184358
0.183603
0.182862
0.182133
0.181417
0.180714
0.180023
0.179345
0.178679
0.178026
0.177385
0.176756
0.17614
0.175536
0.174945
0.174365
0.173798
0.199395
0.19821
0.197062
0.195953
0.19488
0.193843
0.19284
0.191871
0.190934
0.190027
0.189147
0.188294
0.187465
0.186659
0.185874
0.185108
0.184361
0.183631
0.182918
0.182221
0.181539
0.180871
0.180218
0.179579
0.178953
0.17834
0.177741
0.177154
0.17658
0.176018
0.175468
0.17493
0.174403
0.199395
0.198209
0.197062
0.195951
0.194877
0.193838
0.192832
0.191858
0.190916
0.190004
0.189121
0.188264
0.187434
0.186628
0.185846
0.185085
0.184345
0.183625
0.182925
0.182242
0.181576
0.180927
0.180293
0.179675
0.179072
0.178483
0.177908
0.177346
0.176797
0.176261
0.175738
0.175226
0.174727
0.199395
0.198209
0.197061
0.195951
0.194876
0.193836
0.192829
0.191854
0.19091
0.189995
0.189109
0.188251
0.187418
0.186611
0.185828
0.185068
0.18433
0.183613
0.182916
0.182239
0.181579
0.180938
0.180314
0.179706
0.179114
0.178537
0.177974
0.177426
0.176892
0.176371
0.175862
0.175367
0.174883
0.199395
0.198209
0.197061
0.19595
0.194875
0.193834
0.192827
0.191851
0.190907
0.189991
0.189104
0.188244
0.187411
0.186603
0.185818
0.185058
0.184319
0.183603
0.182907
0.18223
0.181573
0.180934
0.180313
0.17971
0.179122
0.17855
0.177994
0.177452
0.176925
0.176411
0.175911
0.175423
0.174948
0.199395
0.198209
0.197061
0.19595
0.194874
0.193833
0.192826
0.19185
0.190905
0.189989
0.189101
0.188241
0.187407
0.186598
0.185813
0.185051
0.184313
0.183595
0.182899
0.182223
0.181566
0.180928
0.180307
0.179705
0.179119
0.178549
0.177994
0.177455
0.176931
0.17642
0.175923
0.175439
0.174968
0.199395
0.198209
0.19706
0.195949
0.194874
0.193833
0.192825
0.191849
0.190903
0.189987
0.189099
0.188238
0.187404
0.186594
0.185809
0.185047
0.184308
0.18359
0.182893
0.182217
0.18156
0.180921
0.180301
0.179698
0.179112
0.178543
0.177989
0.17745
0.176927
0.176417
0.175921
0.175438
0.174968
0.199395
0.198209
0.19706
0.195949
0.194873
0.193832
0.192824
0.191848
0.190902
0.189985
0.189097
0.188236
0.187401
0.186591
0.185806
0.185044
0.184304
0.183586
0.182889
0.182212
0.181554
0.180916
0.180295
0.179692
0.179106
0.178536
0.177982
0.177444
0.17692
0.17641
0.175914
0.175432
0.174962
0.199395
0.198209
0.19706
0.195949
0.194873
0.193832
0.192823
0.191847
0.190901
0.189984
0.189095
0.188234
0.187399
0.186589
0.185803
0.185041
0.184301
0.183582
0.182885
0.182207
0.18155
0.180911
0.18029
0.179686
0.1791
0.17853
0.177976
0.177437
0.176912
0.176403
0.175907
0.175424
0.174954
0.199395
0.198208
0.19706
0.195948
0.194873
0.193831
0.192823
0.191846
0.1909
0.189983
0.189094
0.188232
0.187397
0.186587
0.185801
0.185038
0.184298
0.183579
0.182881
0.182204
0.181545
0.180906
0.180285
0.179681
0.179094
0.178524
0.177969
0.17743
0.176906
0.176395
0.175899
0.175416
0.174946
0.199395
0.198208
0.19706
0.195948
0.194872
0.193831
0.192822
0.191845
0.190899
0.189982
0.189093
0.188231
0.187395
0.186585
0.185798
0.185035
0.184295
0.183576
0.182878
0.1822
0.181542
0.180902
0.18028
0.179676
0.179089
0.178519
0.177964
0.177424
0.176899
0.176389
0.175892
0.175408
0.174938
0.199395
0.198208
0.19706
0.195948
0.194872
0.19383
0.192821
0.191844
0.190898
0.189981
0.189092
0.18823
0.187394
0.186583
0.185796
0.185033
0.184292
0.183573
0.182875
0.182197
0.181538
0.180898
0.180276
0.179672
0.179085
0.178514
0.177958
0.177418
0.176893
0.176382
0.175885
0.175401
0.174931
0.199395
0.198208
0.19706
0.195948
0.194872
0.19383
0.192821
0.191844
0.190897
0.18998
0.189091
0.188228
0.187392
0.186581
0.185795
0.185031
0.18429
0.183571
0.182872
0.182194
0.181535
0.180895
0.180273
0.179668
0.17908
0.178509
0.177953
0.177413
0.176888
0.176376
0.175879
0.175395
0.174924
0.199395
0.198208
0.19706
0.195948
0.194872
0.19383
0.192821
0.191843
0.190897
0.189979
0.18909
0.188227
0.187391
0.18658
0.185793
0.185029
0.184288
0.183568
0.18287
0.182191
0.181532
0.180891
0.180269
0.179664
0.179076
0.178505
0.177949
0.177408
0.176883
0.176371
0.175873
0.175389
0.174918
0.199395
0.198208
0.197059
0.195948
0.194871
0.193829
0.19282
0.191843
0.190896
0.189978
0.189089
0.188226
0.18739
0.186579
0.185791
0.185028
0.184286
0.183566
0.182867
0.182189
0.181529
0.180888
0.180266
0.179661
0.179073
0.178501
0.177945
0.177404
0.176878
0.176366
0.175868
0.175383
0.174912
0.199395
0.198208
0.197059
0.195947
0.194871
0.193829
0.19282
0.191843
0.190896
0.189978
0.189088
0.188225
0.187389
0.186577
0.18579
0.185026
0.184284
0.183564
0.182865
0.182186
0.181527
0.180886
0.180263
0.179658
0.179069
0.178497
0.177941
0.1774
0.176873
0.176361
0.175863
0.175378
0.174906
0.199395
0.198208
0.197059
0.195947
0.194871
0.193829
0.19282
0.191842
0.190895
0.189977
0.189087
0.188225
0.187388
0.186576
0.185789
0.185025
0.184283
0.183563
0.182864
0.182184
0.181525
0.180883
0.18026
0.179655
0.179066
0.178494
0.177937
0.177396
0.17687
0.176357
0.175859
0.175374
0.174902
0.199395
0.198208
0.197059
0.195947
0.194871
0.193829
0.19282
0.191842
0.190895
0.189977
0.189087
0.188224
0.187387
0.186576
0.185788
0.185024
0.184282
0.183561
0.182862
0.182183
0.181523
0.180881
0.180258
0.179652
0.179064
0.178491
0.177934
0.177393
0.176866
0.176353
0.175855
0.17537
0.174897
0.199395
0.198208
0.197059
0.195947
0.194871
0.193829
0.192819
0.191842
0.190895
0.189976
0.189086
0.188224
0.187387
0.186575
0.185787
0.185023
0.184281
0.18356
0.18286
0.182181
0.181521
0.180879
0.180256
0.17965
0.179061
0.178488
0.177931
0.17739
0.176863
0.17635
0.175851
0.175366
0.174893
0.199395
0.198208
0.197059
0.195947
0.194871
0.193829
0.192819
0.191842
0.190894
0.189976
0.189086
0.188223
0.187386
0.186574
0.185786
0.185022
0.18428
0.183559
0.182859
0.18218
0.181519
0.180878
0.180254
0.179648
0.179059
0.178486
0.177929
0.177387
0.17686
0.176347
0.175848
0.175362
0.17489
0.199395
0.198208
0.197059
0.195947
0.194871
0.193829
0.192819
0.191842
0.190894
0.189976
0.189086
0.188223
0.187386
0.186574
0.185786
0.185021
0.184279
0.183558
0.182858
0.182178
0.181518
0.180876
0.180253
0.179647
0.179057
0.178484
0.177927
0.177385
0.176858
0.176345
0.175845
0.17536
0.174887
0.199395
0.198208
0.197059
0.195947
0.194871
0.193829
0.192819
0.191841
0.190894
0.189976
0.189086
0.188223
0.187385
0.186573
0.185785
0.185021
0.184278
0.183557
0.182857
0.182178
0.181517
0.180875
0.180252
0.179645
0.179056
0.178483
0.177925
0.177383
0.176856
0.176342
0.175843
0.175357
0.174884
0.199395
0.198208
0.197059
0.195947
0.194871
0.193829
0.192819
0.191841
0.190894
0.189976
0.189086
0.188222
0.187385
0.186573
0.185785
0.18502
0.184278
0.183557
0.182857
0.182177
0.181516
0.180874
0.180251
0.179644
0.179055
0.178481
0.177924
0.177382
0.176854
0.176341
0.175841
0.175355
0.174882
0.199395
0.198208
0.197059
0.195947
0.194871
0.193829
0.192819
0.191841
0.190894
0.189976
0.189086
0.188222
0.187385
0.186573
0.185785
0.18502
0.184278
0.183557
0.182857
0.182177
0.181516
0.180874
0.180251
0.179644
0.179054
0.178481
0.177923
0.177381
0.176853
0.17634
0.17584
0.175354
0.174881
0.199395
0.198208
0.197059
0.195947
0.194871
0.193829
0.192819
0.191841
0.190894
0.189976
0.189086
0.188223
0.187386
0.186573
0.185786
0.185021
0.184278
0.183558
0.182858
0.182178
0.181517
0.180875
0.180251
0.179644
0.179055
0.178481
0.177923
0.177381
0.176852
0.176339
0.175839
0.175352
0.174878
0.199395
0.198208
0.197059
0.195947
0.194871
0.193829
0.19282
0.191843
0.190896
0.189978
0.189089
0.188226
0.18739
0.186578
0.185791
0.185026
0.184284
0.183563
0.182863
0.182183
0.181522
0.180879
0.180255
0.179647
0.179056
0.178481
0.177922
0.177378
0.176848
0.176333
0.17583
0.175342
0.174865
0.199395
0.198208
0.197059
0.195948
0.194872
0.193831
0.192824
0.191848
0.190902
0.189986
0.189098
0.188236
0.1874
0.186589
0.185801
0.185036
0.184293
0.183571
0.182869
0.182186
0.181522
0.180877
0.180248
0.179636
0.179041
0.178461
0.177897
0.177347
0.176811
0.176289
0.175781
0.175285
0.174802
0.199395
0.198209
0.197062
0.195955
0.194886
0.193853
0.192854
0.191885
0.190945
0.190033
0.189146
0.188284
0.187446
0.186631
0.185838
0.185066
0.184314
0.183582
0.182869
0.182174
0.181497
0.180837
0.180194
0.179567
0.178956
0.17836
0.177779
0.177212
0.176659
0.176119
0.175593
0.175079
0.174577
0.199395
0.198223
0.197106
0.196032
0.194988
0.19397
0.192977
0.192008
0.191061
0.190136
0.189233
0.188352
0.187492
0.186652
0.185833
0.185034
0.184253
0.183492
0.182748
0.182022
0.181314
0.180622
0.179947
0.179288
0.178644
0.178015
0.1774
0.1768
0.176214
0.175641
0.175082
0.174535
0.174001
0.19941
0.198319
0.197296
0.196301
0.19531
0.194319
0.193329
0.192346
0.191374
0.190417
0.189479
0.188561
0.187664
0.186788
0.185934
0.185101
0.184288
0.183495
0.182721
0.181966
0.18123
0.180511
0.179809
0.179123
0.178454
0.1778
0.177161
0.176537
0.175927
0.175331
0.174749
0.17418
0.173624
0.199716
0.199139
0.19847
0.197764
0.197072
0.196419
0.195812
0.195251
0.194735
0.194262
0.193831
0.193441
0.193089
0.192773
0.192493
0.192245
0.192027
0.191839
0.191676
0.191539
0.191425
0.191332
0.191258
0.191203
0.191164
0.191141
0.191132
0.191136
0.191152
0.191179
0.191217
0.191264
0.191319
0.205424
0.216593
0.227629
0.238434
0.248976
0.259243
0.269229
0.278926
0.288326
0.297424
0.306216
0.314701
0.322877
0.330747
0.338313
0.345577
0.352546
0.359225
0.365619
0.371736
0.377584
0.383171
0.388503
0.393591
0.398442
0.403065
0.407469
0.411661
0.415651
0.419447
0.423057
0.426489
0.429753
0.660072
0.768134
0.874153
0.981723
1.0924
1.20235
1.30505
1.39456
1.46733
1.52299
1.56374
1.59311
1.61468
1.63138
1.64515
1.657
1.66727
1.67589
1.68268
1.68753
1.69046
1.69165
1.69136
1.68994
1.68767
1.68483
1.68161
1.67816
1.67458
1.67095
1.66731
1.66368
1.66006
1.65642
1.65269
1.64879
1.64459
1.63994
1.63469
1.62866
1.62167
1.61355
1.6041
1.59318
1.58064
1.56636
1.55023
1.53221
1.51227
1.49041
1.4667
1.44123
1.41413
1.38557
1.35577
1.32497
1.29341
1.26139
1.22919
1.1971
1.16541
1.13441
1.10433
1.07542
1.04789
1.02189
0.997559
0.975004
0.954284
0.935427
0.918429
0.903258
0.889855
0.878138
0.868008
0.85935
0.852037
0.845932
0.840894
0.836777
0.833436
0.830727
0.82851
0.826653
0.825027
0.823515
0.822008
0.820406
0.81862
0.816568
0.81418
0.811393
0.808152
0.804407
0.800124
0.795241
0.789793
0.783533
0.777302
0.76664
0.276539
0.284721
0.298009
0.317403
0.344424
0.380588
0.426983
0.48394
0.550773
0.625742
0.706265
0.789258
0.87153
0.950168
1.02285
1.08802
1.14495
1.19366
1.2347
1.26894
1.2974
1.32104
1.34066
1.35687
1.37011
1.38071
1.38893
1.39499
1.39913
1.40158
1.40257
1.40229
1.40089
1.3985
1.39517
1.39095
1.38581
1.37973
1.37265
1.36449
1.35518
1.34463
1.33275
1.31946
1.3047
1.28842
1.27057
1.25116
1.23022
1.20781
1.18401
1.15895
1.13279
1.10572
1.07794
1.04971
1.02125
0.992842
0.964736
0.937186
0.910438
0.884715
0.86022
0.837128
0.815584
0.795702
0.777562
0.761216
0.746684
0.73396
0.723011
0.713784
0.706206
0.700188
0.695628
0.692411
0.690416
0.689513
0.689566
0.69044
0.691994
0.694093
0.6966
0.699384
0.702322
0.705292
0.708186
0.710901
0.713342
0.715426
0.717077
0.718228
0.71882
0.718799
0.718125
0.71674
0.714664
0.711695
0.708433
0.701972
0.162234
0.162075
0.162291
0.163025
0.16457
0.167277
0.171575
0.177999
0.187194
0.19989
0.21687
0.238905
0.266659
0.300587
0.340823
0.387104
0.438717
0.494505
0.552943
0.61227
0.670673
0.726486
0.778358
0.825364
0.867026
0.903267
0.934308
0.960557
0.982496
1.00061
1.01532
1.02699
1.03594
1.04239
1.04655
1.0486
1.04866
1.04686
1.04328
1.038
1.03108
1.02255
1.01246
1.00083
0.987703
0.973115
0.957123
0.939797
0.921228
0.901529
0.880836
0.859305
0.837114
0.81446
0.791551
0.768604
0.745842
0.723484
0.701741
0.680811
0.660876
0.642095
0.624604
0.608512
0.593904
0.580839
0.569351
0.559453
0.551138
0.544382
0.539145
0.535374
0.533006
0.531968
0.532176
0.53354
0.535964
0.539342
0.543566
0.548521
0.554088
0.560148
0.566577
0.573255
0.580063
0.586883
0.593606
0.600126
0.606345
0.612172
0.617524
0.622327
0.626513
0.630023
0.632806
0.634805
0.636017
0.636292
0.635954
0.633747
0.156976
0.15582
0.154717
0.153683
0.152725
0.151877
0.151188
0.150724
0.150572
0.150846
0.151687
0.153273
0.155823
0.159601
0.164923
0.172152
0.181688
0.193949
0.209329
0.228143
0.250565
0.276565
0.305868
0.337948
0.37205
0.407259
0.442589
0.47708
0.509882
0.540317
0.567907
0.592367
0.613584
0.63157
0.646429
0.658313
0.667399
0.673865
0.677886
0.679623
0.679227
0.676839
0.672591
0.666611
0.659028
0.649969
0.63957
0.62797
0.615319
0.601773
0.587499
0.572672
0.557471
0.54208
0.526681
0.511454
0.496569
0.482186
0.468451
0.455493
0.44342
0.432324
0.422276
0.413328
0.405519
0.398869
0.393388
0.389075
0.385921
0.38391
0.383021
0.383228
0.384501
0.386803
0.390096
0.394332
0.39946
0.405419
0.412141
0.41955
0.42756
0.43608
0.44501
0.454246
0.463681
0.473205
0.482706
0.492079
0.501216
0.51002
0.518395
0.526255
0.533519
0.540114
0.545977
0.55104
0.555277
0.558586
0.56099
0.562919
0.162755
0.161579
0.160413
0.159263
0.158129
0.157014
0.155926
0.154875
0.153875
0.152943
0.152104
0.151386
0.150827
0.150471
0.150373
0.150597
0.151224
0.152346
0.154072
0.156527
0.159851
0.164192
0.169702
0.176522
0.184768
0.194507
0.205742
0.218391
0.232284
0.247158
0.262683
0.278473
0.294128
0.309255
0.323501
0.336566
0.34822
0.358299
0.366707
0.373403
0.378394
0.381727
0.383475
0.383735
0.382617
0.380247
0.376755
0.372281
0.366968
0.360963
0.354411
0.347457
0.340243
0.332905
0.32557
0.318355
0.311368
0.304701
0.298434
0.292635
0.287359
0.282648
0.278537
0.275049
0.272204
0.270016
0.268495
0.267651
0.267493
0.268028
0.269265
0.271215
0.273885
0.277285
0.28142
0.286292
0.291899
0.298231
0.305271
0.312989
0.321347
0.330293
0.339764
0.349683
0.359966
0.370518
0.381236
0.392014
0.402743
0.413314
0.423619
0.433556
0.443025
0.451935
0.460203
0.467744
0.474501
0.480414
0.485196
0.490895
0.167258
0.166213
0.165165
0.164117
0.163068
0.162022
0.160979
0.159943
0.158915
0.157901
0.156905
0.155935
0.155
0.154111
0.153281
0.152526
0.151866
0.151321
0.150917
0.150682
0.150647
0.150846
0.151315
0.152093
0.153219
0.154733
0.15667
0.159057
0.161913
0.165242
0.16903
0.17324
0.177815
0.182673
0.187716
0.192827
0.197884
0.202761
0.207341
0.211519
0.215206
0.218338
0.22087
0.222782
0.224074
0.224767
0.224895
0.224507
0.223661
0.222421
0.220857
0.219038
0.217032
0.214905
0.21272
0.210531
0.20839
0.206341
0.204421
0.202665
0.2011
0.19975
0.198636
0.197776
0.197188
0.196887
0.196892
0.197221
0.197892
0.198928
0.200352
0.20219
0.204471
0.207225
0.210483
0.214275
0.218633
0.223582
0.229146
0.235341
0.242173
0.24964
0.257724
0.266396
0.275609
0.285303
0.295405
0.305827
0.316471
0.327232
0.337999
0.348657
0.359093
0.369195
0.378857
0.387977
0.396457
0.404274
0.41084
0.41962
0.170189
0.169272
0.168348
0.167417
0.166481
0.165539
0.164594
0.163646
0.162696
0.161745
0.160795
0.159849
0.15891
0.15798
0.157064
0.156168
0.155299
0.154462
0.153668
0.152925
0.152244
0.151635
0.151112
0.150685
0.150368
0.150172
0.150108
0.150186
0.150414
0.150799
0.151341
0.15204
0.152889
0.153877
0.154986
0.156194
0.157475
0.158797
0.160127
0.161431
0.162676
0.163829
0.164865
0.165761
0.166501
0.167075
0.167482
0.167723
0.167807
0.167747
0.167558
0.16726
0.166873
0.166416
0.165911
0.165378
0.164834
0.164299
0.163787
0.163314
0.162894
0.16254
0.162263
0.162077
0.161993
0.162024
0.162185
0.16249
0.162956
0.163602
0.164448
0.165519
0.166841
0.168441
0.170353
0.17261
0.175248
0.178305
0.181819
0.185827
0.190363
0.195457
0.201133
0.207404
0.214273
0.221728
0.229745
0.238279
0.247273
0.256651
0.266326
0.276198
0.286157
0.296088
0.305874
0.315397
0.324531
0.333276
0.340798
0.3516
0.172029
0.171215
0.170391
0.169559
0.16872
0.167873
0.167019
0.166159
0.165293
0.164422
0.163547
0.162669
0.161788
0.160907
0.160027
0.15915
0.158279
0.157418
0.156568
0.155735
0.154924
0.154138
0.153383
0.152666
0.15199
0.151363
0.150789
0.150272
0.149819
0.149431
0.149111
0.14886
0.148679
0.148564
0.148513
0.148521
0.14858
0.148682
0.148817
0.148976
0.149147
0.14932
0.149484
0.149629
0.149748
0.149833
0.14988
0.149886
0.149849
0.14977
0.149651
0.149495
0.149307
0.149091
0.148853
0.148598
0.148333
0.148063
0.147795
0.147534
0.147285
0.147055
0.146849
0.146674
0.146536
0.146443
0.146402
0.146424
0.146519
0.146698
0.146976
0.147368
0.147893
0.14857
0.149423
0.150477
0.15176
0.153304
0.155141
0.157308
0.15984
0.162776
0.166152
0.170002
0.174356
0.179238
0.184663
0.190634
0.197143
0.204163
0.211655
0.21956
0.227805
0.236303
0.244952
0.253647
0.262251
0.270791
0.278289
0.289735
0.17315
0.172412
0.171665
0.170909
0.170146
0.169375
0.168596
0.16781
0.167017
0.166217
0.165411
0.1646
0.163784
0.162963
0.16214
0.161314
0.160487
0.159661
0.158837
0.158017
0.157204
0.1564
0.155608
0.15483
0.15407
0.15333
0.152614
0.151925
0.151265
0.150637
0.150044
0.149486
0.148965
0.148482
0.148036
0.147626
0.14725
0.146907
0.146594
0.146306
0.14604
0.145792
0.145557
0.145332
0.145112
0.144894
0.144675
0.144452
0.144222
0.143985
0.14374
0.143485
0.143222
0.14295
0.14267
0.142384
0.142092
0.141795
0.141496
0.141196
0.140896
0.140599
0.140306
0.140021
0.139746
0.139486
0.139243
0.139024
0.138834
0.138679
0.138569
0.138513
0.138521
0.138606
0.138784
0.13907
0.139484
0.140047
0.140783
0.141717
0.142878
0.144296
0.146003
0.148033
0.150419
0.153193
0.156385
0.160022
0.164122
0.168697
0.173747
0.179261
0.185211
0.191557
0.198239
0.20519
0.212298
0.21962
0.226179
0.236819
0.173803
0.173118
0.172426
0.171727
0.17102
0.170306
0.169585
0.168856
0.168121
0.167378
0.16663
0.165875
0.165115
0.164349
0.163578
0.162804
0.162026
0.161246
0.160464
0.159682
0.158901
0.158122
0.157347
0.156577
0.155815
0.155061
0.154318
0.153588
0.152873
0.152174
0.151493
0.150832
0.150192
0.149574
0.148978
0.148406
0.147857
0.147331
0.146828
0.146345
0.145883
0.145439
0.145012
0.1446
0.1442
0.143812
0.143432
0.14306
0.142694
0.142331
0.141971
0.141613
0.141255
0.140896
0.140537
0.140175
0.13981
0.139443
0.139072
0.138698
0.13832
0.137939
0.137555
0.137168
0.13678
0.136392
0.136005
0.135623
0.135248
0.134884
0.134535
0.134206
0.133905
0.133638
0.133414
0.133245
0.133141
0.133116
0.133186
0.133368
0.133682
0.134148
0.13479
0.135633
0.136703
0.138029
0.139639
0.14156
0.143818
0.146437
0.149435
0.152825
0.156612
0.16079
0.165341
0.170237
0.175411
0.180943
0.185996
0.194717
0.174157
0.173509
0.172855
0.172194
0.171527
0.170854
0.170174
0.169488
0.168796
0.168097
0.167392
0.166682
0.165965
0.165244
0.164517
0.163786
0.163051
0.162313
0.161572
0.160828
0.160083
0.159338
0.158594
0.15785
0.15711
0.156372
0.15564
0.154914
0.154196
0.153486
0.152785
0.152097
0.15142
0.150757
0.150107
0.149473
0.148855
0.148252
0.147666
0.147095
0.146541
0.146002
0.145477
0.144967
0.14447
0.143986
0.143512
0.143048
0.142593
0.142146
0.141705
0.141269
0.140836
0.140406
0.139978
0.13955
0.13912
0.138689
0.138255
0.137816
0.137373
0.136924
0.136469
0.136007
0.135539
0.135065
0.134584
0.134099
0.13361
0.133118
0.132627
0.132139
0.131658
0.131188
0.130734
0.130302
0.1299
0.129536
0.129219
0.12896
0.128772
0.128669
0.128667
0.128783
0.129036
0.129445
0.130034
0.130824
0.131838
0.133099
0.134627
0.136441
0.138558
0.140987
0.143732
0.146792
0.150136
0.153847
0.157297
0.163633
0.174332
0.173707
0.173077
0.172441
0.1718
0.171154
0.170502
0.169845
0.169183
0.168515
0.167842
0.167164
0.16648
0.165792
0.165099
0.164402
0.163701
0.162996
0.162288
0.161578
0.160865
0.160151
0.159435
0.15872
0.158005
0.157291
0.15658
0.155871
0.155166
0.154465
0.153771
0.153082
0.152401
0.151729
0.151065
0.150411
0.149768
0.149136
0.148515
0.147906
0.14731
0.146725
0.146152
0.145591
0.145041
0.144502
0.143973
0.143454
0.142944
0.142442
0.141946
0.141456
0.140971
0.14049
0.14001
0.139532
0.139053
0.138573
0.138089
0.137602
0.13711
0.136612
0.136106
0.135592
0.13507
0.134539
0.133999
0.133449
0.132891
0.132324
0.13175
0.131171
0.130587
0.130002
0.129418
0.12884
0.12827
0.127714
0.127179
0.126669
0.126195
0.125763
0.125385
0.125071
0.124835
0.12469
0.124651
0.124736
0.12496
0.125342
0.1259
0.126651
0.127611
0.128795
0.130214
0.131878
0.133774
0.135974
0.138058
0.142152
0.174408
0.173795
0.173178
0.172557
0.171932
0.171303
0.170669
0.17003
0.169387
0.16874
0.168088
0.167432
0.166771
0.166106
0.165437
0.164764
0.164088
0.163408
0.162725
0.16204
0.161352
0.160662
0.159971
0.15928
0.158587
0.157895
0.157204
0.156513
0.155825
0.155139
0.154457
0.153779
0.153105
0.152436
0.151774
0.151118
0.150469
0.149828
0.149196
0.148572
0.147957
0.147351
0.146755
0.146168
0.14559
0.145021
0.144461
0.143909
0.143365
0.142828
0.142297
0.141772
0.141251
0.140733
0.140218
0.139704
0.139189
0.138674
0.138155
0.137633
0.137106
0.136573
0.136032
0.135483
0.134925
0.134357
0.133778
0.133189
0.132589
0.131977
0.131356
0.130724
0.130083
0.129434
0.128779
0.12812
0.127459
0.126799
0.126143
0.125496
0.124862
0.124247
0.123657
0.123099
0.122581
0.122112
0.121702
0.121363
0.121107
0.120946
0.120894
0.120964
0.121171
0.121528
0.122046
0.122738
0.123601
0.124688
0.125751
0.128045
0.174433
0.173826
0.173216
0.172603
0.171986
0.171366
0.170742
0.170114
0.169483
0.168848
0.168209
0.167566
0.16692
0.16627
0.165617
0.164961
0.164301
0.163638
0.162973
0.162305
0.161635
0.160964
0.160291
0.159616
0.158941
0.158266
0.157591
0.156916
0.156243
0.155571
0.154901
0.154233
0.153569
0.152908
0.152252
0.1516
0.150953
0.150312
0.149677
0.149049
0.148427
0.147813
0.147206
0.146606
0.146013
0.145428
0.14485
0.144279
0.143715
0.143156
0.142603
0.142054
0.14151
0.140968
0.140428
0.139889
0.13935
0.13881
0.138267
0.137721
0.137169
0.136612
0.136047
0.135474
0.134892
0.1343
0.133698
0.133084
0.132458
0.131821
0.131171
0.13051
0.129837
0.129154
0.12846
0.127758
0.127048
0.126333
0.125614
0.124893
0.124175
0.123461
0.122756
0.122063
0.12139
0.120739
0.12012
0.119537
0.119
0.118517
0.118097
0.117751
0.117489
0.117321
0.117258
0.11731
0.117481
0.117801
0.118155
0.119135
0.174435
0.173831
0.173224
0.172614
0.172002
0.171386
0.170767
0.170145
0.169519
0.168891
0.168259
0.167625
0.166987
0.166346
0.165702
0.165055
0.164406
0.163754
0.1631
0.162444
0.161786
0.161126
0.160465
0.159803
0.15914
0.158476
0.157813
0.157149
0.156487
0.155825
0.155165
0.154506
0.15385
0.153197
0.152546
0.151899
0.151256
0.150618
0.149984
0.149355
0.148732
0.148114
0.147502
0.146896
0.146296
0.145702
0.145114
0.144532
0.143955
0.143383
0.142816
0.142252
0.141692
0.141134
0.140578
0.140023
0.139467
0.13891
0.13835
0.137786
0.137218
0.136645
0.136064
0.135475
0.134878
0.13427
0.133653
0.133024
0.132383
0.13173
0.131065
0.130387
0.129697
0.128995
0.128282
0.127557
0.126823
0.126079
0.125327
0.12457
0.123807
0.123043
0.122278
0.121515
0.120759
0.120011
0.119277
0.118561
0.117867
0.117201
0.116571
0.115981
0.11544
0.114954
0.114533
0.114183
0.113912
0.113731
0.113619
0.113693
0.174429
0.173826
0.17322
0.172611
0.172
0.171386
0.170769
0.170149
0.169527
0.168901
0.168273
0.167642
0.167009
0.166373
0.165734
0.165093
0.164449
0.163804
0.163156
0.162506
0.161855
0.161202
0.160549
0.159894
0.159238
0.158582
0.157926
0.15727
0.156614
0.15596
0.155306
0.154653
0.154003
0.153355
0.152709
0.152066
0.151426
0.15079
0.150157
0.149529
0.148905
0.148286
0.147672
0.147063
0.146458
0.145859
0.145265
0.144676
0.144091
0.143511
0.142934
0.142361
0.14179
0.141222
0.140654
0.140088
0.13952
0.138952
0.138381
0.137806
0.137227
0.136642
0.13605
0.135451
0.134844
0.134227
0.133599
0.132961
0.132312
0.13165
0.130976
0.13029
0.129591
0.128879
0.128156
0.12742
0.126674
0.125916
0.125149
0.124374
0.12359
0.122801
0.122006
0.121209
0.120411
0.119613
0.11882
0.118033
0.117256
0.116492
0.115745
0.115019
0.11432
0.113652
0.11302
0.112431
0.111891
0.111398
0.110995
0.110478
0.174421
0.173818
0.173212
0.172603
0.171992
0.171378
0.170762
0.170143
0.169521
0.168897
0.16827
0.167641
0.167009
0.166375
0.165739
0.1651
0.16446
0.163817
0.163173
0.162527
0.161879
0.16123
0.16058
0.159929
0.159277
0.158625
0.157973
0.157321
0.156669
0.156018
0.155368
0.154719
0.154072
0.153426
0.152783
0.152142
0.151504
0.150869
0.150237
0.149609
0.148984
0.148364
0.147748
0.147137
0.146529
0.145927
0.145328
0.144734
0.144144
0.143557
0.142974
0.142394
0.141817
0.141241
0.140666
0.140091
0.139516
0.138939
0.13836
0.137778
0.137191
0.136599
0.136
0.135394
0.13478
0.134157
0.133524
0.13288
0.132225
0.131559
0.13088
0.13019
0.129486
0.128771
0.128043
0.127302
0.12655
0.125787
0.125014
0.12423
0.123437
0.122636
0.121829
0.121015
0.120197
0.119376
0.118554
0.117732
0.116912
0.116098
0.11529
0.114492
0.113708
0.112939
0.11219
0.111464
0.110769
0.110091
0.109516
0.108631
0.174413
0.173809
0.173202
0.172593
0.171982
0.171368
0.170751
0.170132
0.169511
0.168887
0.168261
0.167632
0.167001
0.166368
0.165732
0.165094
0.164455
0.163813
0.16317
0.162526
0.161879
0.161232
0.160584
0.159934
0.159284
0.158634
0.157983
0.157333
0.156683
0.156033
0.155384
0.154736
0.15409
0.153445
0.152802
0.152162
0.151524
0.150888
0.150256
0.149627
0.149002
0.14838
0.147762
0.147148
0.146538
0.145932
0.14533
0.144732
0.144137
0.143546
0.142958
0.142373
0.141789
0.141208
0.140627
0.140047
0.139466
0.138883
0.138298
0.13771
0.137118
0.136521
0.135917
0.135307
0.134689
0.134062
0.133425
0.132778
0.13212
0.131451
0.130771
0.130078
0.129373
0.128655
0.127926
0.127184
0.126431
0.125666
0.12489
0.124103
0.123307
0.122503
0.121689
0.120869
0.120043
0.119211
0.118376
0.117537
0.116698
0.115859
0.115021
0.114187
0.113358
0.112537
0.111726
0.110926
0.110145
0.109364
0.108691
0.10759
0.174404
0.1738
0.173193
0.172584
0.171972
0.171357
0.170741
0.170121
0.1695
0.168875
0.168249
0.16762
0.166989
0.166356
0.16572
0.165083
0.164444
0.163802
0.163159
0.162515
0.161869
0.161222
0.160574
0.159925
0.159275
0.158625
0.157975
0.157324
0.156674
0.156024
0.155375
0.154727
0.15408
0.153435
0.152791
0.15215
0.15151
0.150874
0.15024
0.149609
0.148981
0.148357
0.147737
0.14712
0.146507
0.145898
0.145292
0.14469
0.144092
0.143496
0.142904
0.142314
0.141726
0.14114
0.140555
0.13997
0.139384
0.138797
0.138208
0.137615
0.137019
0.136418
0.135811
0.135197
0.134576
0.133946
0.133307
0.132658
0.131999
0.131329
0.130647
0.129954
0.129248
0.128531
0.127801
0.12706
0.126306
0.125541
0.124765
0.123979
0.123182
0.122377
0.121562
0.12074
0.119911
0.119075
0.118234
0.117389
0.116541
0.11569
0.114838
0.113987
0.113137
0.112289
0.111446
0.110608
0.109782
0.108945
0.10822
0.106997
0.174397
0.173792
0.173184
0.172575
0.171962
0.171347
0.17073
0.17011
0.169488
0.168864
0.168237
0.167608
0.166976
0.166343
0.165707
0.16507
0.16443
0.163789
0.163145
0.162501
0.161855
0.161207
0.160559
0.159909
0.159259
0.158608
0.157957
0.157306
0.156655
0.156004
0.155354
0.154704
0.154056
0.153409
0.152764
0.15212
0.151479
0.15084
0.150204
0.149571
0.148941
0.148314
0.14769
0.14707
0.146454
0.145841
0.145232
0.144626
0.144023
0.143424
0.142828
0.142234
0.141642
0.141051
0.140461
0.139872
0.139282
0.138691
0.138098
0.137502
0.136903
0.136298
0.135689
0.135072
0.134449
0.133817
0.133177
0.132527
0.131866
0.131196
0.130513
0.12982
0.129115