/*--------------------------------*- C++ -*----------------------------------*\
| =========                 |                                                 |
| \\      /  F ield         | OpenFOAM: The Open Source CFD Toolbox           |
|  \\    /   O peration     | Version:  4.1                                   |
|   \\  /    A nd           | Web:      www.OpenFOAM.org                      |
|    \\/     M anipulation  |                                                 |
\*---------------------------------------------------------------------------*/
FoamFile
{
    version     2.0;
    format      ascii;
    class       volScalarField;
    location    "1300";
    object      p;
}
// * * * * * * * * * * * * * * * * * * * * * * * * * * * * * * * * * * * * * //

dimensions      [0 2 -2 0 0 0 0];

internalField   nonuniform List<scalar> 
6820
(
-7.89273
-8.69247
-9.15297
-9.29781
-9.37637
-9.45068
-9.51052
-9.55611
-9.59482
-9.63031
-9.66311
-9.69344
-9.72178
-9.74854
-9.77397
-9.79826
-9.82158
-9.84411
-9.866
-9.8874
-9.90846
-9.92933
-9.95015
-9.97109
-9.9923
-10.014
-10.0363
-10.0596
-10.0839
-10.1102
-10.1369
-10.1707
-10.1859
-9.56644
-9.73222
-9.71781
-9.63825
-9.59599
-9.59275
-9.60281
-9.61638
-9.63368
-9.65447
-9.67717
-9.70055
-9.72412
-9.74762
-9.77086
-9.7937
-9.81609
-9.83805
-9.85962
-9.88087
-9.90189
-9.92277
-9.94364
-9.96463
-9.98587
-10.0075
-10.0298
-10.053
-10.0771
-10.103
-10.1307
-10.164
-10.2054
-9.54486
-9.3568
-9.3382
-9.37267
-9.41448
-9.46274
-9.50926
-9.54976
-9.58627
-9.62064
-9.65306
-9.68346
-9.71207
-9.73918
-9.76498
-9.78963
-9.81329
-9.8361
-9.85823
-9.87983
-9.90102
-9.92197
-9.94281
-9.96368
-9.98473
-10.0061
-10.0281
-10.0508
-10.0744
-10.0995
-10.1263
-10.1571
-10.1888
-9.46273
-9.36035
-9.40978
-9.47043
-9.50386
-9.53437
-9.56591
-9.59473
-9.62153
-9.64779
-9.67361
-9.6987
-9.72306
-9.74675
-9.76983
-9.79231
-9.81424
-9.83571
-9.85677
-9.87752
-9.89806
-9.91846
-9.93885
-9.95934
-9.98003
-10.0011
-10.0226
-10.0447
-10.0677
-10.0917
-10.1169
-10.1439
-10.1705
-9.4552
-9.41531
-9.44749
-9.48523
-9.50743
-9.53231
-9.56148
-9.58981
-9.61674
-9.64326
-9.66942
-9.69491
-9.71964
-9.74366
-9.76701
-9.78972
-9.81184
-9.83343
-9.85457
-9.87536
-9.89588
-9.91623
-9.93651
-9.95682
-9.97727
-9.99796
-10.019
-10.0406
-10.0627
-10.0855
-10.109
-10.1331
-10.1565
-9.46439
-9.44429
-9.46022
-9.48998
-9.51391
-9.53931
-9.56762
-9.5953
-9.62166
-9.64748
-9.67288
-9.69764
-9.72168
-9.74506
-9.76781
-9.78996
-9.81158
-9.83271
-9.85343
-9.87382
-9.89397
-9.91395
-9.93386
-9.95377
-9.97378
-9.99397
-10.0144
-10.0352
-10.0564
-10.0779
-10.0996
-10.1214
-10.1423
-9.47382
-9.46265
-9.47377
-9.50006
-9.52404
-9.54797
-9.5741
-9.60027
-9.62558
-9.65043
-9.67495
-9.69895
-9.72234
-9.74515
-9.76741
-9.78913
-9.81036
-9.83114
-9.85155
-9.87165
-9.8915
-9.91118
-9.93077
-9.95032
-9.96991
-9.9896
-10.0094
-10.0294
-10.0496
-10.0699
-10.0901
-10.11
-10.1288
-9.48392
-9.47884
-9.48849
-9.51095
-9.53336
-9.55572
-9.58003
-9.60487
-9.62921
-9.65319
-9.6769
-9.70019
-9.72297
-9.74523
-9.76699
-9.78827
-9.8091
-9.82951
-9.84957
-9.86932
-9.88883
-9.90815
-9.92735
-9.94648
-9.96559
-9.98471
-10.0039
-10.0231
-10.0423
-10.0614
-10.0802
-10.0984
-10.1156
-9.4948
-9.49346
-9.50225
-9.52136
-9.54211
-9.56323
-9.58601
-9.60955
-9.63288
-9.65597
-9.67886
-9.70142
-9.72355
-9.74523
-9.76647
-9.78728
-9.80767
-9.82768
-9.84735
-9.86672
-9.88586
-9.90479
-9.92357
-9.94224
-9.96083
-9.97936
-9.99783
-10.0162
-10.0345
-10.0525
-10.07
-10.0869
-10.1028
-9.50597
-9.50667
-9.51494
-9.53153
-9.55069
-9.57063
-9.592
-9.61425
-9.63656
-9.65874
-9.6808
-9.70262
-9.72409
-9.74518
-9.76588
-9.78619
-9.80612
-9.8257
-9.84496
-9.86393
-9.88265
-9.90115
-9.91948
-9.93765
-9.95569
-9.9736
-9.99137
-10.009
-10.0263
-10.0433
-10.0597
-10.0754
-10.0902
-9.51706
-9.51883
-9.52675
-9.54144
-9.55906
-9.57782
-9.59789
-9.61891
-9.6402
-9.6615
-9.68273
-9.7038
-9.7246
-9.74509
-9.76523
-9.78502
-9.80448
-9.8236
-9.84242
-9.86095
-9.87923
-9.89728
-9.91513
-9.93278
-9.95024
-9.96752
-9.98457
-10.0014
-10.0178
-10.0339
-10.0493
-10.064
-10.0778
-9.52787
-9.53016
-9.53775
-9.55096
-9.56716
-9.58477
-9.60366
-9.62352
-9.64381
-9.66422
-9.68464
-9.70497
-9.72509
-9.74496
-9.76453
-9.78379
-9.80275
-9.8214
-9.83975
-9.85782
-9.87564
-9.8932
-9.91054
-9.92765
-9.94452
-9.96115
-9.97751
-9.99354
-10.0092
-10.0243
-10.0389
-10.0527
-10.0657
-9.53827
-9.54077
-9.54803
-9.56005
-9.57496
-9.59146
-9.60925
-9.62803
-9.64735
-9.66688
-9.6865
-9.70609
-9.72553
-9.74478
-9.76377
-9.78249
-9.80093
-9.81908
-9.83695
-9.85454
-9.87187
-9.88893
-9.90574
-9.92229
-9.93857
-9.95456
-9.97023
-9.98553
-10.0004
-10.0147
-10.0285
-10.0415
-10.0538
-9.54819
-9.55072
-9.55761
-9.56866
-9.58243
-9.59788
-9.61464
-9.6324
-9.65077
-9.66946
-9.68829
-9.70714
-9.72591
-9.74453
-9.76294
-9.78111
-9.79902
-9.81666
-9.83403
-9.85112
-9.86794
-9.88449
-9.90076
-9.91674
-9.93243
-9.94778
-9.96278
-9.97737
-9.9915
-10.0051
-10.0181
-10.0304
-10.042
-9.55756
-9.56004
-9.56656
-9.57676
-9.58952
-9.60399
-9.61979
-9.63659
-9.65407
-9.67192
-9.68998
-9.70811
-9.72621
-9.7442
-9.76202
-9.77963
-9.79701
-9.81413
-9.83098
-9.84756
-9.86387
-9.87988
-9.89561
-9.91102
-9.92611
-9.94084
-9.95519
-9.9691
-9.98254
-9.99544
-10.0078
-10.0194
-10.0304
-9.56636
-9.56873
-9.57488
-9.58436
-9.59622
-9.60978
-9.62467
-9.64058
-9.65719
-9.67424
-9.69155
-9.70897
-9.72641
-9.74378
-9.76101
-9.77805
-9.79488
-9.81147
-9.82781
-9.84387
-9.85964
-9.87513
-9.8903
-9.90514
-9.91964
-9.93376
-9.94748
-9.96075
-9.97353
-9.98579
-9.99747
-10.0085
-10.0189
-9.57457
-9.57682
-9.58259
-9.59143
-9.60248
-9.6152
-9.62925
-9.64431
-9.66011
-9.67639
-9.69297
-9.70971
-9.72649
-9.74324
-9.75988
-9.77636
-9.79264
-9.8087
-9.8245
-9.84004
-9.85528
-9.87023
-9.88485
-9.89913
-9.91305
-9.92657
-9.93968
-9.95234
-9.96451
-9.97615
-9.98724
-9.99774
-10.0076
-9.58215
-9.58428
-9.5897
-9.59796
-9.60829
-9.62024
-9.6335
-9.64778
-9.6628
-9.67834
-9.69422
-9.71028
-9.72643
-9.74257
-9.75863
-9.77455
-9.79028
-9.8058
-9.82107
-9.83608
-9.85079
-9.8652
-9.87927
-9.89299
-9.90634
-9.91929
-9.93182
-9.94388
-9.95547
-9.96654
-9.97707
-9.98705
-9.99645
-9.58911
-9.59112
-9.5962
-9.60394
-9.61362
-9.62486
-9.63739
-9.65093
-9.66523
-9.68007
-9.69526
-9.71068
-9.72621
-9.74175
-9.75723
-9.77259
-9.78779
-9.80277
-9.81751
-9.83199
-9.84618
-9.86005
-9.87358
-9.88676
-9.89955
-9.91194
-9.9239
-9.93541
-9.94644
-9.95697
-9.96698
-9.97645
-9.98539
-9.59543
-9.59732
-9.60209
-9.60935
-9.61845
-9.62905
-9.6409
-9.65376
-9.66737
-9.68154
-9.69609
-9.71089
-9.72581
-9.74077
-9.75569
-9.7705
-9.78515
-9.79961
-9.81383
-9.82778
-9.84144
-9.85479
-9.86779
-9.88043
-9.89268
-9.90453
-9.91595
-9.92692
-9.93742
-9.94744
-9.95695
-9.96596
-9.97444
-9.60109
-9.60286
-9.60735
-9.61418
-9.62275
-9.63276
-9.64399
-9.65621
-9.66919
-9.68273
-9.69667
-9.71086
-9.72521
-9.73961
-9.75398
-9.76825
-9.78238
-9.79631
-9.81002
-9.82345
-9.8366
-9.84943
-9.86191
-9.87403
-9.88576
-9.89709
-9.90799
-9.91844
-9.92844
-9.93796
-9.94701
-9.95556
-9.96362
-9.60607
-9.60775
-9.61198
-9.61841
-9.62651
-9.63598
-9.64664
-9.65827
-9.67066
-9.68361
-9.69697
-9.7106
-9.72439
-9.73825
-9.75209
-9.76584
-9.77945
-9.79288
-9.80608
-9.81901
-9.83166
-9.84398
-9.85596
-9.86757
-9.8788
-9.88962
-9.90002
-9.90999
-9.9195
-9.92856
-9.93715
-9.94527
-9.95292
-9.61037
-9.61196
-9.61595
-9.62203
-9.62969
-9.63867
-9.64881
-9.65991
-9.67175
-9.68415
-9.69697
-9.71007
-9.72334
-9.73668
-9.75001
-9.76326
-9.77638
-9.78931
-9.80202
-9.81447
-9.82662
-9.83845
-9.84994
-9.86107
-9.87181
-9.88215
-9.89207
-9.90157
-9.91062
-9.91923
-9.92739
-9.9351
-9.94236
-9.61396
-9.61547
-9.61924
-9.62499
-9.63227
-9.64081
-9.65049
-9.66109
-9.67243
-9.68433
-9.69665
-9.70925
-9.72203
-9.73488
-9.74773
-9.7605
-9.77314
-9.7856
-9.79784
-9.80981
-9.8215
-9.83286
-9.84388
-9.85453
-9.86481
-9.87469
-9.88415
-9.8932
-9.90181
-9.91
-9.91774
-9.92506
-9.93193
-9.61683
-9.61825
-9.62183
-9.62729
-9.63421
-9.64237
-9.65162
-9.66179
-9.67268
-9.68413
-9.69598
-9.70813
-9.72045
-9.73284
-9.74524
-9.75756
-9.76975
-9.78176
-9.79354
-9.80507
-9.8163
-9.82721
-9.83778
-9.84799
-9.85782
-9.86725
-9.87628
-9.8849
-9.8931
-9.90087
-9.90823
-9.91515
-9.92166
-9.61894
-9.6203
-9.62369
-9.62889
-9.6355
-9.64331
-9.65219
-9.66197
-9.67246
-9.6835
-9.69495
-9.70668
-9.71858
-9.73056
-9.74253
-9.75443
-9.7662
-9.77778
-9.78914
-9.80023
-9.81104
-9.82152
-9.83166
-9.84144
-9.85085
-9.85986
-9.86848
-9.87669
-9.88449
-9.89187
-9.89885
-9.90541
-9.91156
-9.62028
-9.62157
-9.62479
-9.62975
-9.63608
-9.64359
-9.65216
-9.66161
-9.67175
-9.68244
-9.69352
-9.70488
-9.71641
-9.72801
-9.7396
-9.75111
-9.76248
-9.77367
-9.78463
-9.79533
-9.80573
-9.81581
-9.82555
-9.83492
-9.84393
-9.85255
-9.86077
-9.8686
-9.87602
-9.88303
-9.88965
-9.89586
-9.90167
-9.62082
-9.62204
-9.6251
-9.62983
-9.63592
-9.64318
-9.65148
-9.66065
-9.67051
-9.6809
-9.69168
-9.70273
-9.71393
-9.72519
-9.73643
-9.74759
-9.75861
-9.76943
-9.78002
-9.79034
-9.80037
-9.81007
-9.81942
-9.82842
-9.83705
-9.84529
-9.85315
-9.86061
-9.86767
-9.87433
-9.8806
-9.88648
-9.89197
-9.62053
-9.62168
-9.62457
-9.62908
-9.63495
-9.64202
-9.65012
-9.65908
-9.66872
-9.67887
-9.68941
-9.70019
-9.71112
-9.7221
-9.73305
-9.7439
-9.7546
-9.7651
-9.77536
-9.78535
-9.79503
-9.80439
-9.8134
-9.82205
-9.83033
-9.83823
-9.84574
-9.85286
-9.85958
-9.86592
-9.87186
-9.87742
-9.88259
-9.6194
-9.62047
-9.62316
-9.62744
-9.63312
-9.64004
-9.64801
-9.65684
-9.66633
-9.67632
-9.68668
-9.69726
-9.70796
-9.7187
-9.72939
-9.73996
-9.75038
-9.76058
-9.77053
-9.78019
-9.78956
-9.79859
-9.80727
-9.8156
-9.82355
-9.83112
-9.83831
-9.84511
-9.85152
-9.85755
-9.86319
-9.86845
-9.87334
-9.61741
-9.61836
-9.62079
-9.62481
-9.63034
-9.63719
-9.64511
-9.65387
-9.6633
-9.67324
-9.68352
-9.694
-9.70459
-9.71518
-9.7257
-9.73608
-9.74628
-9.75626
-9.76596
-9.77538
-9.78447
-9.79323
-9.80163
-9.80966
-9.81732
-9.8246
-9.8315
-9.838
-9.84412
-9.84986
-9.85521
-9.86018
-9.86477
-9.61458
-9.61534
-9.61737
-9.62106
-9.6265
-9.6334
-9.64136
-9.65014
-9.65956
-9.66944
-9.67963
-9.68999
-9.70042
-9.71083
-9.72116
-9.73133
-9.74131
-9.75105
-9.76052
-9.76969
-9.77853
-9.78704
-9.79518
-9.80296
-9.81037
-9.81739
-9.82403
-9.83028
-9.83615
-9.84164
-9.84675
-9.85149
-9.85588
-9.611
-9.61142
-9.61277
-9.61599
-9.62139
-9.62846
-9.63668
-9.64581
-9.65562
-9.66586
-9.67633
-9.6869
-9.69746
-9.70794
-9.71826
-9.72838
-9.73826
-9.74786
-9.75715
-9.76612
-9.77474
-9.783
-9.79089
-9.79841
-9.80554
-9.81229
-9.81865
-9.82462
-9.83021
-9.83541
-9.84023
-9.84467
-9.84872
-9.60691
-9.60655
-9.60669
-9.60953
-9.61513
-9.62218
-9.6301
-9.63889
-9.64846
-9.65852
-9.66884
-9.67929
-9.68978
-9.7002
-9.71047
-9.72056
-9.73039
-9.73995
-9.7492
-9.75812
-9.76669
-9.77489
-9.78271
-9.79015
-9.7972
-9.80386
-9.81013
-9.81601
-9.8215
-9.82661
-9.83135
-9.83573
-9.83977
-9.60298
-9.60078
-9.59799
-9.60039
-9.60796
-9.6176
-9.62785
-9.63856
-9.64958
-9.66066
-9.67163
-9.68245
-9.69307
-9.70345
-9.71356
-9.72337
-9.73288
-9.74205
-9.75088
-9.75936
-9.76747
-9.77522
-9.78258
-9.78956
-9.79616
-9.80238
-9.80821
-9.81365
-9.81871
-9.8234
-9.8277
-9.83161
-9.83512
-9.60043
-9.59533
-9.58784
-9.58562
-9.58831
-9.59397
-9.60217
-9.61236
-9.6236
-9.63525
-9.64708
-9.65893
-9.67066
-9.68215
-9.69333
-9.70418
-9.71465
-9.72472
-9.73439
-9.74363
-9.75244
-9.76082
-9.76877
-9.77629
-9.78337
-9.79003
-9.79626
-9.80207
-9.80747
-9.81248
-9.8171
-9.82136
-9.82529
-9.60086
-9.58097
-9.58381
-9.60363
-9.62042
-9.63138
-9.64126
-9.65171
-9.66204
-9.67187
-9.68139
-9.69075
-9.69992
-9.7089
-9.71765
-9.72618
-9.73447
-9.74249
-9.75024
-9.7577
-9.76485
-9.77169
-9.7782
-9.78437
-9.7902
-9.79568
-9.80082
-9.8056
-9.81004
-9.81412
-9.81784
-9.82119
-9.82415
-9.63833
-9.51508
-9.452
-9.45567
-9.47806
-9.49981
-9.52114
-9.5429
-9.56405
-9.58393
-9.60254
-9.62
-9.63636
-9.65171
-9.66611
-9.67965
-9.69238
-9.70436
-9.71563
-9.72623
-9.7362
-9.74555
-9.75433
-9.76253
-9.7702
-9.77734
-9.78398
-9.79012
-9.79579
-9.801
-9.80578
-9.81014
-9.8141
-9.79823
-9.81139
-9.77008
-9.72792
-9.70395
-9.69343
-9.68893
-9.68698
-9.68712
-9.68932
-9.69315
-9.69805
-9.70367
-9.70979
-9.71627
-9.72295
-9.72973
-9.73652
-9.74324
-9.74985
-9.75628
-9.76252
-9.76852
-9.77426
-9.77973
-9.7849
-9.78977
-9.79433
-9.79857
-9.80249
-9.80609
-9.80937
-9.81231
-8.63397
-8.93431
-9.19934
-9.32527
-9.39025
-9.44635
-9.49588
-9.53424
-9.56393
-9.58883
-9.61067
-9.62995
-9.6471
-9.6626
-9.67679
-9.68987
-9.70201
-9.71329
-9.72383
-9.73367
-9.74288
-9.75149
-9.75954
-9.76704
-9.77403
-9.78052
-9.78653
-9.79208
-9.79717
-9.80183
-9.80607
-9.80989
-9.81331
-10.2739
-10.1758
-10.2256
-10.2801
-10.3047
-10.32
-10.3311
-10.3358
-10.335
-10.3311
-10.3262
-10.3222
-10.321
-10.3238
-10.3319
-10.3459
-10.3661
-10.3923
-10.424
-10.4602
-10.4999
-10.5418
-10.5848
-10.6275
-10.6688
-10.7075
-10.7427
-10.7733
-10.7985
-10.8173
-10.8289
-10.8324
-10.8272
-10.8124
-10.7874
-10.7513
-10.7036
-10.6436
-10.5708
-10.4847
-10.385
-10.2714
-10.1436
-10.0016
-9.84535
-9.67489
-9.49044
-9.2923
-9.08091
-8.85679
-8.62065
-8.37326
-8.11556
-7.84858
-7.57344
-7.29136
-7.00363
-6.7116
-6.41663
-6.12013
-5.82348
-5.52804
-5.23513
-4.94601
-4.66185
-4.38374
-4.11267
-3.8495
-3.59498
-3.34974
-3.11427
-2.88895
-2.67405
-2.46972
-2.27602
-2.09293
-1.92033
-1.75804
-1.60579
-1.46327
-1.33013
-1.20596
-1.09035
-0.982846
-0.883015
-0.790404
-0.70457
-0.625078
-0.551503
-0.483438
-0.420473
-0.36224
-0.308287
-0.258372
-0.211659
-0.168719
-0.126313
-0.090652
-0.043512
-0.0296333
-10.2706
-10.2651
-10.2933
-10.3129
-10.3087
-10.2989
-10.2912
-10.2843
-10.2777
-10.2726
-10.2695
-10.2694
-10.2729
-10.2809
-10.2938
-10.3121
-10.3356
-10.3641
-10.397
-10.4336
-10.473
-10.5141
-10.5559
-10.5973
-10.6372
-10.6746
-10.7085
-10.7378
-10.7617
-10.7793
-10.7897
-10.7921
-10.7858
-10.7701
-10.7441
-10.7072
-10.6589
-10.5984
-10.5253
-10.4391
-10.3395
-10.2262
-10.0989
-9.95759
-9.80225
-9.63295
-9.4499
-9.25338
-9.04383
-8.82178
-8.58791
-8.34298
-8.08791
-7.8237
-7.55146
-7.27238
-6.98771
-6.69876
-6.40688
-6.11343
-5.81975
-5.52719
-5.23702
-4.95049
-4.66874
-4.39284
-4.12376
-3.86236
-3.60937
-3.36543
-3.13103
-2.90657
-2.6923
-2.4884
-2.29495
-2.11192
-1.93922
-1.77668
-1.62405
-1.48105
-1.34732
-1.22249
-1.10614
-0.997861
-0.897206
-0.803742
-0.717033
-0.636652
-0.562178
-0.493206
-0.42933
-0.370181
-0.315303
-0.264459
-0.216782
-0.172927
-0.129382
-0.0931857
-0.0435697
-0.033093
-10.2289
-10.235
-10.2402
-10.253
-10.2604
-10.2645
-10.2686
-10.271
-10.2707
-10.2684
-10.2656
-10.2636
-10.2639
-10.2678
-10.2764
-10.2904
-10.3101
-10.3353
-10.3657
-10.4006
-10.4387
-10.4791
-10.5204
-10.5614
-10.6008
-10.6376
-10.6705
-10.6988
-10.7216
-10.7379
-10.7471
-10.7484
-10.741
-10.7242
-10.6973
-10.6598
-10.6108
-10.55
-10.4766
-10.3905
-10.291
-10.1781
-10.0515
-9.91103
-9.7568
-9.58886
-9.4074
-9.21272
-9.00524
-8.78548
-8.55411
-8.31188
-8.05967
-7.79847
-7.52935
-7.25348
-6.97207
-6.6864
-6.39777
-6.10752
-5.81696
-5.5274
-5.24009
-4.95623
-4.67697
-4.40334
-4.13631
-3.87671
-3.6253
-3.38268
-3.14937
-2.92576
-2.71212
-2.50864
-2.3154
-2.1324
-1.95957
-1.79674
-1.64369
-1.50014
-1.36577
-1.24021
-1.12308
-1.01394
-0.912397
-0.818011
-0.730357
-0.649017
-0.573574
-0.503628
-0.438773
-0.378642
-0.322774
-0.270937
-0.22224
-0.177397
-0.132698
-0.0958112
-0.0439221
-0.0362167
-10.2019
-10.2187
-10.2299
-10.2471
-10.2595
-10.2646
-10.2661
-10.2656
-10.2632
-10.26
-10.2575
-10.2568
-10.2588
-10.2644
-10.2742
-10.2884
-10.3072
-10.3304
-10.3577
-10.3886
-10.4221
-10.4576
-10.4941
-10.5305
-10.5659
-10.5991
-10.6293
-10.6553
-10.6762
-10.6912
-10.6992
-10.6994
-10.6912
-10.6737
-10.6462
-10.608
-10.5587
-10.4976
-10.4243
-10.3382
-10.2392
-10.1268
-10.001
-9.86167
-9.70876
-9.54238
-9.36273
-9.17009
-8.96489
-8.74764
-8.51897
-8.27964
-8.03049
-7.77248
-7.50666
-7.23416
-6.95616
-6.67391
-6.38868
-6.10176
-5.81443
-5.52797
-5.24362
-4.96254
-4.68585
-4.41458
-4.14967
-3.89197
-3.64219
-3.40096
-3.16879
-2.94608
-2.73311
-2.53008
-2.33708
-2.15412
-1.98115
-1.81803
-1.66454
-1.52043
-1.38538
-1.25906
-1.14107
-1.03104
-0.92855
-0.833183
-0.744525
-0.662162
-0.585688
-0.514704
-0.448806
-0.387628
-0.330709
-0.277814
-0.228042
-0.182141
-0.136264
-0.0985461
-0.0445803
-0.0389653
-10.1824
-10.2017
-10.2141
-10.2274
-10.2372
-10.2417
-10.2439
-10.2452
-10.2456
-10.2454
-10.2456
-10.247
-10.2505
-10.2567
-10.2664
-10.2801
-10.2978
-10.3196
-10.3452
-10.3741
-10.4055
-10.4387
-10.4725
-10.5062
-10.5385
-10.5686
-10.5954
-10.6181
-10.6358
-10.6477
-10.6529
-10.6507
-10.6404
-10.6211
-10.5922
-10.5531
-10.5031
-10.4416
-10.3681
-10.2822
-10.1836
-10.072
-9.94714
-9.80899
-9.65755
-9.49289
-9.3152
-9.12478
-8.92201
-8.70742
-8.48161
-8.24532
-7.99937
-7.74469
-7.48231
-7.21331
-6.93886
-6.66015
-6.37844
-6.09497
-5.81101
-5.52779
-5.24652
-4.96835
-4.69436
-4.42559
-4.16294
-3.90724
-3.65923
-3.41951
-3.1886
-2.96689
-2.75468
-2.55218
-2.35949
-2.17665
-2.0036
-1.84022
-1.68631
-1.54165
-1.40594
-1.27884
-1.16
-1.04905
-0.945574
-0.849188
-0.75948
-0.676048
-0.598489
-0.526411
-0.459414
-0.397131
-0.339101
-0.285089
-0.234187
-0.187161
-0.140086
-0.101394
-0.0455798
-0.0412676
-10.1647
-10.1841
-10.1977
-10.2102
-10.2205
-10.2271
-10.2313
-10.2341
-10.2357
-10.2365
-10.2375
-10.2395
-10.2434
-10.2498
-10.2593
-10.2724
-10.2891
-10.3093
-10.3329
-10.3594
-10.388
-10.4181
-10.4487
-10.4791
-10.5081
-10.5351
-10.5589
-10.5788
-10.5939
-10.6033
-10.6063
-10.6019
-10.5896
-10.5686
-10.5382
-10.4977
-10.4466
-10.3843
-10.3104
-10.2243
-10.1259
-10.0147
-9.89061
-9.75354
-9.60348
-9.44049
-9.26475
-9.07654
-8.87625
-8.66436
-8.44147
-8.2083
-7.96563
-7.71439
-7.45554
-7.19016
-6.91937
-6.64434
-6.36627
-6.0864
-5.80594
-5.5261
-5.24806
-4.97295
-4.70183
-4.43569
-4.17544
-3.9219
-3.67579
-3.43771
-3.20818
-2.98759
-2.77627
-2.57441
-2.38214
-2.1995
-2.02645
-1.86289
-1.70864
-1.56348
-1.42714
-1.2993
-1.17963
-1.06776
-0.963309
-0.865892
-0.775114
-0.690583
-0.611905
-0.538694
-0.470553
-0.407117
-0.347927
-0.292743
-0.240663
-0.19245
-0.144157
-0.104355
-0.0469464
-0.0430624
-10.1489
-10.1677
-10.1819
-10.1942
-10.2045
-10.2118
-10.2167
-10.2202
-10.2227
-10.2247
-10.2268
-10.2299
-10.2345
-10.2414
-10.2509
-10.2635
-10.2792
-10.298
-10.3197
-10.3439
-10.3699
-10.3972
-10.4248
-10.4521
-10.478
-10.5018
-10.5225
-10.5394
-10.5515
-10.5581
-10.5585
-10.5518
-10.5373
-10.5143
-10.4822
-10.4404
-10.3882
-10.3251
-10.2507
-10.1644
-10.0661
-9.9553
-9.83196
-9.69593
-9.5472
-9.38584
-9.21202
-9.02602
-8.82819
-8.61902
-8.39909
-8.16907
-7.92975
-7.682
-7.42677
-7.1651
-6.89807
-6.62682
-6.35252
-6.07635
-5.79952
-5.52318
-5.24849
-4.97655
-4.7084
-4.44501
-4.18726
-3.93598
-3.69186
-3.45551
-3.22744
-3.00807
-2.7977
-2.59656
-2.40477
-2.2224
-2.04942
-1.88574
-1.73121
-1.58561
-1.4487
-1.32017
-1.1997
-1.08694
-0.981539
-0.883106
-0.791266
-0.705633
-0.625825
-0.55146
-0.482147
-0.417525
-0.357137
-0.30074
-0.247441
-0.197986
-0.148461
-0.107423
-0.048686
-0.044315
-10.134
-10.1519
-10.1663
-10.1785
-10.1888
-10.1966
-10.2024
-10.2068
-10.2102
-10.2132
-10.2163
-10.2202
-10.2254
-10.2324
-10.2418
-10.2538
-10.2685
-10.2859
-10.3057
-10.3277
-10.3513
-10.3758
-10.4006
-10.4248
-10.4477
-10.4684
-10.4861
-10.5
-10.5092
-10.5131
-10.5109
-10.5018
-10.4851
-10.4602
-10.4263
-10.383
-10.3296
-10.2656
-10.1905
-10.104
-10.0056
-9.89516
-9.77247
-9.63741
-9.48997
-9.33021
-9.1583
-8.9745
-8.77915
-8.57272
-8.35577
-8.12895
-7.89302
-7.64882
-7.39727
-7.13937
-6.87617
-6.60877
-6.3383
-6.06591
-5.79276
-5.51999
-5.24871
-4.97999
-4.71485
-4.45424
-4.19904
-3.95004
-3.70794
-3.47335
-3.24677
-3.02862
-2.81923
-2.61882
-2.42753
-2.24545
-2.07255
-1.90877
-1.75396
-1.60794
-1.47047
-1.34127
-1.22003
-1.10642
-1.00008
-0.900647
-0.807758
-0.721035
-0.640101
-0.564581
-0.494089
-0.428265
-0.366658
-0.30902
-0.254473
-0.203735
-0.152966
-0.110587
-0.0507794
-0.0450263
-10.1198
-10.1368
-10.1511
-10.1632
-10.1735
-10.1818
-10.1882
-10.1933
-10.1976
-10.2014
-10.2052
-10.2097
-10.2153
-10.2225
-10.2317
-10.243
-10.2567
-10.2727
-10.2909
-10.3107
-10.3319
-10.3538
-10.3758
-10.3971
-10.417
-10.4348
-10.4495
-10.4605
-10.467
-10.4683
-10.4635
-10.4521
-10.4332
-10.4064
-10.3709
-10.3261
-10.2715
-10.2065
-10.1308
-10.044
-9.94561
-9.8355
-9.71344
-9.57934
-9.43318
-9.27501
-9.105
-8.92338
-8.73051
-8.52682
-8.31285
-8.08923
-7.8567
-7.61605
-7.36819
-7.11406
-6.85469
-6.59113
-6.32449
-6.05588
-5.78641
-5.51719
-5.24931
-4.9838
-4.72167
-4.46385
-4.21118
-3.96446
-3.72437
-3.49153
-3.26644
-3.04951
-2.84109
-2.6414
-2.45061
-2.2688
-2.09598
-1.93209
-1.777
-1.63056
-1.49252
-1.36264
-1.24062
-1.12614
-1.01886
-0.918429
-0.824491
-0.736677
-0.654616
-0.57794
-0.506265
-0.439233
-0.376397
-0.317504
-0.261691
-0.209644
-0.157627
-0.113825
-0.0531771
-0.0452384
-10.106
-10.1223
-10.1363
-10.1482
-10.1585
-10.1671
-10.174
-10.1797
-10.1847
-10.1892
-10.1937
-10.1986
-10.2045
-10.2117
-10.2206
-10.2314
-10.2441
-10.2587
-10.2751
-10.293
-10.3118
-10.3312
-10.3505
-10.369
-10.3861
-10.4009
-10.4128
-10.4211
-10.4248
-10.4235
-10.4163
-10.4026
-10.3817
-10.353
-10.3158
-10.2696
-10.2139
-10.1481
-10.0718
-9.98466
-9.88633
-9.77655
-9.65515
-9.52203
-9.37715
-9.22058
-9.05247
-8.87304
-8.68264
-8.48168
-8.27067
-8.05024
-7.82108
-7.58396
-7.33975
-7.08936
-6.83379
-6.57405
-6.3112
-6.04633
-5.78051
-5.51482
-5.25031
-4.98799
-4.72885
-4.47378
-4.22364
-3.97919
-3.74111
-3.51001
-3.2864
-3.0707
-2.86325
-2.66429
-2.474
-2.29247
-2.11973
-1.95572
-1.80036
-1.65348
-1.51488
-1.38431
-1.26149
-1.14613
-1.0379
-0.936462
-0.841459
-0.752538
-0.669336
-0.591489
-0.518618
-0.450365
-0.386287
-0.326124
-0.269033
-0.215656
-0.16239
-0.117104
-0.0557984
-0.0450354
-10.0927
-10.1082
-10.1218
-10.1336
-10.1438
-10.1526
-10.1599
-10.1661
-10.1716
-10.1766
-10.1816
-10.1869
-10.193
-10.2002
-10.2087
-10.2188
-10.2305
-10.2438
-10.2586
-10.2744
-10.2911
-10.3081
-10.3248
-10.3406
-10.3549
-10.3669
-10.3761
-10.3815
-10.3827
-10.3789
-10.3693
-10.3534
-10.3304
-10.2999
-10.2611
-10.2136
-10.1567
-10.0901
-10.0133
-9.92592
-9.82765
-9.71824
-9.59752
-9.46538
-9.3218
-9.16683
-9.00061
-8.82337
-8.63542
-8.43717
-8.22912
-8.01184
-7.78602
-7.55239
-7.3118
-7.06512
-6.8133
-6.55734
-6.29825
-6.03708
-5.77488
-5.51268
-5.25152
-4.99237
-4.73619
-4.48387
-4.23624
-3.99405
-3.75798
-3.52863
-3.3065
-3.09203
-2.88556
-2.68734
-2.49756
-2.31632
-2.14367
-1.97957
-1.82394
-1.67664
-1.53747
-1.40622
-1.28262
-1.16638
-1.0572
-0.954734
-0.858657
-0.768618
-0.684259
-0.605224
-0.531138
-0.461646
-0.396306
-0.334854
-0.276469
-0.221742
-0.167223
-0.120403
-0.0585514
-0.0445397
-10.0797
-10.0945
-10.1076
-10.1192
-10.1294
-10.1383
-10.1459
-10.1525
-10.1583
-10.1638
-10.1691
-10.1747
-10.1809
-10.1879
-10.196
-10.2054
-10.2161
-10.2281
-10.2412
-10.2552
-10.2698
-10.2844
-10.2986
-10.3118
-10.3234
-10.3328
-10.3392
-10.3421
-10.3407
-10.3344
-10.3225
-10.3044
-10.2795
-10.2472
-10.2068
-10.158
-10.1001
-10.0327
-9.95535
-9.86774
-9.76954
-9.66051
-9.54047
-9.40933
-9.26704
-9.11367
-8.94934
-8.77426
-8.58875
-8.39318
-8.18804
-7.97389
-7.75137
-7.52121
-7.28419
-7.04118
-6.79308
-6.54086
-6.28549
-6.02799
-5.76936
-5.51063
-5.25279
-4.99679
-4.74356
-4.49397
-4.24884
-4.00891
-3.77485
-3.54724
-3.32661
-3.11338
-2.9079
-2.71043
-2.52117
-2.34025
-2.1677
-2.00352
-1.84763
-1.69992
-1.56021
-1.42829
-1.30391
-1.1868
-1.07667
-0.973188
-0.876037
-0.784877
-0.699357
-0.619126
-0.543815
-0.473069
-0.406453
-0.343695
-0.283999
-0.2279
-0.172121
-0.123726
-0.0613635
-0.043901
-10.067
-10.0811
-10.0938
-10.1051
-10.1152
-10.1241
-10.1319
-10.1387
-10.1449
-10.1506
-10.1562
-10.1619
-10.1681
-10.1749
-10.1826
-10.1912
-10.2009
-10.2116
-10.2232
-10.2354
-10.2478
-10.2602
-10.272
-10.2827
-10.2917
-10.2985
-10.3023
-10.3026
-10.2987
-10.29
-10.2759
-10.2557
-10.2289
-10.1948
-10.153
-10.1029
-10.0439
-9.97575
-9.89793
-9.81011
-9.712
-9.60335
-9.484
-9.35384
-9.21284
-9.06105
-8.89858
-8.72566
-8.54255
-8.34964
-8.14739
-7.93633
-7.71707
-7.49032
-7.25684
-7.01746
-6.77304
-6.52451
-6.27282
-6.01895
-5.76388
-5.50859
-5.25403
-5.00116
-4.75087
-4.504
-4.26137
-4.02369
-3.79163
-3.56578
-3.34665
-3.13467
-2.93018
-2.73348
-2.54476
-2.36416
-2.19173
-2.02748
-1.87136
-1.72325
-1.58301
-1.45043
-1.32528
-1.20731
-1.09624
-0.991749
-0.893531
-0.801253
-0.714573
-0.633146
-0.556607
-0.484602
-0.416703
-0.35263
-0.291613
-0.23413
-0.177084
-0.127086
-0.0641865
-0.0432642
-10.0546
-10.068
-10.0802
-10.0913
-10.1012
-10.11
-10.1179
-10.1249
-10.1313
-10.1372
-10.1429
-10.1487
-10.1547
-10.1613
-10.1684
-10.1763
-10.185
-10.1945
-10.2045
-10.2149
-10.2254
-10.2356
-10.2451
-10.2534
-10.2599
-10.2641
-10.2654
-10.2632
-10.257
-10.2459
-10.2296
-10.2074
-10.1787
-10.1429
-10.0996
-10.0482
-9.9883
-9.91938
-9.84108
-9.75307
-9.65505
-9.54678
-9.42811
-9.29893
-9.15921
-9.00898
-8.84836
-8.67755
-8.49683
-8.30654
-8.10713
-7.89912
-7.68309
-7.45971
-7.22973
-6.99392
-6.75313
-6.50826
-6.26021
-6.00994
-5.75838
-5.50649
-5.25521
-5.00544
-4.75806
-4.51391
-4.27376
-4.03833
-3.80828
-3.58419
-3.36656
-3.15583
-2.95237
-2.75644
-2.56827
-2.388
-2.21571
-2.05141
-1.89506
-1.74657
-1.60581
-1.47258
-1.34668
-1.22786
-1.11585
-1.01036
-0.911081
-0.817689
-0.729852
-0.64723
-0.569462
-0.496198
-0.427014
-0.361624
-0.299283
-0.24041
-0.182093
-0.130483
-0.0669799
-0.042732
-10.0424
-10.0551
-10.0669
-10.0776
-10.0873
-10.0961
-10.104
-10.111
-10.1175
-10.1235
-10.1293
-10.135
-10.1408
-10.147
-10.1536
-10.1608
-10.1685
-10.1766
-10.1852
-10.1939
-10.2025
-10.2106
-10.2179
-10.2238
-10.2279
-10.2297
-10.2286
-10.224
-10.2154
-10.2021
-10.1837
-10.1595
-10.1289
-10.0915
-10.0468
-9.99418
-9.93326
-9.86362
-9.78486
-9.69665
-9.59873
-9.49085
-9.37285
-9.24464
-9.10617
-8.95748
-8.79868
-8.62997
-8.45158
-8.26388
-8.06728
-7.86227
-7.64942
-7.42937
-7.20283
-6.97055
-6.73335
-6.49209
-6.24764
-6.00092
-5.75285
-5.50433
-5.25629
-5.0096
-4.76512
-4.52366
-4.28599
-4.0528
-3.82476
-3.60242
-3.38631
-3.17685
-2.9744
-2.77927
-2.59166
-2.41174
-2.2396
-2.07526
-1.9187
-1.76985
-1.62857
-1.49472
-1.36807
-1.24841
-1.13548
-1.02899
-0.928649
-0.834146
-0.745155
-0.661339
-0.582343
-0.507819
-0.437349
-0.370639
-0.306973
-0.24671
-0.187117
-0.1339
-0.0697039
-0.0423548
-10.0303
-10.0425
-10.0538
-10.0642
-10.0737
-10.0823
-10.0901
-10.0971
-10.1036
-10.1096
-10.1153
-10.1209
-10.1265
-10.1322
-10.1383
-10.1446
-10.1513
-10.1582
-10.1653
-10.1724
-10.1791
-10.1852
-10.1904
-10.1941
-10.1959
-10.1953
-10.1918
-10.1849
-10.174
-10.1586
-10.1381
-10.1119
-10.0796
-10.0407
-9.99451
-9.94072
-9.87886
-9.8085
-9.7293
-9.64092
-9.54309
-9.43559
-9.31826
-9.19099
-9.05376
-8.90659
-8.74959
-8.58293
-8.40685
-8.22169
-8.02785
-7.8258
-7.61608
-7.39931
-7.17616
-6.94736
-6.7137
-6.476
-6.2351
-5.9919
-5.74726
-5.50209
-5.25725
-5.01362
-4.77201
-4.53323
-4.29802
-4.06708
-3.84103
-3.62046
-3.40586
-3.19767
-2.99626
-2.80193
-2.6149
-2.43534
-2.26336
-2.099
-1.94225
-1.79304
-1.65127
-1.51679
-1.38942
-1.26892
-1.15507
-1.0476
-0.946205
-0.850596
-0.760453
-0.675444
-0.595221
-0.519437
-0.44768
-0.379651
-0.314659
-0.253006
-0.192129
-0.137318
-0.0723294
-0.0421449
-10.0185
-10.0301
-10.0409
-10.0509
-10.0601
-10.0685
-10.0762
-10.0831
-10.0895
-10.0954
-10.101
-10.1064
-10.1117
-10.117
-10.1224
-10.1279
-10.1336
-10.1393
-10.145
-10.1504
-10.1554
-10.1596
-10.1626
-10.1642
-10.1638
-10.161
-10.1552
-10.1461
-10.133
-10.1155
-10.0929
-10.0649
-10.0309
-9.99036
-9.94286
-9.88792
-9.82513
-9.75409
-9.67446
-9.58591
-9.48818
-9.38105
-9.26438
-9.13805
-9.00204
-8.85636
-8.70112
-8.53647
-8.36267
-8.18001
-7.98888
-7.78973
-7.58309
-7.36954
-7.14973
-6.92436
-6.69419
-6.45999
-6.2226
-5.98286
-5.74162
-5.49975
-5.25809
-5.01748
-4.77873
-4.5426
-4.30985
-4.08113
-3.85708
-3.63826
-3.42518
-3.21827
-3.0179
-2.82438
-2.63794
-2.45877
-2.28697
-2.1226
-1.96566
-1.81612
-1.67387
-1.53878
-1.41069
-1.28938
-1.17462
-1.06616
-0.963722
-0.867013
-0.775722
-0.689524
-0.608075
-0.531032
-0.457989
-0.388641
-0.322321
-0.259281
-0.197112
-0.140726
-0.0748444
-0.0420954
-10.0067
-10.0178
-10.0282
-10.0378
-10.0467
-10.0549
-10.0623
-10.0691
-10.0754
-10.0811
-10.0865
-10.0916
-10.0965
-10.1013
-10.106
-10.1107
-10.1154
-10.1199
-10.1242
-10.1281
-10.1313
-10.1337
-10.1348
-10.1342
-10.1317
-10.1267
-10.1188
-10.1075
-10.0923
-10.0727
-10.0483
-10.0184
-9.98274
-9.94071
-9.89189
-9.83584
-9.77215
-9.70045
-9.6204
-9.53169
-9.43406
-9.32731
-9.21128
-9.08587
-8.95105
-8.80684
-8.65332
-8.49066
-8.31908
-8.13887
-7.9504
-7.75411
-7.55049
-7.3401
-7.12357
-6.90157
-6.67482
-6.44408
-6.21014
-5.97382
-5.73593
-5.49731
-5.25879
-5.02117
-4.78524
-4.55176
-4.32143
-4.09493
-3.87287
-3.65581
-3.44425
-3.23862
-3.0393
-2.8466
-2.66076
-2.48198
-2.31037
-2.14601
-1.98891
-1.83905
-1.69633
-1.56065
-1.43185
-1.30973
-1.19408
-1.08465
-0.981174
-0.883372
-0.790938
-0.703556
-0.620885
-0.542586
-0.468258
-0.397593
-0.329947
-0.265524
-0.202054
-0.144115
-0.0772507
-0.0421896
-9.99518
-10.0057
-10.0156
-10.0249
-10.0334
-10.0413
-10.0485
-10.0551
-10.0611
-10.0666
-10.0717
-10.0765
-10.0809
-10.0852
-10.0892
-10.0931
-10.0967
-10.1001
-10.1031
-10.1055
-10.1071
-10.1076
-10.1068
-10.1043
-10.0997
-10.0926
-10.0826
-10.0692
-10.052
-10.0304
-10.0041
-9.97254
-9.93524
-9.89176
-9.84166
-9.78454
-9.71999
-9.64765
-9.56719
-9.47832
-9.3808
-9.27442
-9.15902
-9.03451
-8.90086
-8.75808
-8.60625
-8.44553
-8.27613
-8.09832
-7.91246
-7.71897
-7.51831
-7.31103
-7.09771
-6.87902
-6.65564
-6.42829
-6.19774
-5.96478
-5.73019
-5.49479
-5.25936
-5.0247
-4.79156
-4.56068
-4.33277
-4.10847
-3.88838
-3.67307
-3.46302
-3.25868
-3.06042
-2.86855
-2.68332
-2.50494
-2.33354
-2.1692
-2.01196
-1.86178
-1.71862
-1.58236
-1.45287
-1.32995
-1.21342
-1.10303
-0.998531
-0.899645
-0.806078
-0.717517
-0.633631
-0.55408
-0.478473
-0.406495
-0.337525
-0.271724
-0.206946
-0.14748
-0.0795576
-0.0424052
-9.98375
-9.9938
-10.0032
-10.0121
-10.0202
-10.0278
-10.0347
-10.041
-10.0468
-10.052
-10.0568
-10.0611
-10.0651
-10.0688
-10.0721
-10.0751
-10.0778
-10.08
-10.0817