/*--------------------------------*- C++ -*----------------------------------*\
| =========                 |                                                 |
| \\      /  F ield         | OpenFOAM: The Open Source CFD Toolbox           |
|  \\    /   O peration     | Version:  4.1                                   |
|   \\  /    A nd           | Web:      www.OpenFOAM.org                      |
|    \\/     M anipulation  |                                                 |
\*---------------------------------------------------------------------------*/
FoamFile
{
    version     2.0;
    format      ascii;
    class       volScalarField;
    location    "1100";
    object      p;
}
// * * * * * * * * * * * * * * * * * * * * * * * * * * * * * * * * * * * * * //

dimensions      [0 2 -2 0 0 0 0];

internalField   nonuniform List<scalar> 
6820
(
-7.89274
-8.69248
-9.15298
-9.29781
-9.37637
-9.45068
-9.51052
-9.55612
-9.59483
-9.63031
-9.66312
-9.69345
-9.72179
-9.74854
-9.77398
-9.79827
-9.82159
-9.84412
-9.86601
-9.88741
-9.90847
-9.92934
-9.95016
-9.9711
-9.99231
-10.014
-10.0363
-10.0596
-10.0839
-10.1102
-10.1369
-10.1707
-10.1859
-9.56644
-9.73223
-9.71782
-9.63825
-9.596
-9.59276
-9.60281
-9.61638
-9.63368
-9.65448
-9.67717
-9.70056
-9.72413
-9.74763
-9.77086
-9.7937
-9.8161
-9.83806
-9.85963
-9.88088
-9.90189
-9.92278
-9.94365
-9.96464
-9.98588
-10.0076
-10.0298
-10.053
-10.0771
-10.1031
-10.1307
-10.164
-10.2054
-9.54487
-9.35681
-9.3382
-9.37268
-9.41448
-9.46275
-9.50927
-9.54977
-9.58628
-9.62065
-9.65306
-9.68346
-9.71208
-9.73919
-9.76499
-9.78964
-9.81329
-9.83611
-9.85824
-9.87983
-9.90103
-9.92198
-9.94281
-9.96368
-9.98474
-10.0061
-10.0281
-10.0508
-10.0744
-10.0995
-10.1263
-10.1571
-10.1888
-9.46274
-9.36036
-9.40979
-9.47044
-9.50386
-9.53437
-9.56592
-9.59474
-9.62154
-9.6478
-9.67361
-9.69871
-9.72306
-9.74676
-9.76983
-9.79231
-9.81425
-9.83571
-9.85678
-9.87753
-9.89806
-9.91847
-9.93886
-9.95934
-9.98003
-10.0011
-10.0226
-10.0447
-10.0677
-10.0917
-10.1169
-10.1439
-10.1706
-9.45521
-9.41532
-9.44749
-9.48524
-9.50744
-9.53232
-9.56149
-9.58982
-9.61675
-9.64327
-9.66943
-9.69491
-9.71964
-9.74367
-9.76702
-9.78973
-9.81184
-9.83343
-9.85458
-9.87537
-9.89589
-9.91624
-9.93652
-9.95683
-9.97727
-9.99797
-10.019
-10.0406
-10.0627
-10.0855
-10.109
-10.1331
-10.1565
-9.4644
-9.4443
-9.46022
-9.48999
-9.51392
-9.53931
-9.56763
-9.5953
-9.62166
-9.64748
-9.67289
-9.69764
-9.72169
-9.74506
-9.76781
-9.78997
-9.81158
-9.83271
-9.85344
-9.87383
-9.89398
-9.91396
-9.93387
-9.95378
-9.97379
-9.99398
-10.0144
-10.0352
-10.0564
-10.0779
-10.0997
-10.1214
-10.1423
-9.47383
-9.46266
-9.47378
-9.50007
-9.52405
-9.54798
-9.57411
-9.60028
-9.62558
-9.65044
-9.67496
-9.69896
-9.72235
-9.74516
-9.76741
-9.78913
-9.81036
-9.83115
-9.85156
-9.87165
-9.89151
-9.91119
-9.93077
-9.95032
-9.96992
-9.9896
-10.0094
-10.0295
-10.0496
-10.0699
-10.0901
-10.11
-10.1288
-9.48393
-9.47885
-9.4885
-9.51096
-9.53337
-9.55573
-9.58004
-9.60487
-9.62922
-9.6532
-9.67691
-9.7002
-9.72298
-9.74524
-9.767
-9.78828
-9.8091
-9.82952
-9.84957
-9.86933
-9.88884
-9.90816
-9.92736
-9.94649
-9.9656
-9.98472
-10.0039
-10.0231
-10.0423
-10.0614
-10.0802
-10.0984
-10.1156
-9.49481
-9.49347
-9.50226
-9.52137
-9.54212
-9.56324
-9.58602
-9.60955
-9.63289
-9.65598
-9.67886
-9.70142
-9.72355
-9.74524
-9.76648
-9.78728
-9.80767
-9.82768
-9.84735
-9.86673
-9.88586
-9.9048
-9.92358
-9.94224
-9.96083
-9.97936
-9.99783
-10.0162
-10.0345
-10.0525
-10.07
-10.0869
-10.1028
-9.50598
-9.50668
-9.51495
-9.53154
-9.5507
-9.57064
-9.59201
-9.61425
-9.63656
-9.65875
-9.68081
-9.70262
-9.72409
-9.74518
-9.76588
-9.78619
-9.80613
-9.82571
-9.84496
-9.86393
-9.88265
-9.90116
-9.91949
-9.93766
-9.9557
-9.97361
-9.99137
-10.009
-10.0263
-10.0433
-10.0597
-10.0754
-10.0902
-9.51707
-9.51884
-9.52675
-9.54145
-9.55907
-9.57783
-9.5979
-9.61892
-9.64021
-9.66151
-9.68274
-9.70381
-9.72461
-9.74509
-9.76523
-9.78503
-9.80448
-9.82361
-9.84242
-9.86096
-9.87924
-9.89729
-9.91513
-9.93278
-9.95025
-9.96752
-9.98458
-10.0014
-10.0178
-10.0339
-10.0493
-10.064
-10.0778
-9.52788
-9.53017
-9.53776
-9.55097
-9.56717
-9.58477
-9.60366
-9.62353
-9.64382
-9.66423
-9.68465
-9.70497
-9.7251
-9.74496
-9.76454
-9.7838
-9.80276
-9.8214
-9.83975
-9.85783
-9.87564
-9.89321
-9.91054
-9.92765
-9.94453
-9.96116
-9.97752
-9.99355
-10.0092
-10.0243
-10.0389
-10.0527
-10.0657
-9.53828
-9.54078
-9.54803
-9.56005
-9.57497
-9.59147
-9.60926
-9.62804
-9.64735
-9.66689
-9.68651
-9.70609
-9.72554
-9.74478
-9.76378
-9.7825
-9.80094
-9.81909
-9.83696
-9.85455
-9.87188
-9.88894
-9.90575
-9.9223
-9.93858
-9.95457
-9.97024
-9.98553
-10.0004
-10.0147
-10.0285
-10.0415
-10.0538
-9.5482
-9.55072
-9.55762
-9.56866
-9.58243
-9.59789
-9.61464
-9.63241
-9.65078
-9.66946
-9.68829
-9.70715
-9.72592
-9.74454
-9.76295
-9.78112
-9.79903
-9.81667
-9.83404
-9.85113
-9.86795
-9.8845
-9.90077
-9.91675
-9.93243
-9.94779
-9.96279
-9.97738
-9.9915
-10.0051
-10.0181
-10.0304
-10.042
-9.55757
-9.56004
-9.56656
-9.57677
-9.58953
-9.604
-9.61979
-9.6366
-9.65407
-9.67193
-9.68998
-9.70812
-9.72622
-9.74421
-9.76203
-9.77964
-9.79701
-9.81413
-9.83099
-9.84757
-9.86387
-9.87989
-9.89561
-9.91103
-9.92611
-9.94085
-9.95519
-9.96911
-9.98254
-9.99545
-10.0078
-10.0194
-10.0304
-9.56637
-9.56874
-9.57488
-9.58437
-9.59622
-9.60978
-9.62467
-9.64058
-9.6572
-9.67425
-9.69155
-9.70898
-9.72642
-9.74379
-9.76101
-9.77806
-9.79489
-9.81148
-9.82781
-9.84387
-9.85965
-9.87513
-9.8903
-9.90515
-9.91965
-9.93377
-9.94748
-9.96076
-9.97354
-9.98579
-9.99747
-10.0085
-10.019
-9.57457
-9.57682
-9.5826
-9.59143
-9.60249
-9.61521
-9.62925
-9.64432
-9.66012
-9.6764
-9.69297
-9.70971
-9.7265
-9.74325
-9.75989
-9.77637
-9.79265
-9.80871
-9.82451
-9.84004
-9.85529
-9.87023
-9.88485
-9.89914
-9.91305
-9.92658
-9.93969
-9.95234
-9.96451
-9.97616
-9.98725
-9.99775
-10.0076
-9.58216
-9.58429
-9.58971
-9.59796
-9.6083
-9.62025
-9.6335
-9.64778
-9.66281
-9.67835
-9.69422
-9.71029
-9.72644
-9.74258
-9.75863
-9.77455
-9.79029
-9.80581
-9.82108
-9.83608
-9.8508
-9.8652
-9.87928
-9.893
-9.90635
-9.9193
-9.93182
-9.94389
-9.95547
-9.96655
-9.97708
-9.98706
-9.99645
-9.58912
-9.59112
-9.59621
-9.60394
-9.61363
-9.62487
-9.6374
-9.65094
-9.66524
-9.68007
-9.69527
-9.71069
-9.72622
-9.74176
-9.75724
-9.7726
-9.78779
-9.80278
-9.81752
-9.832
-9.84618
-9.86005
-9.87359
-9.88676
-9.89956
-9.91195
-9.92391
-9.93541
-9.94644
-9.95697
-9.96698
-9.97646
-9.98539
-9.59543
-9.59732
-9.6021
-9.60936
-9.61846
-9.62905
-9.6409
-9.65376
-9.66738
-9.68155
-9.6961
-9.71089
-9.72582
-9.74078
-9.7557
-9.77051
-9.78516
-9.79962
-9.81384
-9.82779
-9.84145
-9.85479
-9.8678
-9.88044
-9.89269
-9.90454
-9.91596
-9.92693
-9.93743
-9.94744
-9.95696
-9.96596
-9.97445
-9.60109
-9.60287
-9.60736
-9.61419
-9.62276
-9.63277
-9.644
-9.65622
-9.6692
-9.68273
-9.69667
-9.71087
-9.72522
-9.73961
-9.75398
-9.76826
-9.78239
-9.79632
-9.81002
-9.82346
-9.83661
-9.84943
-9.86192
-9.87404
-9.88577
-9.89709
-9.90799
-9.91845
-9.92845
-9.93797
-9.94701
-9.95557
-9.96363
-9.60608
-9.60776
-9.61199
-9.61842
-9.62651
-9.63599
-9.64665
-9.65828
-9.67066
-9.68361
-9.69697
-9.71061
-9.7244
-9.73825
-9.75209
-9.76585
-9.77946
-9.79289
-9.80609
-9.81902
-9.83166
-9.84399
-9.85596
-9.86758
-9.8788
-9.88963
-9.90003
-9.90999
-9.91951
-9.92857
-9.93716
-9.94528
-9.95293
-9.61038
-9.61196
-9.61595
-9.62203
-9.62969
-9.63868
-9.64882
-9.65992
-9.67175
-9.68416
-9.69698
-9.71008
-9.72334
-9.73668
-9.75001
-9.76327
-9.77638
-9.78932
-9.80203
-9.81447
-9.82663
-9.83846
-9.84995
-9.86107
-9.87181
-9.88215
-9.89208
-9.90157
-9.91063
-9.91924
-9.9274
-9.93511
-9.94236
-9.61397
-9.61547
-9.61924
-9.625
-9.63227
-9.64082
-9.65049
-9.6611
-9.67244
-9.68434
-9.69666
-9.70926
-9.72203
-9.73489
-9.74773
-9.76051
-9.77315
-9.78561
-9.79785
-9.80982
-9.8215
-9.83287
-9.84389
-9.85454
-9.86482
-9.87469
-9.88416
-9.8932
-9.90182
-9.91
-9.91775
-9.92506
-9.93194
-9.61684
-9.61826
-9.62183
-9.6273
-9.63422
-9.64238
-9.65163
-9.6618
-9.67269
-9.68413
-9.69599
-9.70813
-9.72045
-9.73285
-9.74524
-9.75757
-9.76976
-9.78177
-9.79355
-9.80507
-9.81631
-9.82722
-9.83779
-9.848
-9.85782
-9.86726
-9.87629
-9.88491
-9.89311
-9.90088
-9.90823
-9.91516
-9.92167
-9.61895
-9.6203
-9.6237
-9.6289
-9.6355
-9.64332
-9.6522
-9.66198
-9.67247
-9.68351
-9.69496
-9.70668
-9.71859
-9.73056
-9.74254
-9.75444
-9.7662
-9.77779
-9.78915
-9.80024
-9.81104
-9.82153
-9.83167
-9.84145
-9.85085
-9.85987
-9.86848
-9.87669
-9.88449
-9.89188
-9.89885
-9.90541
-9.91157
-9.62029
-9.62158
-9.6248
-9.62976
-9.63609
-9.6436
-9.65217
-9.66161
-9.67176
-9.68244
-9.69353
-9.70489
-9.71642
-9.72801
-9.7396
-9.75112
-9.76249
-9.77368
-9.78464
-9.79533
-9.80573
-9.81581
-9.82555
-9.83493
-9.84394
-9.85255
-9.86078
-9.8686
-9.87602
-9.88304
-9.88965
-9.89586
-9.90168
-9.62083
-9.62205
-9.62511
-9.62984
-9.63592
-9.64319
-9.65149
-9.66066
-9.67052
-9.68091
-9.69169
-9.70273
-9.71393
-9.7252
-9.73644
-9.7476
-9.75862
-9.76944
-9.78003
-9.79035
-9.80037
-9.81007
-9.81943
-9.82843
-9.83706
-9.8453
-9.85315
-9.86061
-9.86768
-9.87434
-9.88061
-9.88648
-9.89197
-9.62054
-9.62169
-9.62458
-9.62909
-9.63496
-9.64202
-9.65012
-9.65908
-9.66872
-9.67888
-9.68942
-9.7002
-9.71113
-9.72211
-9.73306
-9.74391
-9.75461
-9.76511
-9.77537
-9.78535
-9.79504
-9.80439
-9.8134
-9.82206
-9.83033
-9.83823
-9.84574
-9.85286
-9.85959
-9.86593
-9.87187
-9.87743
-9.8826
-9.6194
-9.62047
-9.62316
-9.62745
-9.63313
-9.64005
-9.64802
-9.65684
-9.66633
-9.67633
-9.68669
-9.69727
-9.70797
-9.71871
-9.72939
-9.73997
-9.75038
-9.76058
-9.77053
-9.7802
-9.78956
-9.79859
-9.80728
-9.8156
-9.82355
-9.83113
-9.83832
-9.84512
-9.85153
-9.85755
-9.86319
-9.86845
-9.87335
-9.61741
-9.61836
-9.62079
-9.62481
-9.63035
-9.6372
-9.64511
-9.65388
-9.66331
-9.67325
-9.68353
-9.69401
-9.70459
-9.71518
-9.7257
-9.73609
-9.74629
-9.75626
-9.76597
-9.77538
-9.78448
-9.79323
-9.80163
-9.80967
-9.81733
-9.82461
-9.8315
-9.83801
-9.84413
-9.84986
-9.85522
-9.86019
-9.86478
-9.61458
-9.61535
-9.61737
-9.62106
-9.62651
-9.63341
-9.64137
-9.65015
-9.65957
-9.66945
-9.67964
-9.68999
-9.70042
-9.71084
-9.72116
-9.73134
-9.74132
-9.75106
-9.76053
-9.7697
-9.77854
-9.78704
-9.79519
-9.80297
-9.81037
-9.81739
-9.82403
-9.83029
-9.83615
-9.84164
-9.84675
-9.8515
-9.85589
-9.611
-9.61142
-9.61277
-9.616
-9.6214
-9.62846
-9.63669
-9.64581
-9.65563
-9.66587
-9.67634
-9.6869
-9.69746
-9.70794
-9.71827
-9.72839
-9.73826
-9.74786
-9.75716
-9.76612
-9.77474
-9.78301
-9.7909
-9.79841
-9.80555
-9.8123
-9.81865
-9.82463
-9.83021
-9.83541
-9.84023
-9.84467
-9.84872
-9.60691
-9.60656
-9.6067
-9.60954
-9.61513
-9.62219
-9.6301
-9.6389
-9.64847
-9.65852
-9.66885
-9.6793
-9.68978
-9.7002
-9.71048
-9.72056
-9.7304
-9.73996
-9.74921
-9.75813
-9.76669
-9.77489
-9.78272
-9.79016
-9.79721
-9.80387
-9.81014
-9.81602
-9.82151
-9.82662
-9.83135
-9.83573
-9.83978
-9.60299
-9.60079
-9.598
-9.6004
-9.60797
-9.61761
-9.62786
-9.63857
-9.64959
-9.66066
-9.67164
-9.68246
-9.69308
-9.70346
-9.71357
-9.72338
-9.73288
-9.74206
-9.75089
-9.75937
-9.76748
-9.77522
-9.78259
-9.78957
-9.79617
-9.80238
-9.80821
-9.81366
-9.81872
-9.8234
-9.8277
-9.83161
-9.83512
-9.60043
-9.59534
-9.58785
-9.58562
-9.58831
-9.59398
-9.60218
-9.61237
-9.6236
-9.63526
-9.64709
-9.65894
-9.67066
-9.68215
-9.69334
-9.70418
-9.71465
-9.72473
-9.73439
-9.74363
-9.75245
-9.76083
-9.76878
-9.77629
-9.78338
-9.79003
-9.79626
-9.80208
-9.80748
-9.81249
-9.81711
-9.82137
-9.8253
-9.60087
-9.58098
-9.58381
-9.60364
-9.62043
-9.63139
-9.64126
-9.65171
-9.66204
-9.67188
-9.6814
-9.69075
-9.69993
-9.7089
-9.71766
-9.72619
-9.73447
-9.7425
-9.75025
-9.75771
-9.76486
-9.7717
-9.7782
-9.78437
-9.7902
-9.79569
-9.80082
-9.80561
-9.81004
-9.81412
-9.81784
-9.82119
-9.82416
-9.63833
-9.51509
-9.45201
-9.45568
-9.47807
-9.49981
-9.52115
-9.54291
-9.56405
-9.58393
-9.60254
-9.62
-9.63637
-9.65171
-9.66612
-9.67965
-9.69239
-9.70437
-9.71564
-9.72624
-9.73621
-9.74556
-9.75433
-9.76254
-9.77021
-9.77735
-9.78398
-9.79013
-9.7958
-9.80101
-9.80578
-9.81014
-9.8141
-9.79824
-9.81139
-9.77008
-9.72792
-9.70395
-9.69344
-9.68893
-9.68699
-9.68712
-9.68932
-9.69315
-9.69806
-9.70367
-9.7098
-9.71627
-9.72296
-9.72974
-9.73653
-9.74325
-9.74985
-9.75629
-9.76252
-9.76852
-9.77427
-9.77973
-9.78491
-9.78978
-9.79433
-9.79857
-9.80249
-9.80609
-9.80937
-9.81232
-8.63398
-8.93431
-9.19935
-9.32528
-9.39026
-9.44636
-9.49589
-9.53425
-9.56394
-9.58884
-9.61068
-9.62996
-9.64711
-9.66261
-9.67679
-9.68988
-9.70201
-9.7133
-9.72383
-9.73368
-9.74289
-9.7515
-9.75954
-9.76705
-9.77404
-9.78053
-9.78654
-9.79208
-9.79718
-9.80184
-9.80607
-9.80989
-9.81332
-10.2739
-10.1758
-10.2256
-10.2801
-10.3047
-10.32
-10.3311
-10.3358
-10.335
-10.3311
-10.3262
-10.3222
-10.321
-10.3238
-10.3319
-10.3459
-10.3661
-10.3924
-10.424
-10.4602
-10.4999
-10.5418
-10.5848
-10.6275
-10.6688
-10.7075
-10.7427
-10.7733
-10.7985
-10.8173
-10.8289
-10.8324
-10.8272
-10.8124
-10.7874
-10.7513
-10.7036
-10.6436
-10.5708
-10.4847
-10.385
-10.2714
-10.1436
-10.0016
-9.84535
-9.6749
-9.49045
-9.29231
-9.08091
-8.8568
-8.62065
-8.37327
-8.11557
-7.84858
-7.57344
-7.29136
-7.00364
-6.7116
-6.41664
-6.12014
-5.82348
-5.52804
-5.23513
-4.94601
-4.66185
-4.38375
-4.11268
-3.84951
-3.59499
-3.34974
-3.11427
-2.88896
-2.67406
-2.46973
-2.27603
-2.09294
-1.92034
-1.75805
-1.6058
-1.46328
-1.33014
-1.20597
-1.09036
-0.982855
-0.883023
-0.790412
-0.704577
-0.625085
-0.55151
-0.483444
-0.420478
-0.362244
-0.308291
-0.258375
-0.211661
-0.16872
-0.126313
-0.0906519
-0.0435114
-0.0296336
-10.2706
-10.2651
-10.2933
-10.3129
-10.3087
-10.2989
-10.2912
-10.2843
-10.2777
-10.2726
-10.2695
-10.2694
-10.2729
-10.2809
-10.2938
-10.3121
-10.3356
-10.3641
-10.397
-10.4336
-10.473
-10.5142
-10.556
-10.5973
-10.6373
-10.6746
-10.7085
-10.7378
-10.7617
-10.7793
-10.7897
-10.7921
-10.7858
-10.7701
-10.7441
-10.7072
-10.6589
-10.5984
-10.5253
-10.4391
-10.3395
-10.2262
-10.0989
-9.95759
-9.80225
-9.63296
-9.4499
-9.25339
-9.04384
-8.82179
-8.58791
-8.34299
-8.08792
-7.82371
-7.55147
-7.27239
-6.98772
-6.69877
-6.40689
-6.11343
-5.81976
-5.52719
-5.23703
-4.95049
-4.66874
-4.39285
-4.12377
-3.86236
-3.60938
-3.36544
-3.13104
-2.90657
-2.69231
-2.48841
-2.29496
-2.11193
-1.93923
-1.77668
-1.62406
-1.48106
-1.34733
-1.2225
-1.10615
-0.997869
-0.897215
-0.80375
-0.717041
-0.636659
-0.562184
-0.493212
-0.429335
-0.370185
-0.315306
-0.264462
-0.216783
-0.172927
-0.129382
-0.0931856
-0.0435692
-0.0330934
-10.2289
-10.235
-10.2402
-10.253
-10.2604
-10.2645
-10.2686
-10.271
-10.2707
-10.2684
-10.2656
-10.2636
-10.2639
-10.2678
-10.2765
-10.2904
-10.3101
-10.3353
-10.3657
-10.4006
-10.4387
-10.4791
-10.5205
-10.5614
-10.6009
-10.6376
-10.6706
-10.6988
-10.7216
-10.7379
-10.7471
-10.7484
-10.741
-10.7242
-10.6974
-10.6598
-10.6108
-10.55
-10.4767
-10.3905
-10.291
-10.1781
-10.0515
-9.91104
-9.75681
-9.58887
-9.40741
-9.21273
-9.00525
-8.78549
-8.55411
-8.31188
-8.05967
-7.79847
-7.52936
-7.25348
-6.97207
-6.6864
-6.39778
-6.10753
-5.81697
-5.5274
-5.24009
-4.95624
-4.67697
-4.40335
-4.13631
-3.87672
-3.62531
-3.38269
-3.14938
-2.92576
-2.71213
-2.50865
-2.31541
-2.13241
-1.95958
-1.79675
-1.6437
-1.50015
-1.36578
-1.24022
-1.12308
-1.01395
-0.912406
-0.818019
-0.730365
-0.649024
-0.57358
-0.503634
-0.438778
-0.378646
-0.322778
-0.270939
-0.222242
-0.177398
-0.132698
-0.0958112
-0.0439216
-0.0362172
-10.2019
-10.2187
-10.2299
-10.2471
-10.2595
-10.2646
-10.2661
-10.2656
-10.2632
-10.26
-10.2575
-10.2568
-10.2588
-10.2644
-10.2742
-10.2884
-10.3072
-10.3304
-10.3578
-10.3886
-10.4221
-10.4576
-10.4941
-10.5305
-10.5659
-10.5991
-10.6293
-10.6553
-10.6762
-10.6912
-10.6992
-10.6994
-10.6912
-10.6737
-10.6462
-10.6081
-10.5587
-10.4976
-10.4243
-10.3382
-10.2392
-10.1268
-10.001
-9.86167
-9.70876
-9.54238
-9.36273
-9.1701
-8.9649
-8.74765
-8.51898
-8.27964
-8.03049
-7.77249
-7.50667
-7.23417
-6.95617
-6.67392
-6.38868
-6.10176
-5.81444
-5.52798
-5.24362
-4.96254
-4.68585
-4.41459
-4.14968
-3.89197
-3.6422
-3.40097
-3.1688
-2.94609
-2.73312
-2.53008
-2.33708
-2.15413
-1.98116
-1.81804
-1.66455
-1.52044
-1.38539
-1.25906
-1.14108
-1.03105
-0.928559
-0.833191
-0.744532
-0.662169
-0.585694
-0.514709
-0.448811
-0.387632
-0.330712
-0.277816
-0.228043
-0.182142
-0.136265
-0.0985461
-0.0445798
-0.0389658
-10.1824
-10.2017
-10.2141
-10.2274
-10.2372
-10.2417
-10.2439
-10.2452
-10.2456
-10.2454
-10.2456
-10.247
-10.2505
-10.2567
-10.2664
-10.2801
-10.2978
-10.3196
-10.3452
-10.3741
-10.4055
-10.4387
-10.4725
-10.5062
-10.5385
-10.5686
-10.5954
-10.6181
-10.6358
-10.6477
-10.6529
-10.6507
-10.6404
-10.6211
-10.5923
-10.5531
-10.5031
-10.4416
-10.3681
-10.2822
-10.1836
-10.072
-9.94714
-9.809
-9.65755
-9.4929
-9.31521
-9.12478
-8.92202
-8.70742
-8.48162
-8.24532
-7.99937
-7.7447
-7.48231
-7.21332
-6.93886
-6.66016
-6.37844
-6.09498
-5.81101
-5.52779
-5.24652
-4.96835
-4.69437
-4.42559
-4.16295
-3.90725
-3.65924
-3.41952
-3.1886
-2.96689
-2.75469
-2.55219
-2.3595
-2.17666
-2.00361
-1.84022
-1.68632
-1.54166
-1.40595
-1.27885
-1.16001
-1.04905
-0.945583
-0.849196
-0.759487
-0.676054
-0.598495
-0.526416
-0.459419
-0.397135
-0.339105
-0.285091
-0.234189
-0.187162
-0.140086
-0.101394
-0.0455793
-0.0412682
-10.1647
-10.1841
-10.1977
-10.2102
-10.2205
-10.2272
-10.2313
-10.2341
-10.2357
-10.2365
-10.2375
-10.2395
-10.2434
-10.2498
-10.2594
-10.2724
-10.2891
-10.3094
-10.3329
-10.3594
-10.388
-10.4181
-10.4487
-10.4791
-10.5082
-10.5351
-10.5589
-10.5788
-10.5939
-10.6033
-10.6063
-10.6019
-10.5896
-10.5686
-10.5382
-10.4977
-10.4466
-10.3843
-10.3104
-10.2243
-10.1259
-10.0147
-9.89061
-9.75355
-9.60348
-9.44049
-9.26476
-9.07655
-8.87625
-8.66436
-8.44148
-8.2083
-7.96564
-7.71439
-7.45555
-7.19017
-6.91937
-6.64434
-6.36628
-6.0864
-5.80595
-5.52611
-5.24807
-4.97296
-4.70183
-4.43569
-4.17545
-3.92191
-3.67579
-3.43771
-3.20818
-2.9876
-2.77628
-2.57442
-2.38215
-2.19951
-2.02646
-1.8629
-1.70865
-1.56349
-1.42715
-1.29931
-1.17964
-1.06777
-0.963317
-0.8659
-0.775122
-0.69059
-0.611911
-0.538699
-0.470557
-0.40712
-0.34793
-0.292746
-0.240665
-0.192451
-0.144158
-0.104355
-0.046946
-0.043063
-10.1489
-10.1677
-10.1819
-10.1942
-10.2045
-10.2118
-10.2167
-10.2202
-10.2227
-10.2247
-10.2268
-10.2299
-10.2345
-10.2414
-10.2509
-10.2635
-10.2792
-10.298
-10.3197
-10.3439
-10.3699
-10.3972
-10.4248
-10.4521
-10.478
-10.5018
-10.5225
-10.5394
-10.5515
-10.5581
-10.5585
-10.5518
-10.5373
-10.5143
-10.4822
-10.4404
-10.3882
-10.3251
-10.2507
-10.1644
-10.0661
-9.95531
-9.83196
-9.69594
-9.5472
-9.38585
-9.21203
-9.02602
-8.8282
-8.61903
-8.3991
-8.16908
-7.92976
-7.68201
-7.42678
-7.1651
-6.89807
-6.62682
-6.35252
-6.07636
-5.79952
-5.52319
-5.2485
-4.97656
-4.7084
-4.44501
-4.18727
-3.93598
-3.69186
-3.45552
-3.22745
-3.00808
-2.79771
-2.59657
-2.40478
-2.22241
-2.04943
-1.88575
-1.73122
-1.58562
-1.4487
-1.32017
-1.19971
-1.08695
-0.981547
-0.883114
-0.791273
-0.70564
-0.625831
-0.551465
-0.482152
-0.417529
-0.35714
-0.300742
-0.247443
-0.197987
-0.148461
-0.107423
-0.0486856
-0.0443156
-10.134
-10.1519
-10.1664
-10.1785
-10.1888
-10.1967
-10.2024
-10.2068
-10.2103
-10.2133
-10.2163
-10.2202
-10.2254
-10.2324
-10.2418
-10.2538
-10.2685
-10.2859
-10.3058
-10.3277
-10.3513
-10.3758
-10.4006
-10.4248
-10.4477
-10.4684
-10.4861
-10.5
-10.5092
-10.5131
-10.5109
-10.5018
-10.4851
-10.4602
-10.4263
-10.383
-10.3296
-10.2656
-10.1905
-10.104
-10.0056
-9.89516
-9.77247
-9.63741
-9.48997
-9.33022
-9.15831
-8.9745
-8.77916
-8.57273
-8.35578
-8.12896
-7.89303
-7.64883
-7.39728
-7.13938
-6.87618
-6.60877
-6.3383
-6.06592
-5.79277
-5.51999
-5.24871
-4.97999
-4.71485
-4.45425
-4.19905
-3.95005
-3.70795
-3.47335
-3.24678
-3.02863
-2.81924
-2.61883
-2.42754
-2.24546
-2.07256
-1.90878
-1.75397
-1.60795
-1.47048
-1.34128
-1.22004
-1.10642
-1.00008
-0.900654
-0.807765
-0.721042
-0.640106
-0.564586
-0.494093
-0.428269
-0.366661
-0.309022
-0.254474
-0.203736
-0.152966
-0.110587
-0.050779
-0.0450268
-10.1198
-10.1368
-10.1511
-10.1632
-10.1735
-10.1818
-10.1882
-10.1933
-10.1976
-10.2014
-10.2052
-10.2097
-10.2153
-10.2225
-10.2317
-10.243
-10.2567
-10.2728
-10.2909
-10.3107
-10.3319
-10.3538
-10.3758
-10.3971
-10.417
-10.4348
-10.4495
-10.4605
-10.467
-10.4683
-10.4635
-10.4521
-10.4333
-10.4064
-10.3709
-10.3261
-10.2715
-10.2065
-10.1308
-10.044
-9.94562
-9.8355
-9.71345
-9.57935
-9.43318
-9.27502
-9.105
-8.92339
-8.73052
-8.52683
-8.31286
-8.08924
-7.8567
-7.61606
-7.36819
-7.11406
-6.85469
-6.59114
-6.3245
-6.05588
-5.78641
-5.5172
-5.24931
-4.98381
-4.72168
-4.46385
-4.21119
-3.96447
-3.72438
-3.49154
-3.26644
-3.04952
-2.8411
-2.64141
-2.45062
-2.26881
-2.09599
-1.9321
-1.77701
-1.63057
-1.49253
-1.36265
-1.24063
-1.12614
-1.01887
-0.918437
-0.824498
-0.736684
-0.654622
-0.577945
-0.50627
-0.439237
-0.3764
-0.317506
-0.261693
-0.209645
-0.157627
-0.113825
-0.0531767
-0.0452389
-10.106
-10.1223
-10.1363
-10.1482
-10.1585
-10.1671
-10.174
-10.1798
-10.1847
-10.1892
-10.1937
-10.1986
-10.2045
-10.2118
-10.2206
-10.2314
-10.2441
-10.2587
-10.2751
-10.293
-10.3119
-10.3312
-10.3505
-10.3691
-10.3861
-10.4009
-10.4128
-10.4211
-10.4249
-10.4235
-10.4163
-10.4026
-10.3817
-10.353
-10.3158
-10.2696
-10.2139
-10.1481
-10.0718
-9.98466
-9.88633
-9.77656
-9.65516
-9.52203
-9.37716
-9.22059
-9.05247
-8.87305
-8.68264
-8.48168
-8.27068
-8.05025
-7.82108
-7.58396
-7.33975
-7.08937
-6.83379
-6.57405
-6.31121
-6.04633
-5.78051
-5.51482
-5.25031
-4.988
-4.72886
-4.47379
-4.22365
-3.97919
-3.74112
-3.51002
-3.28641
-3.07071
-2.86326
-2.6643
-2.47401
-2.29248
-2.11973
-1.95573
-1.80037
-1.65349
-1.51489
-1.38432
-1.2615
-1.14614
-1.03791
-0.936469
-0.841466
-0.752544
-0.669342
-0.591493
-0.518622
-0.450368
-0.386289
-0.326126
-0.269035
-0.215657
-0.16239
-0.117104
-0.0557981
-0.0450359
-10.0927
-10.1082
-10.1218
-10.1336
-10.1439
-10.1526
-10.1599
-10.1661
-10.1716
-10.1766
-10.1816
-10.187
-10.193
-10.2002
-10.2087
-10.2188
-10.2305
-10.2438
-10.2586
-10.2745
-10.2911
-10.3081
-10.3248
-10.3406
-10.3549
-10.3669
-10.3761
-10.3816
-10.3827
-10.3789
-10.3693
-10.3534
-10.3304
-10.2999
-10.2611
-10.2136
-10.1567
-10.0901
-10.0133
-9.92593
-9.82765
-9.71825
-9.59753
-9.46539
-9.32181
-9.16684
-9.00062
-8.82338
-8.63543
-8.43718
-8.22912
-8.01185
-7.78602
-7.5524
-7.3118
-7.06513
-6.81331
-6.55735
-6.29826
-6.03709
-5.77488
-5.51269
-5.25152
-4.99238
-4.7362
-4.48388
-4.23625
-3.99406
-3.75799
-3.52864
-3.30651
-3.09204
-2.88557
-2.68735
-2.49757
-2.31633
-2.14368
-1.97958
-1.82395
-1.67665
-1.53748
-1.40623
-1.28263
-1.16639
-1.0572
-0.954741
-0.858664
-0.768624
-0.684265
-0.605229
-0.531143
-0.461649
-0.396309
-0.334856
-0.276471
-0.221743
-0.167223
-0.120403
-0.0585511
-0.0445401
-10.0797
-10.0945
-10.1076
-10.1192
-10.1294
-10.1383
-10.1459
-10.1525
-10.1583
-10.1638
-10.1691
-10.1747
-10.1809
-10.1879
-10.196
-10.2054
-10.2161
-10.2281
-10.2412
-10.2552
-10.2698
-10.2844
-10.2986
-10.3118
-10.3234
-10.3328
-10.3392
-10.3421
-10.3407
-10.3344
-10.3225
-10.3044
-10.2795
-10.2472
-10.2068
-10.158
-10.1001
-10.0327
-9.95535
-9.86774
-9.76954
-9.66051
-9.54048
-9.40933
-9.26705
-9.11367
-8.94934
-8.77427
-8.58875
-8.39319
-8.18805
-7.9739
-7.75138
-7.52121
-7.2842
-7.04118
-6.79309
-6.54086
-6.28549
-6.02799
-5.76937
-5.51064
-5.25279
-4.99679
-4.74357
-4.49398
-4.24885
-4.00892
-3.77485
-3.54725
-3.32662
-3.11339
-2.90791
-2.71044
-2.52118
-2.34025
-2.16771
-2.00353
-1.84764
-1.69993
-1.56022
-1.4283
-1.30392
-1.18681
-1.07667
-0.973195
-0.876044
-0.784883
-0.699363
-0.619131
-0.543819
-0.473072
-0.406456
-0.343697
-0.284
-0.227901
-0.172121
-0.123726
-0.0613632
-0.0439014
-10.067
-10.0811
-10.0938
-10.1051
-10.1152
-10.1241
-10.1319
-10.1387
-10.1449
-10.1506
-10.1562
-10.1619
-10.1681
-10.1749
-10.1826
-10.1912
-10.2009
-10.2116
-10.2232
-10.2354
-10.2478
-10.2602
-10.272
-10.2827
-10.2917
-10.2985
-10.3023
-10.3026
-10.2987
-10.29
-10.2759
-10.2557
-10.2289
-10.1948
-10.153
-10.1029
-10.0439
-9.97575
-9.89793
-9.81012
-9.712
-9.60336
-9.484
-9.35384
-9.21285
-9.06105
-8.89859
-8.72566
-8.54256
-8.34965
-8.14739
-7.93633
-7.71708
-7.49033
-7.25685
-7.01746
-6.77304
-6.52451
-6.27283
-6.01896
-5.76389
-5.50859
-5.25404
-5.00117
-4.75087
-4.50401
-4.26137
-4.0237
-3.79164
-3.56579
-3.34666
-3.13467
-2.93019
-2.73349
-2.54477
-2.36416
-2.19174
-2.02749
-1.87136
-1.72326
-1.58301
-1.45043
-1.32529
-1.20732
-1.09624
-0.991756
-0.893537
-0.801258
-0.714578
-0.633151
-0.55661
-0.484605
-0.416705
-0.352632
-0.291614
-0.23413
-0.177084
-0.127086
-0.0641863
-0.0432645
-10.0546
-10.068
-10.0802
-10.0913
-10.1012
-10.11
-10.1179
-10.1249
-10.1313
-10.1372
-10.1429
-10.1487
-10.1547
-10.1613
-10.1684
-10.1763
-10.185
-10.1945
-10.2045
-10.2149
-10.2254
-10.2356
-10.2451
-10.2534
-10.2599
-10.2641
-10.2654
-10.2632
-10.257
-10.2459
-10.2296
-10.2074
-10.1787
-10.143
-10.0996
-10.0482
-9.98831
-9.91939
-9.84109
-9.75308
-9.65505
-9.54679
-9.42812
-9.29894
-9.15921
-9.00898
-8.84837
-8.67756
-8.49683
-8.30655
-8.10714
-7.89912
-7.68309
-7.45972
-7.22973
-6.99392
-6.75314
-6.50826
-6.26022
-6.00994
-5.75839
-5.5065
-5.25522
-5.00545
-4.75807
-4.51392
-4.27377
-4.03834
-3.80829
-3.58419
-3.36657
-3.15584
-2.95237
-2.75645
-2.56828
-2.38801
-2.21572
-2.05142
-1.89507
-1.74658
-1.60581
-1.47259
-1.34669
-1.22787
-1.11586
-1.01037
-0.911087
-0.817695
-0.729857
-0.647234
-0.569466
-0.496201
-0.427016
-0.361625
-0.299284
-0.24041
-0.182093
-0.130483
-0.0669796
-0.0427324
-10.0424
-10.0551
-10.0669
-10.0776
-10.0873
-10.0961
-10.104
-10.111
-10.1175
-10.1235
-10.1293
-10.135
-10.1408
-10.147
-10.1536
-10.1608
-10.1685
-10.1766
-10.1852
-10.1939
-10.2025
-10.2106
-10.2179
-10.2238
-10.2279
-10.2297
-10.2286
-10.224
-10.2154
-10.2021
-10.1837
-10.1595
-10.1289
-10.0915
-10.0468
-9.99419
-9.93327
-9.86362
-9.78486
-9.69666
-9.59873
-9.49085
-9.37286
-9.24464
-9.10617
-8.95749
-8.79869
-8.62997
-8.45159
-8.26389
-8.06729
-7.86227
-7.64943
-7.42938
-7.20283
-6.97056
-6.73336
-6.4921
-6.24765
-6.00093
-5.75285
-5.50434
-5.2563
-5.00961
-4.76513
-4.52367
-4.28599
-4.05281
-3.82477
-3.60243
-3.38632
-3.17685
-2.97441
-2.77928
-2.59167
-2.41175
-2.23961
-2.07527
-1.91871
-1.76986
-1.62858
-1.49472
-1.36808
-1.24842
-1.13548
-1.02899
-0.928655
-0.834152
-0.74516
-0.661343
-0.582347
-0.507822
-0.437351
-0.370641
-0.306974
-0.246711
-0.187117
-0.1339
-0.0697036
-0.0423551
-10.0303
-10.0425
-10.0538
-10.0642
-10.0737
-10.0823
-10.0901
-10.0971
-10.1036
-10.1096
-10.1153
-10.1209
-10.1265
-10.1322
-10.1383
-10.1446
-10.1513
-10.1582
-10.1653
-10.1724
-10.1791
-10.1852
-10.1904
-10.1941
-10.1959
-10.1953
-10.1918
-10.1849
-10.174
-10.1586
-10.1381
-10.1119
-10.0796
-10.0407
-9.99452
-9.94073
-9.87886
-9.80851
-9.7293
-9.64092
-9.54309
-9.43559
-9.31826
-9.191
-9.05377
-8.9066
-8.7496
-8.58293
-8.40686
-8.2217
-8.02786
-7.8258
-7.61608
-7.39931
-7.17616
-6.94737
-6.71371
-6.476
-6.23511
-5.9919
-5.74727
-5.50209
-5.25726
-5.01362
-4.77202
-4.53324
-4.29803
-4.06709
-3.84104
-3.62047
-3.40587
-3.19768
-2.99627
-2.80193
-2.61491
-2.43535
-2.26337
-2.09901
-1.94226
-1.79305
-1.65128
-1.5168
-1.38942
-1.26893
-1.15508
-1.0476
-0.94621
-0.850602
-0.760457
-0.675448
-0.595224
-0.519439
-0.447682
-0.379652
-0.31466
-0.253006
-0.192129
-0.137318
-0.0723292
-0.0421452
-10.0185
-10.0301
-10.0409
-10.0509
-10.0601
-10.0685
-10.0762
-10.0831
-10.0895
-10.0954
-10.101
-10.1064
-10.1117
-10.117
-10.1224
-10.1279
-10.1336
-10.1393
-10.145
-10.1504
-10.1554
-10.1596
-10.1626
-10.1642
-10.1638
-10.161
-10.1552
-10.1461
-10.133
-10.1155
-10.0929
-10.0649
-10.0309
-9.99037
-9.94286
-9.88793
-9.82514
-9.7541
-9.67446
-9.58591
-9.48818
-9.38106
-9.26439
-9.13806
-9.00205
-8.85637
-8.70112
-8.53648
-8.36267
-8.18001
-7.98889
-7.78974
-7.5831
-7.36955
-7.14974
-6.92437
-6.69419
-6.46
-6.22261
-5.98287
-5.74163
-5.49975
-5.25809
-5.01748
-4.77873
-4.54261
-4.30985
-4.08114
-3.85709
-3.63827
-3.42519
-3.21828
-3.01791
-2.82439
-2.63795
-2.45877
-2.28697
-2.1226
-1.96567
-1.81613
-1.67388
-1.53879
-1.41069
-1.28938
-1.17462
-1.06616
-0.963728
-0.867018
-0.775726
-0.689528
-0.608078
-0.531034
-0.45799
-0.388642
-0.322322
-0.259281
-0.197112
-0.140726
-0.0748443
-0.0420957
-10.0067
-10.0178
-10.0282
-10.0378
-10.0467
-10.0549
-10.0623
-10.0691
-10.0754
-10.0811
-10.0865
-10.0916
-10.0965
-10.1013
-10.106
-10.1107
-10.1154
-10.1199
-10.1242
-10.1281
-10.1314
-10.1337
-10.1348
-10.1342
-10.1317
-10.1267
-10.1188
-10.1075
-10.0923
-10.0727
-10.0483
-10.0184
-9.98274
-9.94071
-9.89189
-9.83584
-9.77216
-9.70046
-9.62041
-9.53169
-9.43407
-9.32732
-9.21129
-9.08588
-8.95106
-8.80684
-8.65333
-8.49066
-8.31908
-8.13887
-7.95041
-7.75411
-7.55049
-7.34011
-7.12358
-6.90158
-6.67483
-6.44409
-6.21015
-5.97382
-5.73594
-5.49732
-5.2588
-5.02118
-4.78525
-4.55177
-4.32144
-4.09494
-3.87288
-3.65582
-3.44425
-3.23863
-3.03931
-2.84661
-2.66077
-2.48199
-2.31038
-2.14602
-1.98892
-1.83905
-1.69634
-1.56066
-1.43186
-1.30974
-1.19408
-1.08465
-0.981179
-0.883377
-0.790943
-0.703559
-0.620888
-0.542588
-0.46826
-0.397594
-0.329948
-0.265524
-0.202054
-0.144115
-0.0772506
-0.0421899
-9.99518
-10.0057
-10.0156
-10.0249
-10.0334
-10.0413
-10.0485
-10.0551
-10.0611
-10.0666
-10.0717
-10.0765
-10.0809
-10.0852
-10.0892
-10.0931
-10.0968
-10.1001
-10.1031
-10.1055
-10.1071
-10.1076
-10.1068
-10.1043
-10.0997
-10.0926
-10.0826
-10.0692
-10.052
-10.0304
-10.0041
-9.97255
-9.93524
-9.89176
-9.84167
-9.78454
-9.71999
-9.64765
-9.5672
-9.47833
-9.38081
-9.27442
-9.15903
-9.03452
-8.90087
-8.75809
-8.60626
-8.44554
-8.27613
-8.09833
-7.91247
-7.71897
-7.51831
-7.31103
-7.09772
-6.87903
-6.65564
-6.4283
-6.19775
-5.96478
-5.7302
-5.49479
-5.25937
-5.0247
-4.79157
-4.56069
-4.33278
-4.10847
-3.88839
-3.67308
-3.46303
-3.25869
-3.06042
-2.86855
-2.68333
-2.50495
-2.33355
-2.16921
-2.01196
-1.86179
-1.71863
-1.58237
-1.45287
-1.32996
-1.21343
-1.10304
-0.998536
-0.89965
-0.806082
-0.717521
-0.633633
-0.554082
-0.478474
-0.406495
-0.337525
-0.271724
-0.206946
-0.14748
-0.0795575
-0.0424055
-9.98376
-9.9938
-10.0033
-10.0121
-10.0203
-10.0278
-10.0347
-10.041
-10.0468
-10.052
-10.0568
-10.0611
-10.0651
-10.0688
-10.0721
-10.0751
-10.0778
-10.08