/*--------------------------------*- C++ -*----------------------------------*\
| =========                 |                                                 |
| \\      /  F ield         | OpenFOAM: The Open Source CFD Toolbox           |
|  \\    /   O peration     | Version:  4.1                                   |
|   \\  /    A nd           | Web:      www.OpenFOAM.org                      |
|    \\/     M anipulation  |                                                 |
\*---------------------------------------------------------------------------*/
FoamFile
{
    version     2.0;
    format      ascii;
    class       volScalarField;
    location    "1700";
    object      epsilon;
}
// * * * * * * * * * * * * * * * * * * * * * * * * * * * * * * * * * * * * * //

dimensions      [0 2 -3 0 0 0 0];

internalField   nonuniform List<scalar> 
6820
(
115.949
152.042
190.661
230.213
269.213
306.364
340.623
371.268
397.899
420.4
438.869
453.554
464.803
473.009
478.58
481.91
483.37
483.292
481.971
479.663
476.587
472.927
468.838
464.447
459.86
455.162
450.422
445.696
441.025
436.448
431.983
427.735
425.108
9.48476
17.5528
23.8082
29.343
34.5615
39.5638
44.3524
48.9031
53.1856
57.1731
60.8487
64.2073
67.2547
70.0051
72.4792
74.7011
76.6969
78.4928
80.114
81.5839
82.9237
84.153
85.2887
86.3455
87.3357
88.2698
89.156
90.0016
90.8113
91.5916
92.3414
93.0692
93.7677
4.14146
5.59602
6.98297
8.20862
9.27788
10.2173
11.0506
11.7953
12.4652
13.0716
13.6233
14.1277
14.5907
15.0172
15.4112
15.7762
16.1152
16.4306
16.7248
16.9994
17.258
17.5082
17.7522
17.9906
18.224
18.453
18.6778
18.8989
19.1166
19.3311
19.5426
19.7517
19.9563
3.60121
3.91796
4.33109
4.75787
5.16049
5.52671
5.85474
6.14666
6.40579
6.6357
6.83984
7.02136
7.18307
7.32748
7.45674
7.57272
7.67703
7.77107
7.85602
7.93291
8.00259
8.06661
8.12605
8.18167
8.23408
8.28376
8.33112
8.37649
8.42017
8.46238
8.50338
8.54328
8.58246
3.52798
3.56982
3.67476
3.81744
3.97488
4.1328
4.28383
4.42458
4.55377
4.67122
4.77737
4.87291
4.95865
5.03543
5.10409
5.1654
5.22009
5.26883
5.31223
5.35082
5.38509
5.41551
5.44254
5.46658
5.48801
5.50713
5.52424
5.53957
5.55335
5.56576
5.57697
5.58711
5.5964
3.5197
3.49572
3.49766
3.52374
3.56745
3.62175
3.681
3.74133
3.80034
3.85661
3.90933
3.95814
4.00291
4.04368
4.08059
4.11385
4.14366
4.17029
4.19396
4.21492
4.23339
4.24958
4.26371
4.27597
4.28654
4.29559
4.30327
4.30973
4.31508
4.31945
4.32294
4.32564
4.32766
3.51928
3.48173
3.4529
3.43487
3.42775
3.42982
3.4388
3.45249
3.46904
3.48707
3.50557
3.52383
3.54138
3.55792
3.57325
3.58728
3.59995
3.61129
3.6213
3.63006
3.63761
3.64407
3.64949
3.65395
3.65752
3.66027
3.66225
3.66354
3.6642
3.66428
3.66383
3.66292
3.66159
3.51938
3.47956
3.44297
3.41081
3.38393
3.36257
3.34634
3.33451
3.32623
3.32072
3.31725
3.31524
3.31422
3.31382
3.31376
3.31382
3.31384
3.31373
3.31338
3.31277
3.31185
3.31061
3.30906
3.30718
3.30501
3.30253
3.29978
3.29677
3.29352
3.29004
3.28636
3.28249
3.27846
3.51942
3.47931
3.44106
3.40504
3.37162
3.34118
3.31388
3.28963
3.26823
3.24937
3.23274
3.218
3.20484
3.19299
3.1822
3.17226
3.16303
3.15434
3.1461
3.13822
3.13062
3.12325
3.11606
3.10902
3.10209
3.09526
3.08851
3.08183
3.07521
3.06865
3.06213
3.05566
3.04923
3.51943
3.47931
3.44074
3.4038
3.36856
3.33518
3.30378
3.27441
3.24705
3.22164
3.19808
3.17623
3.15594
3.13705
3.11941
3.10289
3.08735
3.07269
3.0588
3.04559
3.03299
3.02092
3.00935
2.9982
2.98745
2.97705
2.96698
2.9572
2.94769
2.93844
2.92943
2.92063
2.91204
3.51944
3.47931
3.44068
3.40355
3.36786
3.33364
3.30091
3.26968
3.23994
3.2117
3.18491
3.15952
3.13547
3.1127
3.09111
3.07063
3.05118
3.03267
3.01505
2.99824
2.98217
2.96679
2.95204
2.93788
2.92427
2.91116
2.89853
2.88633
2.87454
2.86314
2.85209
2.84139
2.83101
3.51944
3.47931
3.44066
3.40348
3.3677
3.33326
3.30016
3.26835
3.23781
3.20852
3.18044
3.15355
3.12781
3.10317
3.0796
3.05704
3.03545
3.01477
2.99495
2.97596
2.95773
2.94023
2.92341
2.90724
2.89167
2.87667
2.86221
2.84827
2.8348
2.82179
2.80921
2.79703
2.78524
3.51944
3.47931
3.44064
3.40345
3.36764
3.33315
3.29995
3.26797
3.23718
3.20753
3.17899
3.15152
3.12508
3.09964
3.07516
3.05161
3.02896
3.00716
2.98618
2.96598
2.94653
2.9278
2.90975
2.89234
2.87556
2.85936
2.84373
2.82863
2.81404
2.79993
2.78629
2.77309
2.76031
3.51944
3.4793
3.44063
3.40343
3.36761
3.3331
3.29987
3.26785
3.23698
3.20723
3.17853
3.15087
3.12418
3.09844
3.07362
3.04966
3.02655
3.00426
2.98274
2.96197
2.94191
2.92255
2.90385
2.88578
2.86832
2.85145
2.83513
2.81935
2.80408
2.78931
2.775
2.76115
2.74773
3.51944
3.4793
3.44063
3.40341
3.36758
3.33307
3.29982
3.26778
3.23689
3.2071
3.17836
3.15063
3.12386
3.09801
3.07305
3.04894
3.02564
3.00313
2.98138
2.96035
2.94002
2.92035
2.90133
2.88294
2.86513
2.8479
2.83122
2.81507
2.79942
2.78427
2.76959
2.75535
2.74156
3.51944
3.4793
3.44062
3.4034
3.36756
3.33304
3.29979
3.26774
3.23684
3.20703
3.17827
3.15051
3.12371
3.09783
3.07282
3.04865
3.02529
3.00271
2.98087
2.95974
2.93929
2.91951
2.90035
2.88181
2.86385
2.84646
2.82961
2.81328
2.79745
2.78211
2.76723
2.75281
2.73881
3.51944
3.4793
3.44061
3.40339
3.36755
3.33302
3.29976
3.2677
3.23679
3.20698
3.17821
3.15044
3.12362
3.09772
3.07269
3.0485
3.02512
3.0025
2.98062
2.95945
2.93896
2.91912
2.89991
2.8813
2.86327
2.84581
2.82887
2.81246
2.79655
2.78111
2.76614
2.75161
2.73751
3.51944
3.47929
3.44061
3.40338
3.36753
3.333
3.29974
3.26767
3.23675
3.20693
3.17816
3.15038
3.12355
3.09764
3.07261
3.0484
3.02501
3.00237
2.98048
2.95929
2.93878
2.91892
2.89969
2.88106
2.863
2.84551
2.82854
2.8121
2.79615
2.78067
2.76566
2.75109
2.73695
3.51944
3.47929
3.44061
3.40337
3.36752
3.33299
3.29972
3.26765
3.23672
3.2069
3.17811
3.15033
3.1235
3.09758
3.07253
3.04832
3.02492
3.00228
2.98037
2.95917
2.93865
2.91878
2.89954
2.88089
2.86282
2.84531
2.82833
2.81187
2.7959
2.7804
2.76537
2.75078
2.73661
3.51944
3.47929
3.44061
3.40337
3.36752
3.33298
3.2997
3.26763
3.2367
3.20686
3.17807
3.15028
3.12345
3.09752
3.07247
3.04826
3.02484
3.00219
2.98028
2.95908
2.93855
2.91867
2.89942
2.88077
2.86269
2.84517
2.82818
2.81171
2.79573
2.78023
2.76519
2.75059
2.73641
3.51944
3.47929
3.4406
3.40337
3.36751
3.33297
3.29969
3.26761
3.23668
3.20684
3.17804
3.15025
3.1234
3.09747
3.07242
3.0482
3.02478
3.00212
2.98021
2.959
2.93846
2.91858
2.89932
2.88066
2.86258
2.84505
2.82806
2.81158
2.79559
2.78009
2.76504
2.75043
2.73625
3.51944
3.47929
3.4406
3.40336
3.36751
3.33296
3.29968
3.2676
3.23666
3.20682
3.17802
3.15022
3.12337
3.09743
3.07237
3.04815
3.02472
3.00206
2.98014
2.95892
2.93839
2.9185
2.89923
2.88057
2.86248
2.84495
2.82795
2.81147
2.79548
2.77997
2.76491
2.7503
2.73611
3.51944
3.47929
3.4406
3.40336
3.3675
3.33296
3.29967
3.26759
3.23665
3.2068
3.178
3.15019
3.12334
3.0974
3.07233
3.0481
3.02467
3.00201
2.98008
2.95886
2.93832
2.91843
2.89916
2.88049
2.8624
2.84487
2.82786
2.81138
2.79538
2.77986
2.76481
2.75019
2.736
3.51944
3.47929
3.4406
3.40336
3.3675
3.33295
3.29967
3.26758
3.23664
3.20678
3.17798
3.15017
3.12331
3.09737
3.0723
3.04807
3.02463
3.00197
2.98004
2.95881
2.93827
2.91837
2.8991
2.88043
2.86233
2.84479
2.82778
2.81129
2.79529
2.77977
2.76471
2.75009
2.7359
3.51944
3.47929
3.4406
3.40336
3.3675
3.33295
3.29966
3.26757
3.23663
3.20678
3.17797
3.15016
3.1233
3.09735
3.07228
3.04804
3.02461
3.00194
2.98001
2.95878
2.93823
2.91833
2.89906
2.88038
2.86228
2.84474
2.82773
2.81124
2.79524
2.77972
2.76465
2.75003
2.73583
3.51944
3.47929
3.4406
3.40336
3.3675
3.33295
3.29966
3.26757
3.23662
3.20677
3.17796
3.15015
3.12329
3.09734
3.07227
3.04803
3.02459
3.00192
2.97998
2.95875
2.9382
2.9183
2.89902
2.88034
2.86224
2.84469
2.82768
2.81118
2.79518
2.77965
2.76459
2.74996
2.73576
3.51944
3.47929
3.4406
3.40336
3.3675
3.33295
3.29966
3.26757
3.23662
3.20677
3.17796
3.15014
3.12328
3.09733
3.07226
3.04802
3.02458
3.00191
2.97998
2.95875
2.93819
2.91829
2.89902
2.88034
2.86224
2.84469
2.82768
2.81119
2.79518
2.77966
2.76459
2.74996
2.73577
3.51944
3.47929
3.4406
3.40336
3.3675
3.33295
3.29966
3.26757
3.23662
3.20677
3.17796
3.15014
3.12328
3.09733
3.07226
3.04801
3.02457
3.0019
2.97996
2.95873
2.93818
2.91827
2.89899
2.88031
2.86221
2.84466
2.82764
2.81114
2.79514
2.77961
2.76454
2.74991
2.73571
3.51944
3.47929
3.4406
3.40336
3.3675
3.33295
3.29966
3.26757
3.23663
3.20678
3.17797
3.15016
3.1233
3.09735
3.07228
3.04804
3.02461
3.00194
2.98001
2.95878
2.93823
2.91833
2.89906
2.88038
2.86228
2.84474
2.82773
2.81123
2.79523
2.77971
2.76464
2.75001
2.73581
3.51944
3.47929
3.4406
3.40336
3.3675
3.33296
3.29967
3.26758
3.23663
3.20678
3.17797
3.15016
3.1233
3.09735
3.07227
3.04803
3.02459
3.00192
2.97999
2.95875
2.9382
2.9183
2.89902
2.88034
2.86224
2.8447
2.82769
2.81119
2.79519
2.77967
2.76461
2.74998
2.73579
3.51944
3.47929
3.4406
3.40336
3.3675
3.33296
3.29968
3.26759
3.23666
3.20681
3.17802
3.15022
3.12337
3.09744
3.07238
3.04815
3.02473
3.00207
2.98015
2.95894
2.9384
2.91852
2.89925
2.88059
2.86251
2.84498
2.82799
2.81151
2.79553
2.78002
2.76498
2.75037
2.7362
3.51944
3.47929
3.4406
3.40337
3.36751
3.33297
3.29968
3.2676
3.23666
3.20681
3.178
3.1502
3.12335
3.09742
3.07236
3.04814
3.02472
3.00208
2.98018
2.95898
2.93847
2.91861
2.89938
2.88075
2.86271
2.84522
2.82827
2.81184
2.79591
2.78046
2.76547
2.75093
2.73681
3.51944
3.47929
3.44061
3.40337
3.36753
3.333
3.29975
3.26771
3.23682
3.20703
3.17829
3.15055
3.12378
3.09793
3.07296
3.04883
3.02551
3.00298
2.98118
2.96011
2.93972
2.92
2.9009
2.88242
2.86453
2.8472
2.83042
2.81415
2.79839
2.78311
2.7683
2.75394
2.74
3.51944
3.47929
3.44061
3.40338
3.36754
3.33305
3.29985
3.26787
3.23707
3.2074
3.1788
3.15124
3.12468
3.09906
3.07436
3.05054
3.02756
3.00539
2.98399
2.96333
2.94338
2.92411
2.9055
2.88751
2.87013
2.85332
2.83707
2.82135
2.80613
2.79141
2.77715
2.76335
2.74997
3.51943
3.4793
3.44066
3.40356
3.36794
3.33374
3.30092
3.26945
3.23927
3.21034
3.18261
3.15603
3.13055
3.10613
3.08271
3.06025
3.03869
3.018
2.99812
2.97902
2.96065
2.94298
2.92596
2.90957
2.89378
2.87855
2.86385
2.84966
2.83596
2.82272
2.80992
2.79753
2.78555
3.51942
3.47942
3.4412
3.4049
3.37061
3.33828
3.30787
3.27931
3.25251
3.22735
3.20374
3.18153
3.16063
3.14093
3.12231
3.1047
3.08799
3.07211
3.05699
3.04257
3.02878
3.01558
3.00292
2.99077
2.97909
2.96783
2.95698
2.94651
2.93639
2.9266
2.91712
2.90793
2.89902
3.5196
3.48203
3.4494
3.42177
3.39875
3.37983
3.36442
3.35191
3.34178
3.33354
3.32681
3.32126
3.31662
3.31268
3.30926
3.30623
3.30346
3.30087
3.29841
3.296
3.29362
3.29123
3.28881
3.28634
3.28382
3.28124
3.27859
3.27587
3.27309
3.27024
3.26733
3.26436
3.26135
3.53049
3.53942
3.57109
3.61695
3.67052
3.72753
3.78534
3.84241
3.89782
3.951
4.00161
4.0495
4.09463
4.13704
4.17681
4.21406
4.24892
4.28151
4.31198
4.34045
4.36707
4.39194
4.41519
4.43694
4.45727
4.4763
4.49411
4.51078
4.52639
4.54103
4.55475
4.56763
4.57975
4.00122
4.78106
5.43755
6.00229
6.50073
6.94822
7.35501
7.72858
8.07457
8.39729
8.70007
8.9856
9.256
9.51301
9.75807
9.99236
10.2169
10.4324
10.6398
10.8395
11.0321
11.2181
11.3978
11.5716
11.7399
11.9029
12.0609
12.2141
12.3627
12.507
12.6471
12.7832
12.9159
31.176
33.6247
36.0474
38.4445
40.8147
43.1561
45.4659
47.7407
49.9772
52.1722
54.323
56.4269
58.4817
60.4855
62.4367
64.3341
66.1767
67.964
69.6956
71.3714
72.9915
74.5563
76.0663
77.5223
78.9251
80.2756
81.575
82.8243
84.0249
85.1779
86.2848
87.3473
88.3743
437.06
505.756
598.158
699.867
791.87
861.464
904.414
922.421
920.606
904.974
880.647
851.221
819.149
786.103
753.174
721.043
689.795
659.476
629.803
600.748
572.477
545.198
519.072
494.193
470.606
448.338
427.411
407.831
389.582
372.62
356.881
342.293
328.781
316.273
304.696
293.974
284.026
274.776
266.146
258.064
250.46
243.268
236.427
229.881
223.576
217.465
211.506
205.66
199.893
194.179
188.493
182.818
177.139
171.448
165.74
160.014
154.273
148.522
142.771
137.03
131.314
125.637
120.017
114.471
109.018
103.675
98.4613
93.3941
88.4898
83.7633
79.2278
74.8948
70.7733
66.8704
63.1906
59.7361
56.5067
53.4997
50.7102
48.1307
45.7521
43.5637
41.5543
39.7121
38.0249
36.4804
35.0664
33.7706
32.5812
31.4865
30.4755
29.5375
28.6629
27.8419
27.0685
26.3333
25.6425
24.9832
24.405
23.7706
95.1663
100.428
110.601
127.822
152.617
183.975
219.931
257.809
294.809
328.612
357.624
380.984
398.515
410.594
417.955
421.456
421.793
419.478
415.073
408.963
401.466
392.879
383.463
373.438
362.987
352.272
341.439
330.626
319.955
309.519
299.385
289.598
280.189
271.175
262.564
254.355
246.534
239.081
231.969
225.17
218.651
212.38
206.324
200.451
194.73
189.134
183.637
178.215
172.85
167.525
162.226
156.944
151.673
146.41
141.154
135.907
130.674
125.462
120.279
115.138
110.048
105.025
100.081
95.232
90.4926
85.8775
81.401
77.0763
72.9155
68.9291
65.126
61.5133
58.0959
54.8772
51.8583
49.0387
46.4159
43.9856
41.7418
39.6769
37.7818
36.0468
34.4613
33.0149
31.6968
30.4963
29.4027
28.4057
27.4952
26.6612
25.8944
25.1858
24.5272
23.9103
23.3301
22.7788
22.2616
21.7681
21.3389
20.8739
20.2129
20.6075
21.3106
22.633
24.9481
28.6559
33.9834
41.102
50.111
61.0066
73.5873
87.4925
102.262
117.407
132.467
147.043
160.793
173.324
184.47
194.15
202.339
209.051
214.328
218.235
220.849
222.264
222.591
221.954
220.483
218.306
215.543
212.303
208.686
204.779
200.657
196.385
192.016
187.59
183.138
178.681
174.235
169.807
165.402
161.021
156.661
152.319
147.991
143.671
139.355
135.04
130.721
126.398
122.072
117.742
113.414
109.091
104.781
100.491
96.2306
92.0106
87.8423
83.738
79.7102
75.7717
71.9352
68.2127
64.6155
61.1538
57.8364
54.6708
51.6628
48.8166
46.135
43.6191
41.2685
39.0813
37.0547
35.184
33.4636
31.8869
30.446
29.1327
27.9384
26.8542
25.8715
24.9815
24.1757
23.4456
22.7831
22.1802
21.6293
21.1231
20.6549
20.2179
19.8081
19.419
19.0551
18.708
18.4103
18.095
8.62702
8.68183
8.75162
8.86002
9.04307
9.35861
9.88053
10.6904
11.8819
13.5005
15.6224
18.3311
21.6966
25.7714
30.5855
36.1394
42.3932
49.2483
56.542
64.1267
71.8475
79.5433
87.053
94.2231
100.916
107.016
112.438
117.131
121.072
124.266
126.736
128.522
129.675
130.251
130.312
129.919
129.129
127.999
126.576
124.903
123.019
120.953
118.734
116.381
113.913
111.345
108.686
105.947
103.136
100.259
97.322
94.3323
91.2962
88.2206
85.1133
81.983
78.8389
75.6911
72.5503
69.4278
66.3353
63.2844
60.2869
57.3544
54.4977
51.7271
49.0519
46.4803
44.0192
41.6743
39.4498
37.3489
35.3733
33.5235
31.799
30.1981
28.7184
27.3563
26.1074
24.9667
23.9283
22.9859
22.1331
21.3634
20.67
20.0466
19.4866
18.9836
18.5314
18.1239
17.7553
17.4197
17.112
16.8267
16.5608
16.3088
16.0749
15.852
15.6658
15.4777
5.60583
5.61696
5.62975
5.64581
5.66844
5.70366
5.76182
5.85745
6.00925
6.2378
6.56273
7.00506
7.59137
8.35177
9.31942
10.5299
12.0188
13.8187
15.9442
18.4084
21.2155
24.3562
27.8057
31.5218
35.4455
39.504
43.6154
47.6949
51.6604
55.4368
58.9603
62.1797
65.0582
67.5732
69.7153
71.486
72.8955
73.9603
74.7012
75.1411
75.3037
75.2128
74.891
74.3595
73.6376
72.7431
71.6918
70.498
69.1746
67.7334
66.1856
64.5417
62.8119
61.0065
59.1359
57.2105
55.2411
53.2387
51.2143
49.1792
47.1444
45.1211
43.1197
41.1507
39.2236
37.3473
35.5297
33.7778
32.0977
30.4942
28.9711
27.5314
26.1767
24.908
23.7255
22.6283
21.6152
20.684
19.8321
19.0561
18.3524
17.7168
17.145
16.6325
16.1748
15.7675
15.4059
15.0856
14.8022
14.5511
14.3281
14.1288
13.9494
13.7855
13.6349
13.4934
13.3643
13.2419
13.1457
13.0604
4.32911
4.32998
4.33076
4.33164
4.33292
4.33543
4.34057
4.35065
4.36918
4.40086
4.45143
4.5265
4.63359
4.78112
4.97875
5.23751
5.56977
5.9891
6.50789
7.13876
7.89475
8.78842
9.83071
11.0297
12.389
13.9069
15.575
17.3781
19.2944
21.2962
23.3511
25.4235
27.4771
29.4767
31.39
33.1888
34.8502
36.3565
37.6953
38.8593
39.8452
40.6532
41.2864
41.7501
42.0507
42.1959
42.1937
42.0526
41.7809
41.3873
40.8801
40.268
39.5594
38.7632
37.8882
36.9434
35.9381
34.8814
33.783
32.6522
31.4983
30.3307
29.1581
27.9892
26.8321
25.6941
24.5821
23.502
22.4593
21.4583
20.5028
19.5956
18.739
17.9344
17.1827
16.4844
15.8392
15.2464
14.7049
14.2131
13.7689
13.3702
13.0144
12.6989
12.421
12.1777
11.9663
11.7838
11.6272
11.4935
11.3795
11.2823
11.1989
11.1262
11.0624
11.0044
10.9548
10.9091
10.8812
10.874
3.65947
3.65643
3.65283
3.64897
3.64472
3.6402
3.63564
3.63146
3.62851
3.62776
3.63064
3.63878
3.65425
3.67963
3.71796
3.77278
3.84813
3.94858
4.07892
4.24373
4.44819
4.69759
4.99733
5.35267
5.76847
6.24892
6.79718
7.41502
8.10252
8.8577
9.67632
10.5518
11.4751
12.4353
13.4197
14.4147
15.406
16.3794
17.3213
18.2192
19.0621
19.8406
20.5469
21.1751
21.7209
22.1816
22.5558
22.8432
23.0445
23.1614
23.196
23.1514
23.0313
22.8396
22.5809
22.2604
21.8836
21.4561
20.9841
20.4738
19.9317
19.3641
18.7775
18.1781
17.5718
16.9643
16.3608
15.7663
15.185
14.6207
14.0768
13.556
13.0607
12.5926
12.1534
11.7438
11.3647
11.0163
10.6986
10.4111
10.1531
9.92378
9.72192
9.54625
9.39532
9.26758
9.16137
9.07493
9.0064
8.9538
8.91511
8.88818
8.87102
8.86132
8.85783
8.85807
8.86415
8.87241
8.89242
8.93956
3.27351
3.26749
3.26101
3.25423
3.24712
3.23969
3.23199
3.22408
3.2161
3.20826
3.20093
3.19454
3.1897
3.18721
3.18803
3.19338
3.20468
3.22357
3.25191
3.29156
3.34456
3.41303
3.49927
3.60553
3.734
3.88671
4.06553
4.27205
4.50751
4.77275
5.06807
5.39317
5.74701
6.12782
6.53307
6.95949
7.40311
7.85937
8.32323
8.78931
9.25203
9.70583
10.1453
10.5652
10.9608
11.3277
11.6623
11.9614
12.2222
12.4428
12.6218
12.7582
12.8519
12.9031
12.9127
12.8818
12.8125
12.7068
12.5675
12.3975
12.2001
11.9787
11.737
11.4787
11.2074
10.9268
10.6404
10.3514
10.063
9.77808
9.49914
9.22852
8.96824
8.72004
8.48541
8.2656
8.06159
7.87413
7.70375
7.55071
7.4151
7.29676
7.19539
7.11055
7.04166
6.988
6.94877
6.923
6.90963
6.90749
6.91528
6.9316
6.95507
6.98407
7.01772
7.05413
7.09492
7.13711
7.18681
7.26707
3.04175
3.03305
3.02408
3.01485
3.00543
2.9958
2.98592
2.97581
2.96549
2.95499
2.94441
2.93391
2.92365
2.91385
2.9048
2.89689
2.89061
2.88655
2.88543
2.88807
2.89529
2.90803
2.92727
2.95406
2.98941
3.03432
3.08971
3.15644
3.23518
3.32671
3.43149
3.54976
3.68153
3.82661
3.98456
4.15471
4.33614
4.52764
4.72781
4.93498
5.1473
5.36276
5.57921
5.79443
6.00615
6.21209
6.41003
6.59783
6.77348
6.93509
7.08099
7.20973
7.32008
7.41109
7.48211
7.53278
7.56304
7.57316
7.56369
7.53549
7.48966
7.42756
7.35071
7.26084
7.15975
7.04934
6.93153
6.80826
6.68138
6.55271
6.42395
6.29671
6.17247
6.05258
5.93826
5.83059
5.73053
5.6389
5.55637
5.48347
5.42057
5.36792
5.32565
5.29376
5.27216
5.26063
5.25887
5.26643
5.2828
5.3073
5.33917
5.37752
5.42147
5.46989
5.52218
5.5769
5.6353
5.69493
5.75932
5.85499
2.90223
2.89105
2.87974
2.86829
2.85673
2.84506
2.83326
2.82131
2.80922
2.79699
2.78464
2.7722
2.75971
2.74724
2.73489
2.72278
2.71107
2.69995
2.6897
2.6806
2.67299
2.66727
2.66389
2.6633
2.66602
2.67255
2.68338
2.69899
2.71982
2.74627
2.77866
2.81725
2.86219
2.9135
2.97128
3.03542
3.10567
3.18167
3.263
3.3491
3.43937
3.5331
3.6295
3.72775
3.82694
3.92614
4.0244
4.12073
4.21415
4.30369
4.38841
4.46739
4.53981
4.60489
4.66195
4.71044
4.74993
4.78013
4.80089
4.81222
4.8143
4.80745
4.79213
4.76895
4.73863
4.70196
4.65983
4.6132
4.56301
4.51027
4.45594
4.401
4.34638
4.29297
4.24162
4.19312
4.14821
4.10757
4.07179
4.04139
4.01683
3.99844
3.98653
3.98128
3.98282
3.99121
4.0064
4.02827
4.0566
4.09106
4.13125
4.17663
4.22665
4.28057
4.338
4.39788
4.46112
4.52571
4.59346
4.69102
2.81924
2.80595
2.79261
2.77922
2.76578
2.7523
2.73877
2.72518
2.71152
2.69778
2.68396
2.67007
2.65612
2.64214
2.62814
2.61416
2.60025
2.58646
2.57291
2.55969
2.54692
2.53476
2.52339
2.513
2.50382
2.49608
2.49004
2.48596
2.48407
2.48464
2.48787
2.49397
2.50308
2.51531
2.53074
2.54939
2.57127
2.59634
2.62448
2.65551
2.68918
2.72524
2.76337
2.80323
2.84446
2.88666
2.92943
2.97233
3.01494
3.05681
3.09749
3.13654
3.17353
3.20803
3.23967
3.26807
3.29292
3.31396
3.33096
3.34379
3.35236
3.35669
3.35684
3.35298
3.34531
3.33415
3.31983
3.30277
3.28341
3.26223
3.23975
3.21648
3.19295
3.1697
3.14726
3.12614
3.10684
3.08985
3.07562
3.06457
3.05707
3.05348
3.05409
3.05915
3.06887
3.0834
3.10284
3.12721
3.15649
3.19056
3.22922
3.2722
3.31918
3.36968
3.42348
3.4798
3.53933
3.60043
3.66383
3.75401
2.77193
2.75693
2.74194
2.72695
2.71195
2.69695
2.68195
2.66693
2.65191
2.63685
2.62178
2.60667
2.59153
2.57637
2.5612
2.54602
2.53084
2.5157
2.50061
2.4856
2.47073
2.45603
2.44157
2.42743
2.4137
2.40049
2.38789
2.37604
2.36506
2.35508
2.34623
2.33864
2.33242
2.32767
2.32448
2.32291
2.32302
2.32485
2.32839
2.3336
2.3404
2.34871
2.35839
2.36931
2.38131
2.39422
2.40786
2.42204
2.43654
2.45118
2.46573
2.47998
2.49374
2.50678
2.51892
2.52996
2.53972
2.54806
2.55482
2.55989
2.5632
2.56468
2.56432
2.56214
2.55819
2.55257
2.5454
2.53686
2.52713
2.51644
2.50503
2.49318
2.48117
2.4693
2.45788
2.44723
2.43765
2.42948
2.42303
2.41859
2.41648
2.41695
2.42028
2.42669
2.4364
2.4496
2.46643
2.487
2.51137
2.53954
2.57146
2.60701
2.64604
2.68826
2.73357
2.78141
2.83231
2.88493
2.93944
3.01678
2.74589
2.72965
2.71343
2.69723
2.68105
2.66489
2.64874
2.63261
2.61648
2.60036
2.58425
2.56813
2.55201
2.53588
2.51976
2.50364
2.48753
2.47144
2.45536
2.43932
2.42332
2.40738
2.39151
2.37574
2.36011
2.34464
2.32939
2.3144
2.29972
2.28543
2.27157
2.25822
2.24547
2.23338
2.22202
2.21145
2.20171
2.19284
2.18487
2.1778
2.17164
2.16636
2.16193
2.15831
2.15542
2.1532
2.15158
2.15046
2.14975
2.14935
2.14916
2.14909
2.14903
2.14887
2.14852
2.14789
2.14687
2.1454
2.14339
2.14079
2.13752
2.13356
2.12889
2.12348
2.11736
2.11055
2.1031
2.09507
2.08655
2.07764
2.06847
2.05916
2.04988
2.04078
2.03204
2.02385
2.01641
2.00991
2.00457
2.00059
1.99819
1.99758
1.99896
2.00253
2.00848
2.017
2.02823
2.0423
2.05934
2.07939
2.10251
2.12865
2.15778
2.18976
2.22455
2.26177
2.30186
2.3437
2.38728
2.44933
2.73258
2.7155
2.69845
2.68142
2.66441
2.64741
2.63043
2.61347
2.59653
2.5796
2.56269
2.54579
2.5289
2.51202
2.49516
2.47831
2.46148
2.44467
2.42788
2.41112
2.39437
2.37766
2.36098
2.34433
2.32774
2.3112
2.29473
2.27835
2.26207
2.24593
2.22995
2.21417
2.19862
2.18336
2.16844
2.15389
2.13974
2.126
2.11272
2.09991
2.08758
2.07573
2.06437
2.05349
2.04308
2.0331
2.02353
2.01434
2.00549
1.99692
1.98861
1.98049
1.97253
1.96466
1.95685
1.94904
1.94119
1.93326
1.92521
1.917
1.90861
1.90002
1.8912
1.88215
1.87288
1.86338
1.85369
1.84382
1.83382
1.82374
1.81364
1.80358
1.79365
1.78394
1.77454
1.76558
1.75715
1.7494
1.74246
1.73646
1.73155
1.72789
1.72563
1.72493
1.72594
1.72882
1.73371
1.74076
1.75007
1.76176
1.77589
1.79251
1.81164
1.83323
1.85731
1.88362
1.91254
1.94312
1.97544
2.02182
2.72596
2.70839
2.69082
2.67326
2.65571
2.63818
2.62065
2.60314
2.58565
2.56817
2.5507
2.53325
2.51581
2.49838
2.48098
2.46359
2.44622
2.42887
2.41154
2.39424
2.37696
2.35971
2.34247
2.32527
2.30809
2.29094
2.27382
2.25673
2.23968
2.2227
2.20579
2.18897
2.17225
2.15565
2.1392
2.12292
2.10682
2.09092
2.07524
2.0598
2.0446
2.02967
2.015
2.00061
1.98649
1.97263
1.95904
1.9457
1.9326
1.91972
1.90705
1.89456
1.88223
1.87004
1.85797
1.84599
1.83409
1.82224
1.81042
1.79862
1.78682
1.77501
1.76318
1.75134
1.73947
1.72758
1.71568
1.70379
1.69192
1.6801
1.66835
1.65672
1.64525
1.63399
1.623
1.61232
1.60205
1.59225
1.58301
1.57442
1.56658
1.55958
1.55356
1.54861
1.54487
1.54246
1.5415
1.54212
1.54443
1.54855
1.55457
1.56257
1.5726
1.58469
1.5989
1.61506
1.63352
1.65347
1.67522
1.7068
2.72298
2.70512
2.68726
2.6694
2.65155
2.63369
2.61584
2.59799
2.58015
2.56232
2.5445
2.52668
2.50888
2.49109
2.47331
2.45555
2.4378
2.42008
2.40237
2.38469
2.36703
2.3494
2.33178
2.31419
2.29662
2.27907
2.26154
2.24404
2.22655
2.20909
2.19167
2.17431
2.15701
2.13979
2.12265
2.1056
2.08864
2.07179
2.05505
2.03844
2.02196
2.00562
1.98944
1.9734
1.95753
1.94182
1.92627
1.91089
1.89566
1.88059
1.86568
1.85091
1.83627
1.82177
1.80738
1.79311
1.77893
1.76484
1.75084
1.73691
1.72305
1.70925
1.69551
1.68183
1.6682
1.65463
1.64112
1.62767
1.61431
1.60103
1.58786
1.57482
1.56192
1.54919
1.53667
1.52439
1.51238
1.5007
1.4894
1.47853
1.46815
1.45833
1.44916
1.4407
1.43306
1.42632
1.42058
1.41594
1.41252
1.4104
1.40969
1.41048
1.41285
1.41684
1.42257
1.42991
1.43921
1.44974
1.46217
1.48045
2.72156
2.70356
2.68555
2.66753
2.64951
2.63148
2.61344
2.5954
2.57737
2.55933
2.5413
2.52327
2.50524
2.48723
2.46922
2.45122
2.43324
2.41527
2.39732
2.37938
2.36147
2.34357
2.3257
2.30785
2.29001
2.2722
2.2544
2.23663
2.2189
2.20119
2.18351
2.16588
2.14829
2.13075
2.11326
2.09584
2.07847
2.06118
2.04396
2.02681
2.00975
1.99278
1.9759
1.95912
1.94244
1.92586
1.9094
1.89304
1.87679
1.86066
1.84464
1.82873
1.81293
1.79724
1.78166
1.76618
1.75079
1.73551
1.72031
1.7052
1.69018
1.67525
1.66039
1.64562
1.63092
1.61631
1.60178
1.58733
1.57297
1.55871
1.54455
1.5305
1.51657
1.50278
1.48914
1.47567
1.46239
1.44933
1.43651
1.42397
1.41174
1.39987
1.38841
1.37741
1.36692
1.35701
1.34776
1.33924
1.33152
1.3247
1.31885
1.31406
1.31042
1.30799
1.30688
1.30702
1.30875
1.31139
1.31604
1.32282
2.72094
2.70288
2.68479
2.6667
2.64859
2.63047
2.61234
2.59421
2.57607
2.55793
2.53978
2.52163
2.50349
2.48534
2.4672
2.44907
2.43094
2.41283
2.39472
2.37663
2.35856
2.3405
2.32246
2.30444
2.28644
2.26845
2.25048
2.23253
2.2146
2.1967
2.17885
2.16103
2.14327
2.12555
2.10787
2.09025
2.07268
2.05517
2.03772
2.02033
2.003
1.98573
1.96854
1.95142
1.93437
1.9174
1.90052
1.88371
1.867
1.85036
1.83382
1.81737
1.80101
1.78474
1.76856
1.75247
1.73648
1.72058
1.70476
1.68904
1.6734
1.65785
1.64239
1.62702
1.61173
1.59652
1.5814
1.56637
1.55142
1.53656
1.5218
1.50713
1.49256
1.4781
1.46375
1.44952
1.43542
1.42147
1.40767
1.39406
1.38064
1.36745
1.3545
1.34184
1.32949
1.3175
1.30592
1.29478
1.28415
1.27409
1.26466
1.25592
1.24796
1.24081
1.23461
1.22927
1.22517
1.22159
1.22012
1.21743
2.72058
2.70248
2.68436
2.66623
2.64808
2.62992
2.61175
2.59356
2.57537
2.55717
2.53897
2.52076
2.50255
2.48434
2.46613
2.44792
2.42972
2.41152
2.39334
2.37516
2.35699
2.33884
2.3207
2.30258
2.28447
2.26638
2.2483
2.23026
2.21224
2.19425
2.17629
2.15838
2.1405
2.12267
2.10489
2.08715
2.06946
2.05183
2.03425
2.01672
1.99925
1.98184
1.96449
1.94721
1.92999
1.91283
1.89575
1.87873
1.8618
1.84493
1.82814
1.81144
1.79481
1.77826
1.7618
1.74542
1.72913
1.71293
1.69681
1.68077
1.66482
1.64896
1.63319
1.6175
1.6019
1.58638
1.57094
1.55559
1.54032
1.52513
1.51003
1.49501
1.48008
1.46523
1.45048
1.43581
1.42124
1.40677
1.39242
1.37817
1.36406
1.35009
1.33627
1.32263
1.30918
1.29594
1.28294
1.27022
1.25779
1.2457
1.234
1.22271
1.21191
1.20161
1.19193
1.18279
1.17455
1.16644
1.16054
1.15053
2.72037
2.70226
2.68412
2.66597
2.6478
2.62962
2.61143
2.59322
2.57501
2.55678
2.53855
2.52031
2.50207
2.48383
2.46558
2.44734
2.4291
2.41086
2.39263
2.3744
2.35619
2.33798
2.31979
2.30161
2.28344
2.26529
2.24715
2.22903
2.21093
2.19288
2.17485
2.15687
2.13893
2.12103
2.10318
2.08538
2.06762
2.04991
2.03226
2.01466
1.99711
1.97963
1.9622
1.94483
1.92752
1.91028
1.8931
1.87598
1.85894
1.84197
1.82507
1.80824
1.79149
1.77481
1.75822
1.74171
1.72527
1.70892
1.69266
1.67647
1.66038
1.64436
1.62843
1.61259
1.59683
1.58115
1.56556
1.55005
1.53462
1.51926
1.50399
1.48879
1.47367
1.45862
1.44365
1.42876
1.41394
1.3992
1.38454
1.36997
1.35548
1.34109
1.32681
1.31263
1.29858
1.28466
1.27088
1.25726
1.24383
1.23058
1.21756
1.20478
1.19228
1.18008
1.16824
1.15669
1.14578
1.13467
1.12586
1.11066
2.7202
2.70207
2.68393
2.66576
2.64759
2.62939
2.61119
2.59297
2.57474
2.5565
2.53826
2.52001
2.50175
2.48349
2.46522
2.44696
2.4287
2.41044
2.39218
2.37394
2.3557
2.33746
2.31924
2.30103
2.28283
2.26464
2.24647
2.22833
2.21021
2.19212
2.17407
2.15605
2.13807
2.12013
2.10224
2.08439
2.06659
2.04884
2.03114
2.01349
1.9959
1.97836
1.96089
1.94347
1.92611
1.90881
1.89158
1.87442
1.85732
1.84029
1.82333
1.80644
1.78963
1.7729
1.75624
1.73966
1.72317
1.70675
1.69042
1.67417
1.658
1.64192
1.62592
1.61001
1.59418
1.57843
1.56277
1.54719
1.53168
1.51625
1.5009
1.48562
1.47042
1.45528
1.44021
1.42522
1.41028
1.39542
1.38062
1.36589
1.35123
1.33664
1.32213
1.3077
1.29335
1.27908
1.26492
1.25085
1.23689
1.22304
1.20932
1.19574
1.18232
1.16905
1.156
1.14307
1.1306
1.11769
1.10715
1.08861
2.72006
2.70193
2.68377
2.66561
2.64742
2.62922
2.61101
2.59279
2.57455
2.55631
2.53805
2.51979
2.50153
2.48326
2.46499
2.44672
2.42844
2.41017
2.39191
2.37365
2.35539
2.33715
2.31891
2.30068
2.28246
2.26425
2.24606
2.2279
2.20976
2.19165
2.17358
2.15554
2.13754
2.11958
2.10166
2.08378
2.06596
2.04818
2.03045
2.01278
1.99515
1.97759
1.96008
1.94263
1.92525
1.90792
1.89066
1.87347
1.85634
1.83928
1.82229
1.80538
1.78854
1.77178
1.75509
1.73849
1.72196
1.70552
1.68916
1.67288
1.65669
1.64059
1.62456
1.60863
1.59278
1.57701
1.56132
1.54572
1.53019
1.51475
1.49937
1.48407
1.46885
1.45369
1.43859
1.42357
1.4086
1.3937
1.37886
1.36407
1.34935
1.33469
1.3201
1.30556
1.29109
1.27669
1.26235
1.24808
1.23389
1.21976
1.20572
1.19175
1.17787
1.16406
1.15039
1.13674
1.12345
1.10954
1.09809
1.07761
2.71994
2.7018
2.68365
2.66547
2.64728
2.62908
2.61086
2.59263
2.57439
2.55614
2.53789
2.51962
2.50135
2.48308
2.4648
2.44652
2.42824
2.40997
2.3917
2.37343
2.35517
2.33691
2.31866
2.30043
2.2822
2.26398
2.24578
2.2276
2.20946
2.19134
2.17325
2.1552
2.13719
2.11922
2.10128
2.08339
2.06555
2.04776
2.03001
2.01232
1.99468
1.97709
1.95957
1.9421
1.92469
1.90735
1.89007
1.87286
1.85572
1.83864
1.82164
1.80471
1.78786
1.77109
1.75439
1.73778
1.72124
1.7048
1.68843
1.67215
1.65596
1.63986
1.62384
1.60791
1.59206
1.5763
1.56063
1.54503
1.52952
1.51409
1.49873
1.48345
1.46824
1.4531
1.43802
1.42301
1.40807
1.39318
1.37835
1.36358
1.34887
1.33422
1.31962
1.30508
1.2906
1.27617
1.26179
1.24747
1.2332
1.21898
1.20481
1.19069
1.17662
1.16258
1.14863
1.13464
1.12095
1.10655
1.09468
1.07319
2.71983
2.70169
2.68353
2.66535
2.64716
2.62895
2.61073
2.5925
2.57425
2.556
2.53774
2.51947
2.50119
2.48292
2.46463
2.44635
2.42807
2.40979
2.39151
2.37324
2.35497
2.33671
2.31846
2.30021
2.28197
2.26376
2.24556
2.22738
2.20923
2.19111
2.17302
2.15497
2.13694
2.11896
2.10102
2.08312
2.06527
2.04746
2.0297
2.012
1.99435
1.97675
1.95921
1.94174
1.92432
1.90697
1.88968
1.87246
1.85531
1.83823
1.82122
1.80429
1.78744
1.77067
1.75397
1.73736
1.72084
1.7044
1.68804
1.67178
1.6556
1.63952
1.62352
1.60761
1.5918
1.57607
1.56042
1.54487
1.52939
1.514
1.49869
1.48345
1.46829