/*--------------------------------*- C++ -*----------------------------------*\
| =========                 |                                                 |
| \\      /  F ield         | OpenFOAM: The Open Source CFD Toolbox           |
|  \\    /   O peration     | Version:  4.1                                   |
|   \\  /    A nd           | Web:      www.OpenFOAM.org                      |
|    \\/     M anipulation  |                                                 |
\*---------------------------------------------------------------------------*/
FoamFile
{
    version     2.0;
    format      ascii;
    class       volScalarField;
    location    "1700";
    object      nut;
}
// * * * * * * * * * * * * * * * * * * * * * * * * * * * * * * * * * * * * * //

dimensions      [0 2 -1 0 0 0 0];

internalField   nonuniform List<scalar> 
6820
(
4.53774e-05
4.96674e-05
5.35596e-05
5.7033e-05
6.00872e-05
6.27329e-05
6.49892e-05
6.68824e-05
6.84449e-05
6.97114e-05
7.07177e-05
7.14978e-05
7.20841e-05
7.25058e-05
7.27893e-05
7.29578e-05
7.30314e-05
7.30275e-05
7.29609e-05
7.28442e-05
7.26882e-05
7.25016e-05
7.22921e-05
7.20657e-05
7.18277e-05
7.15822e-05
7.13329e-05
7.10825e-05
7.08333e-05
7.05874e-05
7.03459e-05
7.01146e-05
6.99707e-05
0.000389004
0.000214804
0.000161971
0.000134577
0.000117082
0.000104841
9.58724e-05
8.91195e-05
8.39493e-05
7.99547e-05
7.68576e-05
7.44593e-05
7.26133e-05
7.12095e-05
7.01639e-05
6.94111e-05
6.88998e-05
6.85893e-05
6.84467e-05
6.84457e-05
6.85646e-05
6.87854e-05
6.90931e-05
6.94752e-05
6.9921e-05
7.04212e-05
7.09681e-05
7.15548e-05
7.21759e-05
7.28247e-05
7.35009e-05
7.41945e-05
7.51909e-05
0.000867009
0.000638273
0.00050769
0.000428082
0.000375014
0.000336916
0.000308048
0.000285295
0.000266813
0.00025144
0.000238413
0.00022721
0.000217458
0.00020889
0.000201303
0.000194545
0.000188496
0.000183062
0.000178166
0.00017375
0.000169743
0.000166041
0.000162606
0.000159413
0.000156443
0.00015368
0.000151107
0.000148711
0.000146478
0.000144399
0.000142458
0.000140657
0.000139055
0.000991214
0.000902164
0.000807377
0.000726622
0.000661863
0.000610175
0.000568431
0.000534166
0.000505567
0.000481331
0.000460513
0.000442414
0.000426509
0.0004124
0.00039978
0.000388413
0.000378111
0.000368724
0.000360134
0.000352242
0.000344971
0.00033822
0.000331916
0.000326008
0.000320452
0.000315214
0.000310264
0.000305579
0.000301135
0.000296916
0.000292902
0.000289081
0.000285432
0.00101005
0.00098739
0.000948626
0.000902916
0.000857083
0.00081444
0.000776076
0.000742011
0.000711858
0.000685132
0.000661359
0.000640115
0.000621037
0.000603821
0.00058821
0.00057399
0.000560984
0.000549041
0.000538035
0.000527861
0.000518429
0.000509658
0.000501477
0.000493823
0.000486643
0.000479889
0.000473523
0.000467508
0.000461815
0.000456416
0.000451288
0.000446407
0.000441712
0.00101185
0.00100724
0.000995356
0.000976942
0.000954121
0.000929118
0.000903659
0.000878801
0.000855099
0.000832805
0.000812001
0.000792668
0.000774737
0.000758113
0.000742692
0.000728374
0.00071506
0.000702662
0.000691095
0.000680287
0.00067017
0.000660683
0.000651773
0.000643389
0.000635487
0.000628027
0.000620973
0.000614293
0.000607959
0.000601943
0.000596222
0.000590768
0.0005855
0.00101178
0.00101089
0.00100777
0.00100182
0.000992905
0.000981471
0.000968242
0.00095392
0.000939072
0.000924117
0.000909347
0.000894953
0.000881053
0.000867715
0.00085497
0.000842827
0.00083128
0.000820311
0.000809899
0.000800017
0.000790637
0.000781725
0.000773254
0.0007652
0.000757539
0.000750246
0.0007433
0.00073668
0.000730366
0.000724339
0.000718581
0.000713066
0.000707706
0.00101168
0.00101136
0.00101047
0.00100868
0.00100565
0.0010012
0.000995412
0.000988494
0.000980691
0.000972245
0.000963375
0.000954264
0.000945058
0.000935871
0.000926788
0.00091787
0.000909162
0.000900694
0.000892486
0.000884548
0.000876885
0.000869497
0.00086238
0.000855529
0.000848937
0.000842597
0.000836499
0.000830636
0.000824999
0.000819577
0.00081436
0.000809329
0.000804393
0.00101165
0.00101137
0.00101095
0.0010103
0.00100928
0.00100769
0.00100543
0.00100251
0.000998941
0.000994803
0.000990178
0.00098516
0.000979838
0.000974296
0.000968606
0.00096283
0.000957019
0.000951215
0.00094545
0.00093975
0.000934136
0.000928624
0.000923226
0.000917951
0.000912805
0.000907792
0.000902914
0.000898172
0.000893566
0.000889095
0.000884756
0.000880532
0.000876338
0.00101164
0.00101135
0.00101102
0.00101063
0.00101016
0.00100951
0.0010086
0.00100738
0.00100583
0.00100394
0.00100172
0.000999201
0.000996409
0.000993382
0.000990158
0.000986773
0.000983263
0.000979658
0.000975986
0.000972273
0.000968538
0.0009648
0.000961074
0.000957374
0.000953709
0.000950089
0.000946521
0.000943011
0.000939564
0.000936182
0.000932867
0.000929606
0.000926318
0.00101163
0.00101134
0.00101103
0.0010107
0.00101036
0.00100998
0.00100952
0.00100894
0.00100823
0.00100736
0.00100632
0.00100511
0.00100373
0.00100219
0.00100049
0.000998656
0.000996699
0.000994636
0.000992481
0.00099025
0.000987958
0.000985618
0.000983241
0.000980839
0.000978421
0.000975996
0.000973572
0.000971156
0.000968753
0.000966369
0.000964005
0.000961652
0.000959227
0.00101163
0.00101134
0.00101103
0.00101072
0.00101041
0.0010101
0.00100977
0.00100939
0.00100897
0.00100849
0.00100793
0.0010073
0.00100658
0.00100577
0.00100487
0.00100388
0.00100282
0.00100167
0.00100045
0.000999166
0.000997824
0.00099643
0.000994992
0.000993517
0.00099201
0.000990479
0.000988927
0.000987362
0.000985787
0.000984206
0.000982622
0.000981024
0.000979332
0.00101163
0.00101133
0.00101104
0.00101073
0.00101043
0.00101014
0.00100984
0.00100953
0.00100921
0.00100886
0.0010085
0.0010081
0.00100766
0.00100719
0.00100667
0.00100611
0.00100551
0.00100486
0.00100416
0.00100342
0.00100265
0.00100183
0.00100098
0.0010001
0.000999189
0.000998253
0.000997294
0.000996317
0.000995323
0.000994316
0.000993296
0.00099225
0.000991102
0.00101163
0.00101133
0.00101104
0.00101074
0.00101045
0.00101016
0.00100987
0.00100958
0.00100929
0.00100899
0.00100869
0.00100837
0.00100804
0.0010077
0.00100734
0.00100696
0.00100657
0.00100615
0.0010057
0.00100524
0.00100476
0.00100425
0.00100372
0.00100317
0.00100261
0.00100202
0.00100142
0.00100081
0.00100018
0.000999537
0.000998884
0.000998207
0.000997426
0.00101163
0.00101133
0.00101104
0.00101075
0.00101046
0.00101018
0.00100989
0.00100961
0.00100933
0.00100905
0.00100877
0.00100848
0.0010082
0.00100791
0.00100761
0.00100732
0.00100701
0.0010067
0.00100638
0.00100604
0.0010057
0.00100536
0.001005
0.00100463
0.00100425
0.00100386
0.00100346
0.00100306
0.00100264
0.00100222
0.00100179
0.00100134
0.00100078
0.00101163
0.00101133
0.00101105
0.00101075
0.00101047
0.00101019
0.00100991
0.00100963
0.00100936
0.00100908
0.00100881
0.00100854
0.00100827
0.001008
0.00100773
0.00100746
0.00100719
0.00100692
0.00100665
0.00100637
0.0010061
0.00100582
0.00100553
0.00100525
0.00100496
0.00100467
0.00100437
0.00100407
0.00100377
0.00100346
0.00100315
0.00100282
0.0010024
0.00101163
0.00101133
0.00101105
0.00101076
0.00101048
0.0010102
0.00100992
0.00100965
0.00100938
0.00100911
0.00100884
0.00100858
0.00100831
0.00100805
0.0010078
0.00100754
0.00100729
0.00100704
0.00100679
0.00100654
0.00100629
0.00100605
0.0010058
0.00100556
0.00100531
0.00100507
0.00100483
0.00100458
0.00100434
0.0010041
0.00100385
0.00100359
0.00100323
0.00101163
0.00101133
0.00101105
0.00101076
0.00101048
0.00101021
0.00100994
0.00100966
0.0010094
0.00100913
0.00100887
0.00100861
0.00100835
0.00100809
0.00100784
0.00100759
0.00100735
0.00100711
0.00100687
0.00100663
0.00100639
0.00100616
0.00100593
0.00100571
0.00100548
0.00100526
0.00100504
0.00100482
0.00100461
0.00100439
0.00100418
0.00100395
0.00100363
0.00101163
0.00101133
0.00101105
0.00101077
0.00101049
0.00101022
0.00100994
0.00100968
0.00100941
0.00100915
0.00100889
0.00100863
0.00100838
0.00100812
0.00100788
0.00100763
0.00100739
0.00100716
0.00100692
0.00100669
0.00100647
0.00100624
0.00100602
0.00100581
0.00100559
0.00100538
0.00100517
0.00100497
0.00100477
0.00100457
0.00100437
0.00100416
0.00100386
0.00101163
0.00101133
0.00101105
0.00101077
0.00101049
0.00101022
0.00100995
0.00100969
0.00100942
0.00100916
0.0010089
0.00100865
0.0010084
0.00100815
0.00100791
0.00100767
0.00100743
0.0010072
0.00100697
0.00100674
0.00100652
0.0010063
0.00100608
0.00100587
0.00100567
0.00100546
0.00100526
0.00100506
0.00100487
0.00100468
0.00100449
0.00100428
0.00100399
0.00101163
0.00101133
0.00101105
0.00101077
0.0010105
0.00101023
0.00100996
0.00100969
0.00100943
0.00100917
0.00100892
0.00100867
0.00100842
0.00100817
0.00100793
0.00100769
0.00100746
0.00100723
0.001007
0.00100678
0.00100656
0.00100635
0.00100614
0.00100593
0.00100572
0.00100552
0.00100533
0.00100513
0.00100495
0.00100476
0.00100457
0.00100438
0.00100409
0.00101163
0.00101133
0.00101105
0.00101077
0.0010105
0.00101023
0.00100996
0.0010097
0.00100944
0.00100918
0.00100893
0.00100868
0.00100843
0.00100819
0.00100795
0.00100772
0.00100749
0.00100726
0.00100704
0.00100682
0.0010066
0.00100639
0.00100618
0.00100597
0.00100577
0.00100557
0.00100538
0.00100519
0.00100501
0.00100482
0.00100464
0.00100445
0.00100416
0.00101163
0.00101133
0.00101105
0.00101077
0.0010105
0.00101023
0.00100997
0.00100971
0.00100945
0.00100919
0.00100894
0.00100869
0.00100845
0.00100821
0.00100797
0.00100774
0.00100751
0.00100728
0.00100706
0.00100684
0.00100663
0.00100642
0.00100621
0.00100601
0.00100581
0.00100562
0.00100542
0.00100524
0.00100505
0.00100487
0.00100469
0.0010045
0.00100422
0.00101163
0.00101133
0.00101105
0.00101077
0.0010105
0.00101023
0.00100997
0.00100971
0.00100945
0.0010092
0.00100895
0.0010087
0.00100846
0.00100822
0.00100798
0.00100775
0.00100753
0.0010073
0.00100708
0.00100687
0.00100665
0.00100644
0.00100624
0.00100604
0.00100584
0.00100565
0.00100546
0.00100527
0.00100509
0.00100491
0.00100474
0.00100455
0.00100427
0.00101163
0.00101133
0.00101105
0.00101077
0.0010105
0.00101024
0.00100997
0.00100971
0.00100946
0.0010092
0.00100895
0.00100871
0.00100847
0.00100823
0.00100799
0.00100776
0.00100754
0.00100731
0.00100709
0.00100688
0.00100667
0.00100646
0.00100626
0.00100606
0.00100586
0.00100567
0.00100548
0.00100529
0.00100511
0.00100493
0.00100476
0.00100457
0.00100429
0.00101163
0.00101133
0.00101105
0.00101077
0.0010105
0.00101024
0.00100997
0.00100971
0.00100946
0.0010092
0.00100895
0.00100871
0.00100847
0.00100823
0.001008
0.00100777
0.00100754
0.00100732
0.0010071
0.00100689
0.00100668
0.00100647
0.00100627
0.00100607
0.00100588
0.00100568
0.0010055
0.00100531
0.00100513
0.00100496
0.00100478
0.00100459
0.00100432
0.00101163
0.00101133
0.00101105
0.00101077
0.0010105
0.00101024
0.00100997
0.00100971
0.00100946
0.0010092
0.00100896
0.00100871
0.00100847
0.00100823
0.001008
0.00100777
0.00100754
0.00100732
0.0010071
0.00100688
0.00100667
0.00100646
0.00100626
0.00100606
0.00100586
0.00100567
0.00100548
0.0010053
0.00100512
0.00100494
0.00100476
0.00100457
0.00100429
0.00101163
0.00101133
0.00101105
0.00101077
0.0010105
0.00101024
0.00100997
0.00100971
0.00100945
0.0010092
0.00100895
0.00100871
0.00100847
0.00100823
0.00100799
0.00100776
0.00100754
0.00100732
0.0010071
0.00100688
0.00100667
0.00100647
0.00100627
0.00100607
0.00100587
0.00100568
0.00100549
0.00100531
0.00100513
0.00100495
0.00100478
0.00100459
0.00100431
0.00101163
0.00101133
0.00101105
0.00101077
0.0010105
0.00101023
0.00100997
0.00100971
0.00100945
0.0010092
0.00100894
0.0010087
0.00100845
0.00100821
0.00100797
0.00100774
0.00100751
0.00100729
0.00100706
0.00100684
0.00100663
0.00100642
0.00100621
0.00100601
0.00100581
0.00100562
0.00100542
0.00100524
0.00100505
0.00100487
0.00100469
0.0010045
0.00100422
0.00101163
0.00101133
0.00101105
0.00101077
0.0010105
0.00101023
0.00100997
0.0010097
0.00100945
0.00100919
0.00100894
0.00100869
0.00100845
0.00100821
0.00100798
0.00100775
0.00100752
0.0010073
0.00100708
0.00100686
0.00100665
0.00100644
0.00100623
0.00100603
0.00100583
0.00100564
0.00100544
0.00100526
0.00100507
0.00100489
0.00100471
0.00100451
0.00100423
0.00101163
0.00101133
0.00101105
0.00101077
0.0010105
0.00101023
0.00100996
0.00100969
0.00100943
0.00100917
0.00100891
0.00100866
0.00100841
0.00100816
0.00100791
0.00100767
0.00100744
0.0010072
0.00100697
0.00100674
0.00100652
0.0010063
0.00100608
0.00100587
0.00100566
0.00100545
0.00100525
0.00100505
0.00100486
0.00100466
0.00100447
0.00100426
0.00100397
0.00101163
0.00101133
0.00101105
0.00101077
0.00101049
0.00101022
0.00100996
0.0010097
0.00100944
0.00100918
0.00100893
0.00100868
0.00100843
0.00100819
0.00100795
0.00100771
0.00100747
0.00100723
0.00100699
0.00100676
0.00100653
0.0010063
0.00100606
0.00100584
0.00100561
0.00100538
0.00100516
0.00100493
0.00100471
0.00100449
0.00100426
0.00100403
0.00100369
0.00101163
0.00101133
0.00101105
0.00101077
0.00101048
0.0010102
0.00100992
0.00100964
0.00100935
0.00100907
0.00100879
0.00100851
0.00100822
0.00100794
0.00100766
0.00100738
0.0010071
0.00100681
0.00100653
0.00100624
0.00100595
0.00100566
0.00100536
0.00100507
0.00100477
0.00100447
0.00100416
0.00100386
0.00100355
0.00100325
0.00100293
0.00100261
0.00100218
0.00101163
0.00101134
0.00101105
0.00101077
0.00101049
0.00101021
0.00100993
0.00100964
0.00100934
0.00100903
0.00100871
0.00100837
0.00100802
0.00100766
0.00100728
0.00100689
0.00100648
0.00100606
0.00100562
0.00100516
0.00100469
0.00100421
0.00100371
0.0010032
0.00100268
0.00100215
0.00100161
0.00100106
0.00100051
0.000999942
0.00099937
0.000998776
0.000998084
0.00101163
0.00101134
0.00101103
0.00101069
0.00101033
0.00100994
0.00100951
0.00100904
0.00100853
0.00100796
0.00100734
0.00100667
0.00100594
0.00100515
0.00100431
0.00100342
0.00100248
0.00100149
0.00100047
0.000999414
0.000998324
0.000997207
0.000996066
0.000994906
0.00099373
0.000992542
0.000991344
0.000990139
0.00098893
0.00098772
0.000986508
0.000985283
0.000983969
0.00101164
0.00101133
0.00101094
0.00101042
0.00100973
0.00100883
0.0010077
0.00100635
0.00100478
0.001003
0.00100104
0.000998909
0.000996631
0.000994228
0.000991719
0.000989125
0.000986463
0.00098375
0.000981
0.000978226
0.00097544
0.000972653
0.000969872
0.000967103
0.000964354
0.00096163
0.000958937
0.000956278
0.000953656
0.000951075
0.000948535
0.000946023
0.000943466
0.00101162
0.0010106
0.00100853
0.00100543
0.0010014
0.000996513
0.00099091
0.000984747
0.000978174
0.000971314
0.000964272
0.000957136
0.000949978
0.000942854
0.000935809
0.000928876
0.000922082
0.000915443
0.000908975
0.000902685
0.000896578
0.000890657
0.000884923
0.000879373
0.000874006
0.000868819
0.000863806
0.000858963
0.000854286
0.000849769
0.000845405
0.000841179
0.000837016
0.00100895
0.000995379
0.000976042
0.000953694
0.00093032
0.000907093
0.000884657
0.000863329
0.000843228
0.000824388
0.000806781
0.000790352
0.000775024
0.00076072
0.000747357
0.00073486
0.000723158
0.000712183
0.000701876
0.000692182
0.000683051
0.000674439
0.000666305
0.000658613
0.000651329
0.000644424
0.000637871
0.000631644
0.000625722
0.000620084
0.00061471
0.00060958
0.000604632
0.000892788
0.000742255
0.000649202
0.00058554
0.000538566
0.000502138
0.000472884
0.000448753
0.000428416
0.000410981
0.000395823
0.000382492
0.000370655
0.000360056
0.0003505
0.000341831
0.000333927
0.000326686
0.000320026
0.000313879
0.000308188
0.000302904
0.000297984
0.000293395
0.000289104
0.000285084
0.000281313
0.000277768
0.000274431
0.000271286
0.000268318
0.000265514
0.000262862
0.000126722
0.000129956
0.000133005
0.000135891
0.000138628
0.00014123
0.000143705
0.000146063
0.000148309
0.00015045
0.000152489
0.000154433
0.000156285
0.00015805
0.000159732
0.000161334
0.00016286
0.000164313
0.000165696
0.000167014
0.000168268
0.000169462
0.000170599
0.00017168
0.00017271
0.000173689
0.000174621
0.000175508
0.000176352
0.000177155
0.000177919
0.000178647
0.000179344
8.54713e-05
0.00011534
0.000145829
0.00017603
0.000203013
0.00022673
0.000248151
0.000268326
0.000288131
0.00030812
0.000328525
0.000349355
0.000370617
0.000392255
0.000414131
0.000436015
0.000457652
0.000479056
0.000500157
0.000521033
0.000541725
0.000562244
0.000582633
0.000602993
0.000623473
0.000644227
0.000665383
0.000687041
0.000709278
0.000732175
0.000755814
0.000780282
0.000805646
0.000831948
0.000859206
0.000887416
0.000916555
0.000946583
0.000977439
0.00100904
0.00104131
0.00107413
0.00110739
0.00114099
0.00117479
0.00120869
0.00124256
0.0012763
0.00130979
0.00134295
0.00137568
0.00140791
0.00143956
0.00147059
0.00150094
0.00153058
0.00155948
0.00158765
0.00161507
0.00164178
0.00166779
0.00169315
0.00171792
0.00174216
0.00176595
0.00178936
0.00181248
0.00183541
0.00185822
0.00188102
0.0019039
0.00192694
0.00195022
0.00197382
0.00199779
0.00202218
0.00204701
0.00207224
0.00209785
0.00212373
0.00214982
0.00217602
0.00220223
0.00222837
0.00225431
0.00227995
0.00230516
0.00232983
0.00235383
0.00237706
0.0023994
0.00242077
0.0024411
0.0024604
0.0024788
0.00249674
0.00251512
0.0025361
0.00256323
0.00261205
7.83544e-05
8.4748e-05
9.52681e-05
0.000110477
0.000129517
0.000151343
0.000174474
0.000197729
0.000220501
0.000242552
0.000263911
0.000284778
0.000305449
0.000326198
0.000347179
0.000368379
0.000389668
0.000410955
0.000432285
0.000453577
0.000474778
0.000495844
0.000516748
0.000537513
0.000558212
0.000578946
0.000599823
0.000620932
0.000642349
0.000664145
0.0006864
0.000709196
0.000732615
0.000756723
0.000781571
0.000807189
0.000833595
0.000860788
0.00088875
0.000917447
0.000946829
0.00097683
0.00100738
0.00103838
0.00106975
0.00110138
0.00113317
0.00116503
0.00119685
0.00122854
0.00126001
0.00129118
0.00132198
0.00135234
0.00138222
0.00141157
0.00144036
0.00146859
0.00149626
0.00152336
0.00154994
0.00157602
0.00160166
0.00162692
0.00165186
0.00167656
0.00170109
0.00172553
0.00174996
0.00177446
0.00179911
0.00182398
0.00184914
0.00187464
0.00190053
0.00192684
0.00195357
0.00198071
0.00200819
0.00203594
0.00206386
0.00209187
0.00211985
0.00214772
0.00217536
0.00220265
0.00222949
0.00225574
0.00228129
0.00230604
0.00232988
0.00235272
0.00237451
0.00239527
0.0024151
0.00243445
0.00245413
0.00247613
0.00250354
0.00254812
0.00013774
0.000137411
0.000137919
0.000139209
0.000141093
0.000143454
0.000147853
0.000155311
0.000165945
0.00017923
0.00019474
0.000212054
0.000230775
0.000250549
0.000271061
0.000292021
0.000313143
0.000334241
0.000355433
0.00037669
0.000397962
0.000419192
0.000440324
0.000461333
0.000482231
0.000503062
0.000523886
0.000544764
0.000565755
0.00058692
0.000608328
0.000630056
0.000652183
0.000674785
0.000697928
0.000721669
0.00074605
0.0007711
0.000796835
0.000823255
0.000850344
0.000878073
0.000906395
0.000935255
0.000964584
0.000994304
0.00102433
0.00105458
0.00108496
0.00111538
0.00114576
0.00117603
0.00120611
0.00123594
0.00126547
0.00129466
0.00132348
0.00135191
0.00137995
0.00140761
0.00143491
0.00146187
0.00148855
0.00151499
0.00154125
0.00156738
0.00159346
0.00161955
0.00164571
0.00167201
0.00169852
0.00172527
0.00175234
0.00177976
0.00180756
0.00183576
0.00186436
0.00189332
0.00192258
0.00195206
0.00198168
0.00201132
0.0020409
0.00207031
0.00209944
0.00212818
0.00215642
0.00218403
0.00221092
0.00223697
0.00226209
0.00228619
0.00230923
0.00233123
0.0023523
0.00237286
0.00239365
0.00241645
0.00244392
0.00248374
0.000281176
0.000277079
0.000273359
0.00027002
0.000266867
0.000263277
0.000258702
0.000252994
0.000246321
0.000240651
0.000236871
0.000235466
0.000236824
0.000241113
0.000248273
0.000258059
0.000270086
0.000283926
0.000299265
0.000315861
0.000333435
0.000351725
0.000370509
0.000389622
0.000408962
0.000428479
0.000448155
0.000467993
0.000488003
0.000508207
0.000528634
0.000549329
0.000570343
0.000591732
0.000613552
0.000635854
0.000658687
0.000682089
0.000706092
0.000730715
0.000755966
0.00078184
0.000808318
0.00083537
0.000862952
0.000891011
0.000919486
0.000948307
0.000977402
0.0010067
0.00103612
0.00106561
0.00109508
0.0011245
0.0011538
0.00118296
0.00121193
0.0012407
0.00126926
0.00129761
0.00132577
0.00135376
0.00138161
0.00140935
0.00143704
0.00146472
0.00149244
0.00152024
0.00154819
0.00157632
0.00160469
0.00163333
0.00166227
0.00169155
0.00172117
0.00175115
0.00178147
0.00181209
0.00184295
0.00187396
0.00190504
0.00193609
0.001967
0.00199769
0.00202804
0.00205794
0.0020873
0.002116
0.00214393
0.002171
0.00219713
0.00222223
0.00224626
0.00226925
0.00229131
0.00231284
0.0023345
0.00235785
0.00238514
0.00241968
0.000436014
0.000430298
0.000424733
0.000419452
0.000414494
0.000409774
0.000405057
0.000399965
0.000394
0.000386868
0.000378718
0.000369935
0.000360862
0.000351966
0.000343795
0.000336892
0.000331724
0.000328605
0.000327816
0.000329508
0.000333644
0.000340072
0.000348573
0.000358898
0.000370798
0.000384044
0.000398431
0.000413785
0.000429959
0.000446841
0.00046435
0.000482436
0.000501075
0.00052026
0.000539996
0.000560295
0.000581176
0.000602655
0.000624752
0.000647482
0.000670855
0.000694872
0.000719529
0.00074481
0.000770691
0.000797136
0.000824104
0.000851544
0.000879399
0.000907611
0.000936118
0.000964862
0.000993786
0.00102284
0.00105197
0.00108114
0.00111032
0.00113948
0.00116861
0.00119771
0.00122678
0.00125583
0.00128487
0.00131394
0.00134307
0.00137228
0.0014016
0.00143108
0.00146074
0.00149062
0.00152073
0.0015511
0.00158176
0.0016127
0.00164394
0.00167546
0.00170723
0.00173923
0.00177138
0.0018036
0.0018358
0.0018679
0.0018998
0.0019314
0.00196261
0.00199332
0.00202345
0.00205288
0.00208152
0.00210928
0.00213609
0.00216187
0.00218659
0.00221028
0.00223305
0.00225526
0.00227752
0.00230114
0.00232797
0.0023568
0.000579025
0.000572595
0.000566233
0.000560008
0.000553988
0.0005482
0.000542663
0.000537352
0.000532144
0.000526844
0.000521225
0.000515215
0.000508616
0.000501286
0.000493145
0.000484193
0.00047454
0.000464391
0.000454134
0.000444269
0.000435282
0.000427609
0.0004216
0.000417511
0.000415502
0.000415645
0.000417928
0.000422276
0.000428566
0.000436648
0.000446363
0.000457559
0.0004701
0.000483865
0.000498755
0.00051469
0.000531606
0.000549455
0.000568203
0.00058782
0.000608286
0.00062958
0.000651682
0.000674568
0.000698212
0.00072258
0.000747634
0.000773332
0.000799624
0.00082646
0.000853784
0.000881544
0.000909685
0.000938157
0.000966913
0.000995911
0.00102511
0.00105449
0.00108403
0.0011137
0.0011435
0.00117342
0.00120348
0.00123368
0.00126403
0.00129454
0.00132523
0.00135612
0.00138721
0.00141852
0.00145005
0.00148181
0.00151381
0.00154603
0.00157846
0.00161109
0.00164389
0.00167681
0.00170978
0.00174275
0.00177561
0.00180829
0.00184071
0.00187277
0.00190438
0.00193547
0.00196594
0.00199569
0.00202465
0.00205272
0.00207985
0.00210597
0.00213104
0.00215511
0.00217827
0.00220087
0.00222341
0.002247
0.00227311
0.0022959
0.000701047
0.000694453
0.00068796
0.000681542
0.000675279
0.000669197
0.00066332
0.000657671
0.000652234
0.000646989
0.000641888
0.000636894
0.000631933
0.000626895
0.000621644
0.000616024
0.000609869
0.000603017
0.000595344
0.00058685
0.000577607
0.000567782
0.000557626
0.00054746
0.000537645
0.000528555
0.000520539
0.000513902
0.00050888
0.000505641
0.000504287
0.000504858
0.000507349
0.000511717
0.000517895
0.000525799
0.00053534
0.000546428
0.000558978
0.000572912
0.000588158
0.000604653
0.000622338
0.000641158
0.000661061
0.000681995
0.000703906
0.000726741
0.000750443
0.000774957
0.000800222
0.000826181
0.000852776
0.00087995
0.000907651
0.000935827
0.000964433
0.000993428
0.00102278
0.00105245
0.00108242
0.00111267
0.00114318
0.00117395
0.00120496
0.0012362
0.00126768
0.00129938
0.0013313
0.00136343
0.00139575
0.00142826
0.00146095
0.00149379
0.00152676
0.00155985
0.00159301
0.0016262
0.00165936
0.00169244
0.00172535
0.00175803
0.00179039
0.00182237
0.00185389
0.00188486
0.00191521
0.00194485
0.00197371
0.00200172
0.0020288
0.00205491
0.00208001
0.00210414
0.0021274
0.00215009
0.00217263
0.0021959
0.00222104
0.00223763
0.000798149
0.000792013
0.000785945
0.000779924
0.000773977
0.000768116
0.000762357
0.00075673
0.000751262
0.000745971
0.000740873
0.000735978
0.000731286
0.000726783
0.000722433
0.000718182
0.00071395
0.000709635
0.000705108
0.000700247
0.00069493
0.000689066
0.000682576
0.000675445
0.000667725
0.000659536
0.000651057
0.000642517
0.000634177
0.000626309
0.00061918
0.000613038
0.000608101
0.00060455
0.000602524
0.000602121
0.0006034
0.000606391
0.000611096
0.000617498
0.000625566
0.000635259
0.000646528
0.000659319
0.000673576
0.00068924
0.00070625
0.000724541
0.000744049
0.000764708
0.000786451
0.000809209
0.000832916
0.000857503
0.000882907
0.000909063
0.000935912
0.000963395
0.000991461
0.00102006
0.00104915
0.00107868
0.00110862
0.00113894
0.00116961
0.00120059
0.00123186
0.00126338
0.00129514
0.00132711
0.00135925
0.00139155
0.00142398
0.00145652
0.00148913
0.00152179
0.00155446
0.00158711
0.00161969
0.00165214
0.0016844
0.00171642
0.00174813
0.00177946
0.00181036
0.00184074
0.00187054
0.00189968
0.00192808
0.00195569
0.00198243
0.00200825
0.00203312
0.00205708
0.00208019
0.00210274
0.00212506
0.0021478
0.0021718
0.00218229
0.000870887
0.000865604
0.000860342
0.000855102
0.000849871
0.000844671
0.000839518
0.00083443
0.000829427
0.000824528
0.000819745
0.000815085
0.000810568
0.000806214
0.000802037
0.000798044
0.000794232
0.000790586
0.000787071
0.000783625
0.000780194
0.000776707
0.000773084
0.000769246
0.000765125
0.000760674
0.000755874
0.000750744
0.000745343
0.000739722
0.000734001
0.000728336
0.000722904
0.000717895
0.000713494
0.000709879
0.000707215
0.000705648
0.000705303
0.000706282
0.000708665
0.000712511
0.00071786
0.000724731
0.000733133
0.000743056
0.000754481
0.000767379
0.00078171
0.000797428
0.000814482
0.000832812
0.000852357
0.000873052
0.000894828
0.000917618
0.000941353
0.000965963
0.000991383
0.00101755
0.00104439
0.00107186
0.00109989
0.00112843
0.00115743
0.00118684
0.00121661
0.00124669
0.00127704
0.00130763
0.0013384
0.00136934
0.0014004
0.00143155
0.00146277
0.00149403
0.0015253
0.00155655
0.00158774
0.00161883
0.00164977
0.00168052
0.00171103
0.00174124
0.0017711
0.00180053
0.00182947
0.00185785
0.00188559
0.00191261
0.00193886
0.00196428
0.00198882
0.00201251
0.0020354
0.00205773
0.00207975
0.00210187
0.00212472
0.00212957
0.000921864
0.000917653
0.000913422
0.000909175
0.000904908
0.000900622
0.000896334
0.000892053
0.000887789
0.000883555
0.000879362
0.000875223
0.000871153
0.000867167
0.000863285
0.000859524
0.000855902
0.000852437
0.000849141
0.000846016
0.000843065
0.000840271
0.000837613
0.000835064
0.000832587
0.000830144
0.000827695
0.000825206
0.000822654
0.000820023
0.000817318
0.000814561
0.000811802
0.000809119
0.00080656
0.000804224
0.000802228
0.000800697
0.000799753
0.000799518
0.00080011
0.000801635
0.00080419
0.000807858
0.000812711
0.000818805
0.000826181
0.000834869
0.000844883
0.000856227
0.000868891
0.000882854
0.000898088
0.000914554
0.000932206
0.000950992
0.000970853
0.000991729
0.00101356
0.00103627
0.00105979
0.00108407
0.00110903
0.00113462
0.00116075
0.00118739
0.00121446
0.00124191
0.0012697
0.00129776
0.00132607
0.00135458
0.00138325
0.00141206
0.00144099
0.00147001
0.00149909
0.00152823
0.0015574
0.00158656
0.0016157
0.00164477
0.00167373
0.00170255
0.00173115
0.00175949
0.00178749
0.00181508
0.00184217
0.00186868
0.00189454
0.00191967
0.00194402
0.00196759
0.00199041
0.00201267
0.00203452
0.00205618
0.00207808
0.00207825
0.000955744
0.000952591
0.000949392
0.000946151
0.000942873
0.000939552
0.000936197
0.000932813
0.000929409
0.000925994
0.000922575
0.00091916
0.000915755
0.000912367
0.000909011
0.000905702
0.000902459
0.000899301
0.000896244
0.000893305
0.000890507
0.000887867
0.000885397
0.000883107
0.000881003
0.000879084
0.000877345
0.000875776
0.000874365
0.000873098
0.000871963
0.000870953
0.000870068
0.000869318
0.00086872
0.000868302
0.00086809
0.00086812
0.000868454
0.000869162
0.000870325
0.000872023
0.00087434
0.000877356
0.00088115
0.000885795
0.000891354
0.000897887
0.00090544
0.000914051
0.000923747
0.000934545
0.000946451
0.000959459
0.000973557
0.000988719
0.00100491
0.0010221
0.00104024
0.00105927
0.00107914
0.00109979
0.00112117
0.00114322
0.00116586
0.00118905
0.00121273
0.00123685
0.00126135
0.0012862
0.00131134
0.00133675
0.00136241
0.00138828
0.00141435
0.00144062
0.00146707
0.0014937
0.00152049
0.00154745
0.00157456
0.00160178
0.0016291
0.00165648
0.00168387
0.00171121
0.00173842
0.00176543
0.00179214
0.00181845
0.00184427
0.0018695
0.00189408
0.00191796
0.00194113
0.00196374
0.00198585
0.0020075
0.00202896
0.00202598
0.000976687
0.000974454
0.000972165
0.000969824
0.000967435
0.000965
0.000962515
0.000959986
0.000957417
0.000954814
0.000952179
0.000949516
0.000946828
0.000944122
0.000941403
0.000938679
0.000935962
0.000933266
0.000930605
0.000927996
0.00092546
0.000923022
0.000920698
0.000918512
0.000916483
0.00091463
0.000912971
0.000911517
0.00091028
0.000909267
0.000908481
0.000907925
0.000907601
0.00090751
0.000907656
0.000908047
0.000908683
0.000909569
0.000910726
0.000912183
0.000913976
0.000916149
0.000918748
0.000921824
0.00092543
0.00092962
0.000934447
0.000939963
0.000946215
0.000953248
0.000961098
0.000969796
0.000979365
0.000989822
0.00100117
0.00101341
0.00102654
0.00104052
0.00105535
0.00107099
0.0010874
0.00110454
0.00112237
0.00114084
0.0011599
0.00117952
0.00119963
0.0012202
0.0012412
0.00126258
0.00128432
0.0013064
0.00132879
0.0013515
0.00137451
0.00139784
0.00142148
0.00144545
0.00146977
0.00149443
0.00151945
0.00154481
0.00157051
0.00159653
0.00162282
0.00164933
0.00167599
0.00170271
0.00172939
0.00175592
0.00178218
0.00180805
0.00183341
0.00185821
0.00188238
0.001906
0.00192904
0.00195139
0.0019732
0.00196919
0.000989089
0.00098756
0.000985979
0.000984348
0.00098267
0.000980945
0.000979173
0.000977355
0.000975493
0.000973591
0.000971648
0.000969668
0.00096765
0.000965598
0.000963513
0.000961399
0.000959262
0.000957107
0.000954945
0.000952786
0.000950643
0.000948536
0.00094648
0.000944495
0.000942602
0.000940823
0.00093918
0.000937694
0.000936384
0.00093527
0.000934367
0.00093369
0.000933244
0.000933037
0.000933075
0.000933368
0.000933924
0.000934751
0.000935858
0.000937258
0.000938966
0.000941002
0.00094339
0.000946156
0.00094933
0.000952944
0.000957032
0.000961628