/*--------------------------------*- C++ -*----------------------------------*\
| =========                 |                                                 |
| \\      /  F ield         | OpenFOAM: The Open Source CFD Toolbox           |
|  \\    /   O peration     | Version:  4.1                                   |
|   \\  /    A nd           | Web:      www.OpenFOAM.org                      |
|    \\/     M anipulation  |                                                 |
\*---------------------------------------------------------------------------*/
FoamFile
{
    version     2.0;
    format      ascii;
    class       volScalarField;
    location    "1700";
    object      p;
}
// * * * * * * * * * * * * * * * * * * * * * * * * * * * * * * * * * * * * * //

dimensions      [0 2 -2 0 0 0 0];

internalField   nonuniform List<scalar> 
6820
(
-8.24327
-8.50083
-8.59845
-8.61917
-8.65241
-8.69774
-8.73937
-8.77556
-8.80929
-8.84143
-8.87151
-8.89943
-8.92542
-8.94976
-8.97263
-8.99418
-9.01459
-9.03399
-9.05254
-9.07034
-9.0875
-9.10412
-9.12028
-9.13605
-9.1515
-9.1667
-9.18171
-9.19657
-9.21139
-9.22602
-9.24142
-9.25528
-9.28541
-8.35606
-8.52211
-8.60084
-8.62173
-8.64867
-8.68394
-8.71557
-8.74251
-8.76783
-8.79259
-8.81649
-8.83939
-8.86147
-8.88287
-8.90364
-8.92383
-8.94347
-8.96263
-8.98133
-8.99963
-9.01756
-9.03516
-9.05246
-9.0695
-9.08632
-9.10295
-9.11942
-9.13578
-9.15208
-9.16831
-9.1847
-9.20122
-9.21793
-8.41232
-8.51702
-8.59505
-8.62697
-8.65518
-8.6884
-8.71886
-8.74519
-8.76984
-8.79378
-8.8168
-8.83879
-8.85988
-8.88021
-8.89985
-8.91885
-8.93726
-8.95514
-8.97256
-8.98955
-9.00618
-9.02247
-9.03847
-9.05422
-9.06977
-9.08514
-9.10038
-9.11551
-9.13061
-9.14564
-9.16082
-9.17571
-9.19124
-8.4621
-8.5371
-8.60975
-8.64492
-8.6724
-8.70398
-8.73402
-8.76037
-8.78478
-8.80821
-8.83059
-8.85185
-8.87215
-8.89164
-8.91043
-8.92858
-8.94616
-8.96325
-8.9799
-8.99616
-9.01208
-9.0277
-9.04307
-9.05821
-9.07317
-9.08798
-9.10268
-9.11729
-9.13186
-9.14641
-9.161
-9.17558
-9.19023
-8.50359
-8.55482
-8.61504
-8.6499
-8.67715
-8.70741
-8.73667
-8.7627
-8.78686
-8.81007
-8.83235
-8.85364
-8.87405
-8.89373
-8.91274
-8.93114
-8.94898
-8.96632
-8.98322
-8.99971
-9.01583
-9.03163
-9.04715
-9.06241
-9.07747
-9.09234
-9.10706
-9.12167
-9.13621
-9.15069
-9.16519
-9.1797
-9.1943
-8.53838
-8.57423
-8.62508
-8.66037
-8.68803
-8.71709
-8.74545
-8.77118
-8.79514
-8.81815
-8.84023
-8.86133
-8.88154
-8.901
-8.91977
-8.93791
-8.95548
-8.97254
-8.98915
-9.00535
-9.02118
-9.03669
-9.05191
-9.06689
-9.08165
-9.09624
-9.11067
-9.12499
-9.13923
-9.15342
-9.1676
-9.18183
-9.19616
-8.56822
-8.59378
-8.63568
-8.66886
-8.69534
-8.72244
-8.74935
-8.77429
-8.79767
-8.82014
-8.84177
-8.86253
-8.88249
-8.90176
-8.92041
-8.93847
-8.95601
-8.97308
-8.98971
-9.00596
-9.02185
-9.03742
-9.0527
-9.06774
-9.08255
-9.09716
-9.11162
-9.12593
-9.14015
-9.15428
-9.16837
-9.18247
-9.19662
-8.59416
-8.61274
-8.64716
-8.67801
-8.70374
-8.72962
-8.75554
-8.77995
-8.80297
-8.82512
-8.84649
-8.86706
-8.88687
-8.906
-8.92452
-8.94246
-8.95988
-8.97681
-8.99331
-9.00941
-9.02514
-9.04055
-9.05565
-9.0705
-9.08511
-9.09951
-9.11373
-9.12779
-9.14173
-9.15557
-9.16934
-9.18306
-9.19675
-8.61701
-8.63085
-8.65915
-8.68725
-8.71171
-8.73602
-8.76049
-8.78391
-8.80619
-8.82769
-8.84851
-8.86862
-8.88805
-8.90685
-8.92509
-8.9428
-8.96002
-8.97679
-8.99314
-9.00912
-9.02475
-9.04006
-9.05508
-9.06984
-9.08437
-9.09868
-9.1128
-9.12676
-9.14056
-9.15424
-9.16781
-9.18128
-9.19468
-8.63739
-8.64793
-8.67128
-8.69659
-8.71968
-8.74262
-8.76587
-8.78849
-8.8102
-8.83124
-8.85168
-8.87149
-8.89067
-8.90929
-8.92736
-8.94493
-8.96203
-8.97869
-8.99493
-9.0108
-9.02632
-9.04151
-9.0564
-9.07101
-9.08538
-9.09951
-9.11344
-9.12717
-9.14072
-9.15411
-9.16735
-9.18045
-9.19337
-8.65572
-8.66392
-8.68334
-8.70598
-8.72758
-8.74915
-8.77112
-8.79274
-8.81369
-8.83407
-8.85393
-8.87325
-8.89202
-8.91026
-8.92801
-8.94529
-8.96213
-8.97855
-8.99458
-9.01024
-9.02557
-9.04058
-9.05529
-9.06973
-9.08392
-9.09787
-9.1116
-9.12512
-9.13845
-9.15159
-9.16455
-9.17732
-9.18991
-8.67233
-8.67885
-8.69513
-8.71531
-8.73538
-8.75563
-8.77638
-8.79705
-8.81728
-8.83706
-8.85643
-8.87534
-8.89377
-8.91173
-8.92925
-8.94632
-8.96298
-8.97924
-8.99512
-9.01065
-9.02584
-9.04071
-9.05528
-9.06957
-9.0836
-9.09737
-9.11091
-9.12421
-9.1373
-9.15016
-9.16281
-9.17522
-9.18738
-8.68747
-8.69273
-8.70652
-8.72449
-8.74306
-8.76204
-8.78161
-8.80132
-8.82077
-8.83989
-8.85869
-8.8771
-8.8951
-8.91268
-8.92985
-8.94662
-8.96299
-8.97899
-8.99462
-9.00991
-9.02487
-9.03952
-9.05387
-9.06794
-9.08174
-9.09527
-9.10856
-9.1216
-9.13441
-9.14697
-9.1593
-9.17137
-9.18317
-8.7013
-8.7056
-8.71741
-8.73343
-8.75057
-8.76833
-8.78679
-8.80554
-8.82422
-8.8427
-8.86093
-8.87887
-8.89646
-8.91369
-8.93055
-8.94705
-8.96319
-8.97897
-8.9944
-9.0095
-9.02428
-9.03875
-9.05292
-9.06681
-9.08041
-9.09375
-9.10682
-9.11963
-9.13219
-9.14448
-9.1565
-9.16824
-9.17967
-8.71396
-8.71752
-8.72772
-8.74206
-8.75785
-8.77446
-8.79186
-8.8097
-8.82761
-8.84543
-8.86309
-8.88052
-8.89768
-8.91452
-8.93103
-8.9472
-8.96304
-8.97855
-8.99372
-9.00857
-9.0231
-9.03733
-9.05125
-9.06489
-9.07824
-9.09132
-9.10412
-9.11665
-9.12891
-9.14088
-9.15258
-9.16398
-9.17506
-8.72554
-8.72852
-8.73743
-8.75032
-8.76486
-8.7804
-8.7968
-8.81376
-8.83092
-8.84809
-8.86518
-8.88212
-8.89884
-8.91529
-8.93146
-8.94732
-8.96288
-8.97812
-8.99304
-9.00766
-9.02197
-9.03598
-9.04969
-9.06311
-9.07624
-9.08908
-9.10165
-9.11393
-9.12592
-9.13762
-9.14902
-9.16011
-9.17086
-8.73613
-8.73863
-8.74648
-8.75813
-8.77155
-8.78608
-8.80157
-8.81769
-8.83412
-8.85066
-8.86719
-8.88363
-8.89991
-8.91597
-8.93177
-8.94731
-8.96256
-8.97751
-8.99216
-9.00651
-9.02057
-9.03432
-9.04777
-9.06094
-9.0738
-9.08638
-9.09867
-9.11066
-9.12236
-9.13375
-9.14484
-9.15561
-9.16604
-8.74576
-8.74789
-8.75486
-8.76545
-8.77787
-8.79148
-8.80611
-8.82145
-8.83719
-8.85312
-8.8691
-8.88506
-8.90089
-8.91656
-8.93201
-8.94721
-8.96216
-8.97682
-8.99121
-9.0053
-9.0191
-9.03261
-9.04582
-9.05873
-9.07136
-9.08368
-9.09571
-9.10745
-9.11887
-9.12999
-9.14079
-9.15127
-9.16141
-8.75448
-8.75629
-8.76255
-8.77223
-8.78376
-8.79655
-8.81039
-8.825
-8.84009
-8.85543
-8.87089
-8.88637
-8.90178
-8.91705
-8.93214
-8.94702
-8.96165
-8.97603
-8.99013
-9.00395
-9.01749
-9.03073
-9.04368
-9.05634
-9.0687
-9.08075
-9.09251
-9.10396
-9.1151
-9.12593
-9.13644
-9.14662
-9.15647
-8.76231
-8.76386
-8.76953
-8.77844
-8.7892
-8.80123
-8.81436
-8.82831
-8.84279
-8.85758
-8.87254
-8.88756
-8.90255
-8.91745
-8.93218
-8.94673
-8.96106
-8.97514
-8.98896
-9.00251
-9.01578
-9.02877
-9.04146
-9.05386
-9.06596
-9.07776
-9.08926
-9.10045
-9.11132
-9.12188
-9.13211
-9.14202
-9.15159
-8.76925
-8.77059
-8.77577
-8.78404
-8.79412
-8.8055
-8.81799
-8.83133
-8.84525
-8.85952
-8.87402
-8.8886
-8.9032
-8.91772
-8.93212
-8.94634
-8.96036
-8.97415
-8.9877
-9.00097
-9.01398
-9.0267
-9.03914
-9.05127
-9.06311
-9.07465
-9.08588
-9.0968
-9.1074
-9.11769
-9.12766
-9.1373
-9.1466
-8.77531
-8.77648
-8.78125
-8.78899
-8.7985
-8.8093
-8.82123
-8.83403
-8.84744
-8.86124
-8.87529
-8.88948
-8.90369
-8.91786
-8.93193
-8.94584
-8.95956
-8.97307
-8.98633
-8.99934
-9.01208
-9.02455
-9.03672
-9.0486
-9.06018
-9.07146
-9.08243
-9.09309
-9.10344
-9.11347
-9.12317
-9.13256
-9.1416
-8.78047
-8.7815
-8.78595
-8.79325
-8.80228
-8.81259
-8.82403
-8.83636
-8.84932
-8.8627
-8.87635
-8.89016
-8.90402
-8.91785
-8.9316
-8.94521
-8.95865
-8.97187
-8.98487
-8.99762
-9.0101
-9.0223
-9.03422
-9.04585
-9.05718
-9.06821
-9.07893
-9.08933
-9.09943
-9.1092
-9.11866
-9.1278
-9.1366
-8.7847
-8.78563
-8.78982
-8.79678
-8.80542
-8.81533
-8.82636
-8.83829
-8.85085
-8.86385
-8.87714
-8.89061
-8.90415
-8.91767
-8.93112
-8.94445
-8.9576
-8.97056
-8.98329
-8.99578
-9.00801
-9.01996
-9.03163
-9.043
-9.05408
-9.06486
-9.07533
-9.08548
-9.09533
-9.10486
-9.11407
-9.12296
-9.13153
-8.78798
-8.78883
-8.79283
-8.79953
-8.80788
-8.81747
-8.82817
-8.83975
-8.85199
-8.86466
-8.87764
-8.8908
-8.90405
-8.91729
-8.93046
-8.94352
-8.95641
-8.96912
-8.9816
-8.99384
-9.00582
-9.01753
-9.02896
-9.0401
-9.05094
-9.06148
-9.07171
-9.08164
-9.09125
-9.10055
-9.10953
-9.1182
-9.12655
-8.79024
-8.79104
-8.79492
-8.80144
-8.80957
-8.81893
-8.82938
-8.8407
-8.85267
-8.86508
-8.87779
-8.89069
-8.90367
-8.91665
-8.92957
-8.94238
-8.95502
-8.96748
-8.97972
-8.99171
-9.00345
-9.01492
-9.02611
-9.037
-9.0476
-9.0579
-9.06789
-9.07758
-9.08695
-9.09601
-9.10477
-9.11321
-9.12134
-8.7914
-8.79219
-8.796
-8.80242
-8.81043
-8.81965
-8.82992
-8.84106
-8.85283
-8.86503
-8.87753
-8.8902
-8.90296
-8.91572
-8.92842
-8.941
-8.95343
-8.96566
-8.97768
-8.98946
-9.00098
-9.01223
-9.0232
-9.03388
-9.04427
-9.05436
-9.06414
-9.07361
-9.08278
-9.09164
-9.10019
-9.10843
-9.11635
-8.79141
-8.79221
-8.79603
-8.80244
-8.81043
-8.8196
-8.8298
-8.84083
-8.85247
-8.86453
-8.87686
-8.88936
-8.90193
-8.9145
-8.92699
-8.93936
-8.95157
-8.96358
-8.97537
-8.98693
-8.99822
-9.00924
-9.01998
-9.03043
-9.04059
-9.05044
-9.05999
-9.06923
-9.07817
-9.08681
-9.09514
-9.10317
-9.1109
-8.79016
-8.79101
-8.79492
-8.80145
-8.80953
-8.81876
-8.82898
-8.84
-8.8516
-8.86358
-8.87582
-8.88821
-8.90065
-8.91307
-8.9254
-8.93761
-8.94966
-8.9615
-8.97312
-8.9845
-8.99561
-9.00645
-9.01701
-9.02728
-9.03725
-9.04692
-9.05629
-9.06536
-9.07412
-9.08257
-9.09072
-9.09857
-9.1061
-8.78753
-8.78848
-8.79259
-8.79935
-8.80767
-8.81708
-8.82743
-8.83854
-8.85017
-8.86215
-8.87433
-8.88663
-8.89895
-8.91123
-8.92341
-8.93545
-8.9473
-8.95895
-8.97036
-8.98153
-8.99243
-9.00305
-9.01339
-9.02344
-9.03319
-9.04264
-9.05179
-9.06064
-9.06918
-9.07743
-9.08538
-9.09304
-9.10041
-8.78333
-8.78445
-8.78889
-8.79607
-8.80477
-8.81451
-8.82512
-8.83644
-8.84823
-8.86031
-8.87256
-8.88488
-8.8972
-8.90944
-8.92156
-8.93352
-8.94528
-8.95682
-8.96812
-8.97916
-8.98993
-9.00041
-9.01061
-9.02051
-9.03011
-9.03941
-9.04841
-9.0571
-9.06549
-9.07358
-9.08136
-9.08884
-9.096
-8.77734
-8.77871
-8.78367
-8.79149
-8.80079
-8.811
-8.82199
-8.83359
-8.84558
-8.85776
-8.87004
-8.88235
-8.8946
-8.90675
-8.91875
-8.93056
-8.94217
-8.95353
-8.96465
-8.9755
-8.98608
-8.99637
-9.00636
-9.01606
-9.02546
-9.03456
-9.04336
-9.05185
-9.06005
-9.06795
-9.07557
-9.0829
-9.08996
-8.76922
-8.77097
-8.77674
-8.78552
-8.79566
-8.80658
-8.8182
-8.83035
-8.84278
-8.85531
-8.86785
-8.88033
-8.89271
-8.90493
-8.91695
-8.92876
-8.94032
-8.95164
-8.96268
-8.97344
-8.98391
-8.99409
-9.00397
-9.01354
-9.02281
-9.03178
-9.04044
-9.04879
-9.05684
-9.06459
-9.07204
-9.07917
-9.08599
-8.75851
-8.76086
-8.7679
-8.77805
-8.78923
-8.80086
-8.81304
-8.82562
-8.83834
-8.85106
-8.86371
-8.87625
-8.88862
-8.90081
-8.91276
-8.92448
-8.93593
-8.94711
-8.95801
-8.96862
-8.97894
-8.98895
-8.99867
-9.00808
-9.01718
-9.02598
-9.03448
-9.04267
-9.05057
-9.05818
-9.0655
-9.07255
-9.07934
-8.74451
-8.74782
-8.75689
-8.76924
-8.78217
-8.79522
-8.80861
-8.82215
-8.83558
-8.84879
-8.86179
-8.87457
-8.88709
-8.89935
-8.91133
-8.92303
-8.93444
-8.94555
-8.95636
-8.96687
-8.97707
-8.98695
-8.99653
-9.0058
-9.01476
-9.0234
-9.03174
-9.03977
-9.0475
-9.05492
-9.06205
-9.06886
-9.07536
-8.72611
-8.7312
-8.74329
-8.75779
-8.77175
-8.78561
-8.7999
-8.81421
-8.82816
-8.84176
-8.85505
-8.86803
-8.88069
-8.89301
-8.905
-8.91667
-8.92802
-8.93906
-8.94977
-8.96017
-8.97026
-8.98003
-8.98949
-8.99864
-9.00748
-9.01602
-9.02425
-9.03218
-9.03982
-9.04716
-9.05422
-9.06101
-9.06754
-8.70119
-8.71034
-8.72973
-8.74947
-8.76591
-8.7813
-8.79682
-8.81194
-8.82631
-8.84011
-8.85349
-8.86649
-8.87909
-8.89132
-8.9032
-8.91474
-8.92593
-8.9368
-8.94734
-8.95755
-8.96743
-8.977
-8.98625
-8.99518
-9.0038
-9.01211
-9.02011
-9.02781
-9.03522
-9.04232
-9.04914
-9.05566
-9.06189
-8.66625
-8.6799
-8.70553
-8.72879
-8.74775
-8.76577
-8.7834
-8.79985
-8.81507
-8.82944
-8.84321
-8.85641
-8.86909
-8.88131
-8.89313
-8.90459
-8.91569
-8.92645
-8.93689
-8.94701
-8.95682
-8.96632
-8.97551
-8.9844
-8.99299
-9.00128
-9.00927
-9.01696
-9.02436
-9.03147
-9.03827
-9.04476
-9.05091
-8.61885
-8.66651
-8.70589
-8.72616
-8.74243
-8.76078
-8.77875
-8.79469
-8.80925
-8.82317
-8.83661
-8.84949
-8.86186
-8.8738
-8.88535
-8.89653
-8.90737
-8.91788
-8.92807
-8.93795
-8.94752
-8.9568
-8.96578
-8.97447
-8.98288
-8.991
-8.99884
-9.00642
-9.01373
-9.02081
-9.02767
-9.03437
-9.04093
-8.48453
-8.6067
-8.68136
-8.70558
-8.7219
-8.74292
-8.7634
-8.7806
-8.79593
-8.81075
-8.82527
-8.83938
-8.8531
-8.86651
-8.87966
-8.89254
-8.90514
-8.91745
-8.92947
-8.94118
-8.95259
-8.96368
-8.97444
-8.98487
-8.99497
-9.00472
-9.01414
-9.02321
-9.03193
-9.0403
-9.04832
-9.05597
-9.06337
-9.33287
-9.48888
-9.70607
-9.8102
-9.92101
-10.0276
-10.1096
-10.1728
-10.2217
-10.2573
-10.2817
-10.2964
-10.3033
-10.3042
-10.3008
-10.2955
-10.2894
-10.2804
-10.2755
-10.2789
-10.2914
-10.3123
-10.3401
-10.373
-10.4092
-10.447
-10.4853
-10.5229
-10.5591
-10.5931
-10.6239
-10.6507
-10.6727
-10.6895
-10.7006
-10.7057
-10.7047
-10.6973
-10.6834
-10.6627
-10.6352
-10.6005
-10.5585
-10.509
-10.4519
-10.387
-10.314
-10.2329
-10.1435
-10.0455
-9.93864
-9.82281
-9.69775
-9.56328
-9.41925
-9.26556
-9.10214
-8.92899
-8.74616
-8.55377
-8.35201
-8.14114
-7.92149
-7.69349
-7.45764
-7.21453
-6.96483
-6.70926
-6.4486
-6.18364
-5.91523
-5.64422
-5.37151
-5.09803
-4.82477
-4.55277
-4.28314
-4.01703
-3.75567
-3.50024
-3.25175
-3.01085
-2.77794
-2.55334
-2.33737
-2.13031
-1.93236
-1.74365
-1.56418
-1.39391
-1.2325
-1.07983
-0.934792
-0.797857
-0.665116
-0.541373
-0.41066
-0.302198
-0.144504
-0.0949715
-9.24823
-9.30085
-9.39289
-9.43884
-9.49235
-9.56036
-9.62715
-9.6906
-9.75082
-9.80551
-9.85328
-9.89386
-9.92744
-9.9546
-9.97656
-9.99557
-10.0141
-10.0289
-10.0446
-10.0654
-10.0928
-10.1266
-10.1657
-10.2086
-10.2536
-10.2993
-10.3445
-10.3882
-10.4297
-10.4681
-10.5027
-10.5327
-10.5575
-10.5765
-10.5894
-10.596
-10.5961
-10.5896
-10.5764
-10.5562
-10.529
-10.4945
-10.4526
-10.4033
-10.3462
-10.2813
-10.2085
-10.1275
-10.0382
-9.94036
-9.83384
-9.71839
-9.59383
-9.45998
-9.31671
-9.16393
-9.00158
-8.82968
-8.64827
-8.45749
-8.25752
-8.04863
-7.83116
-7.60551
-7.3722
-7.13181
-6.88498
-6.63243
-6.3749
-6.1132
-5.84813
-5.58054
-5.31129
-5.04132
-4.77158
-4.50308
-4.2369
-3.97415
-3.71603
-3.46363
-3.21795
-2.97962
-2.74907
-2.52662
-2.31259
-2.10726
-1.91083
-1.72344
-1.54508
-1.37572
-1.21504
-1.06295
-0.918336
-0.781728
-0.649251
-0.525875
-0.395741
-0.288576
-0.133525
-0.0881347
-9.20967
-9.23103
-9.27548
-9.30292
-9.32632
-9.35919
-9.3948
-9.42966
-9.46447
-9.49873
-9.53167
-9.56291
-9.59227
-9.61982
-9.64624
-9.67304
-9.70162
-9.73129
-9.76241
-9.79771
-9.83857
-9.88485
-9.93554
-9.98924
-10.0444
-10.0995
-10.1535
-10.2052
-10.2539
-10.2988
-10.3391
-10.3743
-10.4036
-10.4267
-10.4432
-10.453
-10.4559
-10.4518
-10.4406
-10.4223
-10.3966
-10.3636
-10.3231
-10.2749
-10.219
-10.1553
-10.0835
-10.0036
-9.91543
-9.81878
-9.71348
-9.59934
-9.47619
-9.34386
-9.20224
-9.05124
-8.89082
-8.72099
-8.54182
-8.35344
-8.15603
-7.94987
-7.73528
-7.51268
-7.28257
-7.04551
-6.80214
-6.55316
-6.29929
-6.04131
-5.78002
-5.51624
-5.25082
-4.98466
-4.7187
-4.45394
-4.1914
-3.93218
-3.6774
-3.42814
-3.18532
-2.94961
-2.72142
-2.50111
-2.289
-2.08536
-1.89039
-1.70423
-1.5269
-1.35837
-1.19833
-1.04671
-0.902434
-0.76606
-0.633791
-0.5107
-0.381199
-0.275186
-0.123173
-0.0811631
-9.20754
-9.23058
-9.26685
-9.29493
-9.31387
-9.33458
-9.35517
-9.37256
-9.38772
-9.40158
-9.41424
-9.42596
-9.43726
-9.44877
-9.46145
-9.4767
-9.49594
-9.51984
-9.54768
-9.58101
-9.62089
-9.66711
-9.71866
-9.77408
-9.83181
-9.89027
-9.94811
-10.0041
-10.0573
-10.1068
-10.1518
-10.1914
-10.225
-10.2523
-10.2727
-10.2862
-10.2925
-10.2916
-10.2834
-10.2678
-10.2448
-10.2141
-10.1759
-10.1299
-10.076
-10.0143
-9.94454
-9.86663
-9.78044
-9.6858
-9.58256
-9.47054
-9.34957
-9.21952
-9.08029
-8.93179
-8.77399
-8.60691
-8.43063
-8.24527
-8.05104
-7.84818
-7.63704
-7.41803
-7.19162
-6.95837
-6.7189
-6.47389
-6.22404
-5.97012
-5.71291
-5.45319
-5.19182
-4.92967
-4.66766
-4.40674
-4.14794
-3.8923
-3.6409
-3.39478
-3.15483
-2.9217
-2.69584
-2.4776
-2.26732
-2.06527
-1.87166
-1.68663
-1.51021
-1.34238
-1.18286
-1.03158
-0.887524
-0.751266
-0.619125
-0.496208
-0.36737
-0.26231
-0.113676
-0.0742035
-9.21189
-9.23394
-9.26166
-9.28525
-9.30211
-9.31906
-9.33623
-9.35105
-9.36342
-9.37385
-9.38225
-9.38871
-9.39367
-9.39784
-9.40222
-9.40822
-9.41736
-9.43065
-9.44845
-9.47185
-9.50179
-9.53826
-9.58054
-9.62752
-9.67785
-9.73016
-9.7831
-9.83547
-9.88616
-9.93414
-9.97846
-10.0182
-10.0527
-10.0812
-10.1034
-10.1188
-10.1273
-10.1286
-10.1227
-10.1094
-10.0887
-10.0604
-10.0244
-9.98061
-9.92903
-9.86952
-9.80199
-9.72633
-9.64241
-9.55008
-9.44921
-9.33962
-9.22117
-9.09374
-8.95724
-8.81158
-8.65675
-8.49278
-8.31973
-8.13774
-7.947
-7.74778
-7.54039
-7.32523
-7.10279
-6.87358
-6.63823
-6.39738
-6.15172
-5.902
-5.64897
-5.39342
-5.13616
-4.87806
-4.62
-4.36294
-4.10785
-3.85574
-3.60767
-3.36461
-3.12744
-2.8968
-2.67315
-2.45687
-2.24829
-2.0477
-1.85529
-1.67124
-1.49557
-1.32829
-1.16913
-1.01805
-0.874067
-0.737783
-0.605664
-0.482788
-0.354601
-0.250285
-0.105223
-0.0675166
-9.21327
-9.23383
-9.25743
-9.2798
-9.29802
-9.31514
-9.33173
-9.34602
-9.35757
-9.36675
-9.37368
-9.37851
-9.38169
-9.38386
-9.38591
-9.389
-9.39438
-9.40302
-9.41564
-9.43292
-9.45564
-9.48393
-9.51735
-9.55508
-9.59611
-9.63931
-9.6836
-9.72794
-9.77133
-9.81283
-9.85155
-9.88663
-9.91728
-9.94286
-9.96283
-9.97676
-9.98433
-9.98527
-9.97938
-9.96646
-9.94635
-9.9189
-9.88398
-9.84148
-9.79129
-9.73331
-9.66741
-9.5935
-9.51143
-9.42107
-9.32228
-9.2149
-9.09879
-8.97384
-8.83995
-8.69705
-8.54514
-8.38422
-8.21437
-8.03572
-7.84847
-7.65286
-7.4492
-7.2379
-7.01939
-6.7942
-6.56293
-6.32619
-6.08467
-5.83908
-5.59016
-5.33869
-5.08545
-4.83129
-4.57709
-4.32376
-4.07224
-3.82354
-3.57864
-3.3385
-3.10396
-2.87565
-2.65406
-2.43957
-2.23253
-2.03321
-1.84184
-1.65859
-1.4835
-1.31658
-1.15761
-1.00655
-0.862481
-0.726011
-0.593788
-0.470803
-0.343218
-0.239415
-0.0979993
-0.0613123
-9.21331
-9.23306
-9.25436
-9.27498
-9.29261
-9.30854
-9.32356
-9.33675
-9.34769
-9.35658
-9.36359
-9.36882
-9.37261
-9.37548
-9.37816
-9.38158
-9.38675
-9.39456
-9.4057
-9.4207
-9.44018
-9.46428
-9.49265
-9.52462
-9.55934
-9.59589
-9.63331
-9.6707
-9.7072
-9.742
-9.77429
-9.80333
-9.82842
-9.84897
-9.86446
-9.87448
-9.87868
-9.87679
-9.86855
-9.85375
-9.83217
-9.80365
-9.76802
-9.72512
-9.67483
-9.61701
-9.55152
-9.47824
-9.39702
-9.30771
-9.21017
-9.10424
-8.98978
-8.86667
-8.73481
-8.59415
-8.44465
-8.28633
-8.11927
-7.94357
-7.75944
-7.5671
-7.36685
-7.15908
-6.94422
-6.72277
-6.4953
-6.26241
-6.02477
-5.78307
-5.53803
-5.29039
-5.04095
-4.79052
-4.53994
-4.29012
-4.04197
-3.79646
-3.55453
-3.3171
-3.08499
-2.85882
-2.6391
-2.42621
-2.2205
-2.02227
-1.83175
-1.6491
-1.47439
-1.30766
-1.14869
-0.997464
-0.853136
-0.716309
-0.583841
-0.460585
-0.333519
-0.229989
-0.0921595
-0.0558073
-9.21271
-9.23142
-9.25093
-9.26989
-9.28696
-9.30253
-9.31713
-9.33024
-9.34141
-9.35067
-9.35815
-9.36398
-9.36843
-9.37199
-9.37533
-9.37923
-9.38458
-9.39214
-9.40256
-9.41637
-9.43399
-9.45554
-9.48074
-9.50902
-9.53965
-9.5718
-9.60462
-9.63727
-9.66896
-9.6989
-9.72638
-9.7507
-9.77123
-9.78741
-9.79878
-9.80493
-9.80556
-9.80038
-9.78915
-9.77165
-9.74769
-9.71709
-9.67967
-9.63529
-9.58379
-9.52502
-9.45886
-9.38515
-9.30376
-9.21451
-9.11727
-9.01189
-8.89821
-8.77612
-8.64551
-8.50633
-8.35854
-8.20215
-8.03723
-7.86389
-7.68229
-7.49267
-7.29532
-7.09059
-6.8789
-6.66074
-6.43665
-6.20722
-5.97308
-5.7349
-5.49339
-5.24927
-5.00331
-4.7563
-4.50907
-4.26249
-4.01745
-3.77487
-3.53567
-3.30073
-3.07083
-2.84661
-2.62855
-2.41706
-2.21249
-2.01516
-1.82528
-1.64305
-1.46853
-1.30179
-1.14263
-0.991066
-0.846307
-0.708954
-0.576094
-0.4524
-0.325742
-0.222238
-0.0878152
-0.051175
-9.21025
-9.22816
-9.24645
-9.26428
-9.28077
-9.29592
-9.30995
-9.32258
-9.3335
-9.34272
-9.35038
-9.35663
-9.36174
-9.36614
-9.3704
-9.37517
-9.38118
-9.38911
-9.39949
-9.41282
-9.42939
-9.44931
-9.47236
-9.49804
-9.52572
-9.55467
-9.58412
-9.6133
-9.64146
-9.66788
-9.69186
-9.71274
-9.72994
-9.74291
-9.7512
-9.75443
-9.75228
-9.74447
-9.73076
-9.71094
-9.68482
-9.65223
-9.61299
-9.56696
-9.514
-9.45396
-9.38671
-9.3121
-9.23001
-9.14027
-9.04275
-8.93729
-8.82376
-8.70205
-8.57205
-8.43372
-8.287
-8.13192
-7.96853
-7.79693
-7.6173
-7.42984
-7.23484
-7.03263
-6.82362
-6.60827
-6.38711
-6.1607
-5.92965
-5.69461
-5.45626
-5.21532
-4.97252
-4.72863
-4.48446
-4.24085
-3.99865
-3.75877
-3.52207
-3.28939
-3.0615
-2.83902
-2.62243
-2.41216
-2.20856
-2.01193
-1.82253
-1.64053
-1.46604
-1.29911
-1.13959
-0.987515
-0.842163
-0.704124
-0.570728
-0.446435
-0.320052
-0.216332
-0.0850251
-0.0475465
-9.20819
-9.22525
-9.24245
-9.25926
-9.275
-9.2896
-9.30314
-9.31548
-9.32641
-9.33588
-9.34399
-9.35087
-9.35677
-9.36204
-9.36716
-9.3727
-9.37929
-9.38749
-9.3978
-9.41062
-9.42622
-9.44468
-9.46583
-9.48924
-9.51436
-9.54054
-9.56708
-9.59329
-9.61846
-9.64191
-9.66298
-9.68105
-9.69556
-9.70597
-9.71185
-9.71281
-9.70852
-9.6987
-9.68312
-9.66154
-9.63378
-9.59966
-9.55901
-9.51168
-9.45753
-9.39643
-9.32823
-9.25281
-9.17003
-9.07974
-8.98182
-8.87613
-8.76255
-8.64096
-8.51129
-8.37347
-8.22748
-8.07334
-7.91109
-7.74085
-7.56278
-7.37707
-7.18402
-6.98393
-6.77721
-6.56429
-6.34569
-6.12194
-5.89364
-5.66142
-5.42594
-5.18787
-4.94795
-4.70692
-4.46557
-4.22469
-3.98513
-3.74773
-3.51333
-3.28274
-3.05669
-2.83578
-2.62052
-2.41131
-2.20852
-2.01246
-1.82338
-1.64147
-1.46685
-1.29959
-1.13957
-0.986833
-0.840747
-0.70188
-0.567816
-0.442775
-0.316522
-0.212351
-0.0837832
-0.044988
-9.20435
-9.22074
-9.23712
-9.25311
-9.26825
-9.2824
-9.29561
-9.30772
-9.31858
-9.32817
-9.33654
-9.34384
-9.35028
-9.3562
-9.362
-9.36819
-9.37529
-9.38378
-9.39409
-9.40657
-9.42144
-9.43875
-9.45835
-9.47986
-9.50281
-9.52663
-9.55068
-9.57432
-9.5969
-9.61779
-9.63635
-9.652
-9.6642
-9.67245
-9.6763
-9.67537
-9.66933
-9.65789
-9.64081
-9.61785
-9.58882
-9.55353
-9.51182
-9.46352
-9.40849
-9.3466
-9.27771
-9.20168
-9.1184
-9.02772
-8.92953
-8.82368
-8.71008
-8.58863
-8.45924
-8.32188
-8.17651
-8.02318
-7.86192
-7.69286
-7.51615
-7.332
-7.14066
-6.94247
-6.7378
-6.52708
-6.3108
-6.08949
-5.86371
-5.63409
-5.40125
-5.16587
-4.92864
-4.69029
-4.45157
-4.21326
-3.97617
-3.7411
-3.50886
-3.28023
-3.05589
-2.83645
-2.62239
-2.41414
-2.21206
-2.01645
-1.82758
-1.64565
-1.47078
-1.30307
-1.14243
-0.988921
-0.841984
-0.702172
-0.567325
-0.441404
-0.315131
-0.210291
-0.0840195
-0.0434993
-9.20118
-9.21689
-9.23251
-9.24776
-9.26233
-9.27601
-9.28882
-9.30068
-9.31145
-9.32111
-9.32972
-9.33743
-9.34441
-9.35095
-9.3574
-9.36418
-9.37173
-9.38046
-9.39073
-9.40284
-9.41699
-9.43318
-9.45131
-9.47104
-9.49195
-9.51353
-9.53523
-9.55645
-9.5766
-9.59506
-9.61126
-9.62465
-9.63469
-9.64091
-9.64287
-9.6402
-9.63257
-9.61967
-9.60126
-9.5771
-9.54698
-9.51071
-9.46812
-9.41905
-9.36334
-9.30086
-9.23147
-9.15504
-9.07144
-8.98054
-8.88222
-8.77636
-8.66287
-8.54164
-8.41262
-8.27577
-8.13107
-7.97855
-7.81828
-7.65037
-7.47497
-7.29229
-7.10261
-6.90621
-6.70349
-6.49486
-6.28078
-6.06178
-5.83841
-5.61126
-5.38096
-5.14814
-4.91348
-4.6777
-4.44152
-4.20568
-3.97096
-3.73813
-3.50797
-3.28121
-3.05851
-2.84047
-2.62755
-2.42018
-2.21873
-2.0235
-1.83477
-1.65273
-1.47754
-1.3093
-1.14796
-0.993581
-0.845704
-0.704854
-0.569128
-0.442216
-0.315772
-0.210061
-0.0856037
-0.0430126
-9.19661
-9.21174
-9.22673
-9.24137
-9.25542
-9.26873
-9.28121
-9.29283
-9.30354
-9.31329
-9.32212
-9.33014
-9.33754
-9.34456
-9.3515
-9.35871
-9.36657
-9.37543
-9.3856
-9.39733
-9.41077
-9.42595
-9.44275
-9.46087
-9.47993
-9.49949
-9.51904
-9.53806
-9.55597
-9.57222
-9.58626
-9.59757
-9.60564
-9.61
-9.61025
-9.60599
-9.59691
-9.5827
-9.5631
-9.53787
-9.50679
-9.46968
-9.42635
-9.37663
-9.32038
-9.25744
-9.18768
-9.11097
-9.02717
-8.93617
-8.83785
-8.73209
-8.61881
-8.49791
-8.36935
-8.23308
-8.08911
-7.93746
-7.77821
-7.61147
-7.4374
-7.25621
-7.06816
-6.87355
-6.67275
-6.46616
-6.25425
-6.03752
-5.81651
-5.59179
-5.36396
-5.13365
-4.90152
-4.66826
-4.43456
-4.20114
-3.96874
-3.73811
-3.50999
-3.28505
-3.06396
-2.84727
-2.63547
-2.42895
-2.22809
-2.0332
-1.84455
-1.66237
-1.4868
-1.31797
-1.15586
-1.00055
-0.851672
-0.709716
-0.573031
-0.445036
-0.318272
-0.211502
-0.0883619
-0.0434057
-9.19258
-9.20716
-9.22157
-9.23565
-9.24921
-9.26211
-9.27426
-9.28563
-9.29622
-9.306
-9.31498
-9.32326
-9.331
-9.33841
-9.34575
-9.35331
-9.36141
-9.37035
-9.38038
-9.39171
-9.40446
-9.41866
-9.43418
-9.45076
-9.46806
-9.48569
-9.5032
-9.5201
-9.53586
-9.54998
-9.56193
-9.57121
-9.57736
-9.57992
-9.57848
-9.57268
-9.56218
-9.54669
-9.52593
-9.49967
-9.46768
-9.42977
-9.38574
-9.33544
-9.27869
-9.21536
-9.1453
-9.06838
-8.98448
-8.89346
-8.79521
-8.68964
-8.57665
-8.45616
-8.32813
-8.19252
-8.04934
-7.89862
-7.74045
-7.57493
-7.40223
-7.22255
-7.03615
-6.84334
-6.64447
-6.43994
-6.23019
-6.01572
-5.79706
-5.57475
-5.34939
-5.12158
-4.89197
-4.66121
-4.42997
-4.19896
-3.96888
-3.74043
-3.51432
-3.29121
-3.07172
-2.85638
-2.64567
-2.44
-2.23972
-2.04515
-1.85657
-1.6742
-1.49822
-1.32876
-1.16584
-1.00957
-0.859632
-0.716517
-0.578807
-0.449648
-0.322419
-0.214418
-0.0920971
-0.0445217
-9.18761
-9.20169
-9.21559
-9.22916
-9.24229
-9.25483
-9.26671
-9.27788
-9.28833
-9.2981
-9.30719
-9.31567
-9.32368
-9.33139
-9.33902
-9.34683
-9.35507
-9.36399
-9.37382
-9.38471
-9.39675
-9.40998
-9.42427
-9.43939
-9.45504
-9.47086
-9.48645
-9.50135
-9.5151
-9.52721
-9.53719
-9.54458
-9.54891
-9.54976
-9.54674
-9.53948
-9.52764
-9.51094
-9.4891
-9.46188
-9.42904
-9.39039
-9.34574
-9.29491
-9.23773
-9.17407
-9.10377
-9.02671
-8.94274
-8.85177
-8.75366
-8.64833
-8.53569
-8.41567
-8.28822
-8.15332
-8.01098
-7.86125
-7.70419
-7.53994
-7.36864
-7.19051
-7.0058
-6.81481
-6.61789
-6.41543
-6.20786
-5.99567
-5.77936
-5.55948
-5.3366
-5.11131
-4.88422
-4.65597
-4.42721
-4.19861
-3.97085
-3.74459
-3.52051
-3.29923
-3.08135
-2.86738
-2.65777
-2.45295
-2.25325
-2.059
-1.87047
-1.68791
-1.5115
-1.34139
-1.17764
-1.02036
-0.869333
-0.725017
-0.586224
-0.455832
-0.327987
-0.218595
-0.0966109
-0.0461933
-9.18298
-9.1966
-9.21003
-9.22315
-9.23586
-9.24807
-9.25968
-9.27066
-9.28098
-9.29068
-9.2998
-9.30841
-9.3166
-9.32451
-9.33235
-9.34031
-9.3486
-9.35744
-9.36701
-9.37743
-9.38879
-9.40106
-9.41416
-9.42788
-9.44195
-9.45604
-9.46979
-9.48279
-9.49459
-9.50476
-9.51283
-9.51836
-9.52091
-9.52009
-9.5155
-9.50679
-9.49362
-9.47572
-9.45279
-9.42461
-9.39092
-9.35154
-9.30626
-9.2549
-9.19731
-9.13333
-9.06281
-8.98562
-8.90163
-8.81072
-8.71279
-8.60774
-8.49549
-8.37597
-8.24915
-8.115
-7.97354
-7.82483
-7.66893
-7.50596
-7.3361
-7.15955
-6.97655
-6.78741
-6.59246
-6.39209
-6.18673
-5.97684
-5.76291
-5.54548
-5.32509
-5.10233
-4.87778
-4.65207
-4.42581
-4.19965
-3.97422
-3.75018
-3.52815
-3.30873
-3.09248
-2.87989
-2.67142
-2.46746
-2.26836
-2.07444
-1.88598
-1.70322
-1.52637
-1.3556
-1.191
-1.0327
-0.880548
-0.734999
-0.595065
-0.463376
-0.334765
-0.223832
-0.101724
-0.0482683
-9.17781
-9.19099
-9.20398
-9.21668
-9.22901
-9.24088
-9.25224
-9.26303
-9.27323
-9.28286
-9.29196
-9.30063
-9.30893
-9.31698
-9.32493
-9.33296
-9.34123
-9.34992
-9.35918
-9.3691
-9.37974
-9.39106
-9.403
-9.41537
-9.42793
-9.44038
-9.45238
-9.46357
-9.47352
-9.48183
-9.48808
-9.49183
-9.49269
-9.49025
-9.48415
-9.47404
-9.4596
-9.44053
-9.41657
-9.38745
-9.35295
-9.31287
-9.26699
-9.21515
-9.15717
-9.0929
-9.02218
-8.9449
-8.86091
-8.7701
-8.67237
-8.56763
-8.45579
-8.33681
-8.21064
-8.07727
-7.93672
-7.78904
-7.63432
-7.47268
-7.30427
-7.12931
-6.94805
-6.76077
-6.56782
-6.36956
-6.16641
-5.95884
-5.74731
-5.53235
-5.31448
-5.09427
-4.8723
-4.64914
-4.42541
-4.20171
-3.97865
-3.75685
-3.5369
-3.31937
-3.10479
-2.89363
-2.68633
-2.48326
-2.28479
-2.09121
-1.90283
-1.71989
-1.5426
-1.37117
-1.2057
-1.04637
-0.893078
-0.746269
-0.605144
-0.4721
-0.342571
-0.229961
-0.107292
-0.0506334
-9.17281
-9.18559
-9.19817
-9.21049
-9.22247
-9.23404
-9.24514
-9.25574
-9.26582
-9.27537
-9.28444
-9.29309
-9.30141
-9.30952
-9.31752
-9.32554
-9.33371
-9.34218
-9.35107
-9.36045
-9.37035
-9.38074
-9.39156
-9.40265
-9.41376
-9.42465
-9.43499
-9.44443
-9.45261
-9.45914
-9.46361
-9.46564
-9.46483
-9.46082
-9.45323
-9.44173
-9.42601
-9.40578
-9.38077
-9.35071
-9.3154
-9.27459
-9.22811
-9.17577
-9.11739
-9.05282
-8.98191
-8.90452
-8.82053
-8.72983
-8.63231
-8.52788
-8.41647
-8.29803
-8.17252
-8.03995
-7.90032
-7.7537
-7.60017
-7.43985
-7.27292
-7.09957
-6.92005
-6.73464
-6.54369
-6.34755
-6.14664
-5.94139
-5.73228
-5.5198
-5.30448
-5.08685
-4.86746
-4.64689
-4.42571
-4.2045
-3.98385
-3.76432
-3.54649
-3.33088
-3.118
-2.9083
-2.7022
-2.50007
-2.30225
-2.10906
-1.92077
-1.73766
-1.55996
-1.38787
-1.22155
-1.06117
-0.906729
-0.758644
-0.616282
-0.481832
-0.351242
-0.236837
-0.113201
-0.0532157
-9.16754
-9.17993
-9.19214
-9.20408
-9.21572
-9.22699
-9.23784
-9.24824
-9.25816
-9.26762
-9.27663
-9.28523
-9.29352
-9.30159
-9.30954
-9.31748
-9.3255
-9.33371
-9.34219
-9.351
-9.36015
-9.36965
-9.3794
-9.38925
-9.39898
-9.40837
-9.41711
-9.4249
-9.43137
-9.43619
-9.43896
-9.43932
-9.43691
-9.43136
-9.42232
-9.40948
-9.39252
-9.37115
-9.34511
-9.31414
-9.27801
-9.23651
-9.18944
-9.1366
-9.07784
-9.01298
-8.94188
-8.86441
-8.78043
-8.68984
-8.59254
-8.48843
-8.37746
-8.25957
-8.13474
-8.00296
-7.86426
-7.71869
-7.56635
-7.40737
-7.2419
-7.07016
-6.89239
-6.70886
-6.51991
-6.3259
-6.12722
-5.92431
-5.71762
-5.50764
-5.29486
-5.07982
-4.86305
-4.64508
-4.42648
-4.20779
-3.98956
-3.77234
-3.55665
-3.343
-3.13186
-2.92367
-2.71881
-2.51764
-2.32051
-2.12772
-1.93956
-1.75631
-1.5782
-1.40547
-1.2383
-1.07689
-0.921289
-0.771919
-0.628283
-0.492391
-0.360606
-0.244314
-0.119343
-0.0559648
-9.16235
-9.17438
-9.18623
-9.19783
-9.20915
-9.22014
-9.23074
-9.24094
-9.2507
-9.26004
-9.26896
-9.2775
-9.28571
-9.29368
-9.3015
-9.30927
-9.31705
-9.32494
-9.33297
-9.34121
-9.34966
-9.35829
-9.36701
-9.37567
-9.38409
-9.39204
-9.39926
-9.40545
-9.41029
-9.41346
-9.41459
-9.41334
-9.40936
-9.40231
-9.39186
-9.37768