/*--------------------------------*- C++ -*----------------------------------*\
| =========                 |                                                 |
| \\      /  F ield         | OpenFOAM: The Open Source CFD Toolbox           |
|  \\    /   O peration     | Version:  4.1                                   |
|   \\  /    A nd           | Web:      www.OpenFOAM.org                      |
|    \\/     M anipulation  |                                                 |
\*---------------------------------------------------------------------------*/
FoamFile
{
    version     2.0;
    format      ascii;
    class       surfaceScalarField;
    location    "1700";
    object      phi;
}
// * * * * * * * * * * * * * * * * * * * * * * * * * * * * * * * * * * * * * //

dimensions      [0 3 -1 0 0 0 0];

internalField   nonuniform List<scalar> 
13452
(
5.95313e-05
7.37189e-07
5.86592e-05
8.72055e-07
5.78162e-05
8.43023e-07
5.69811e-05
8.35093e-07
5.61551e-05
8.26045e-07
5.53509e-05
8.04137e-07
5.4576e-05
7.74946e-07
5.38328e-05
7.43204e-07
5.31224e-05
7.10328e-07
5.24455e-05
6.76897e-07
5.1802e-05
6.43566e-07
5.11911e-05
6.10909e-07
5.06118e-05
5.79288e-07
5.00629e-05
5.4889e-07
4.95431e-05
5.19807e-07
4.9051e-05
4.92069e-07
4.85853e-05
4.65671e-07
4.81448e-05
4.40578e-07
4.7728e-05
4.16737e-07
4.73339e-05
3.9409e-07
4.69614e-05
3.72576e-07
4.66092e-05
3.52129e-07
4.62766e-05
3.32689e-07
4.59624e-05
3.14194e-07
4.56658e-05
2.96587e-07
4.5386e-05
2.79814e-07
4.51221e-05
2.63811e-07
4.48736e-05
2.48582e-07
4.46397e-05
2.33878e-07
4.44193e-05
2.20424e-07
4.42137e-05
2.05572e-07
4.40179e-05
1.95784e-07
1.68001e-07
4.38499e-05
6.23701e-05
3.5739e-07
6.26549e-05
5.87255e-07
6.28762e-05
6.21723e-07
6.30527e-05
6.58587e-07
6.31874e-05
6.91411e-07
6.32837e-05
7.07861e-07
6.33451e-05
7.1353e-07
6.33748e-05
7.13499e-07
6.33761e-05
7.09032e-07
6.33524e-05
7.00535e-07
6.33073e-05
6.88731e-07
6.32438e-05
6.74417e-07
6.31648e-05
6.58229e-07
6.30731e-05
6.40651e-07
6.29708e-05
6.22079e-07
6.286e-05
6.02837e-07
6.27425e-05
5.83187e-07
6.26197e-05
5.63339e-07
6.2493e-05
5.43454e-07
6.23635e-05
5.2366e-07
6.2232e-05
5.04059e-07
6.20994e-05
4.84726e-07
6.19663e-05
4.65719e-07
6.18335e-05
4.47078e-07
6.17012e-05
4.28834e-07
6.157e-05
4.11006e-07
6.14402e-05
3.93596e-07
6.13122e-05
3.76641e-07
6.1186e-05
3.60023e-07
6.10624e-05
3.44072e-07
6.09402e-05
3.27723e-07
6.08228e-05
3.13241e-07
2.97035e-07
6.06938e-05
6.38365e-05
2.82304e-07
6.38978e-05
5.25936e-07
6.39331e-05
5.86406e-07
6.39614e-05
6.30299e-07
6.39849e-05
6.67943e-07
6.40043e-05
6.88445e-07
6.40213e-05
6.96576e-07
6.40366e-05
6.98201e-07
6.40503e-05
6.95271e-07
6.40624e-05
6.88411e-07
6.40728e-05
6.78395e-07
6.40812e-05
6.66034e-07
6.40874e-05
6.51949e-07
6.40915e-05
6.36591e-07
6.40933e-05
6.20312e-07
6.40927e-05
6.03398e-07
6.40898e-05
5.86079e-07
6.40846e-05
5.68531e-07
6.40772e-05
5.50893e-07
6.40676e-05
5.3327e-07
6.40559e-05
5.15746e-07
6.40422e-05
4.98382e-07
6.40267e-05
4.81227e-07
6.40095e-05
4.64313e-07
6.39907e-05
4.47664e-07
6.39704e-05
4.31296e-07
6.39488e-05
4.1521e-07
6.3926e-05
3.99423e-07
6.39021e-05
3.83881e-07
6.38775e-05
3.68681e-07
6.38516e-05
3.53582e-07
6.3826e-05
3.38866e-07
3.24568e-07
6.37985e-05
6.5644e-05
2.21346e-07
6.57108e-05
4.59203e-07
6.57547e-05
5.42439e-07
6.57894e-05
5.95592e-07
6.5819e-05
6.38406e-07
6.58438e-05
6.63645e-07
6.5865e-05
6.75383e-07
6.58836e-05
6.79617e-07
6.59001e-05
6.78755e-07
6.59148e-05
6.73631e-07
6.59282e-05
6.6509e-07
6.59402e-05
6.53994e-07
6.59511e-05
6.41013e-07
6.59611e-05
6.26629e-07
6.59702e-05
6.11221e-07
6.59785e-05
5.95097e-07
6.59861e-05
5.78499e-07
6.5993e-05
5.61616e-07
6.59993e-05
5.44595e-07
6.6005e-05
5.27547e-07
6.60102e-05
5.10557e-07
6.60149e-05
4.93691e-07
6.60191e-05
4.76994e-07
6.60229e-05
4.605e-07
6.60264e-05
4.4423e-07
6.60295e-05
4.28198e-07
6.60323e-05
4.12405e-07
6.60348e-05
3.96856e-07
6.60372e-05
3.81522e-07
6.60394e-05
3.66439e-07
6.60415e-05
3.51511e-07
6.60435e-05
3.36844e-07
3.22795e-07
6.60453e-05
6.75014e-05
1.7669e-07
6.75606e-05
4.00047e-07
6.7606e-05
4.97072e-07
6.76451e-05
5.56441e-07
6.76814e-05
6.02161e-07
6.77143e-05
6.30726e-07
6.77441e-05
6.45523e-07
6.77716e-05
6.52145e-07
6.77972e-05
6.5321e-07
6.7821e-05
6.49743e-07
6.78435e-05
6.42667e-07
6.78646e-05
6.32877e-07
6.78845e-05
6.21069e-07
6.79034e-05
6.07748e-07
6.79213e-05
5.9331e-07
6.79383e-05
5.7807e-07
6.79546e-05
5.62281e-07
6.797e-05
5.46137e-07
6.79849e-05
5.29789e-07
6.7999e-05
5.13353e-07
6.80127e-05
4.96919e-07
6.80258e-05
4.80554e-07
6.80385e-05
4.64305e-07
6.80508e-05
4.48209e-07
6.80627e-05
4.32287e-07
6.80744e-05
4.16552e-07
6.80858e-05
4.01008e-07
6.8097e-05
3.85654e-07
6.8108e-05
3.70474e-07
6.8119e-05
3.55469e-07
6.81299e-05
3.40611e-07
6.81408e-05
3.25907e-07
3.11522e-07
6.81521e-05
6.94169e-05
1.43864e-07
6.94686e-05
3.4832e-07
6.95132e-05
4.5241e-07
6.95533e-05
5.16338e-07
6.95912e-05
5.64287e-07
6.96263e-05
5.95614e-07
6.96587e-05
6.1312e-07
6.9689e-05
6.21898e-07
6.97175e-05
6.24712e-07
6.97444e-05
6.22776e-07
6.977e-05
6.17077e-07
6.97944e-05
6.08533e-07
6.98176e-05
5.97852e-07
6.98398e-05
5.85554e-07
6.98611e-05
5.72046e-07
6.98815e-05
5.57653e-07
6.99011e-05
5.42632e-07
6.99201e-05
5.27185e-07
6.99384e-05
5.11468e-07
6.99561e-05
4.95603e-07
6.99734e-05
4.79683e-07
6.99902e-05
4.63778e-07
7.00065e-05
4.47941e-07
7.00225e-05
4.32208e-07
7.00382e-05
4.16603e-07
7.00536e-05
4.01141e-07
7.00688e-05
3.85824e-07
7.00838e-05
3.70651e-07
7.00987e-05
3.55609e-07
7.01135e-05
3.40685e-07
7.01282e-05
3.25856e-07
7.01431e-05
3.11072e-07
2.96399e-07
7.01582e-05
7.13907e-05
1.19449e-07
7.14348e-05
3.04263e-07
7.14764e-05
4.10817e-07
7.1515e-05
4.77777e-07
7.15522e-05
5.27082e-07
7.15874e-05
5.60332e-07
7.16206e-05
5.7999e-07
7.16519e-05
5.90599e-07
7.16816e-05
5.94956e-07
7.171e-05
5.94402e-07
7.17371e-05
5.89963e-07
7.17631e-05
5.82561e-07
7.1788e-05
5.72914e-07
7.1812e-05
5.61558e-07
7.18352e-05
5.48909e-07
7.18575e-05
5.35301e-07
7.18792e-05
5.20997e-07
7.19001e-05
5.06204e-07
7.19205e-05
4.91085e-07
7.19404e-05
4.75764e-07
7.19597e-05
4.60338e-07
7.19786e-05
4.44881e-07
7.19971e-05
4.29446e-07
7.20152e-05
4.14074e-07
7.2033e-05
3.98788e-07
7.20506e-05
3.83604e-07
7.20679e-05
3.68527e-07
7.2085e-05
3.53552e-07
7.21019e-05
3.38667e-07
7.21188e-05
3.23851e-07
7.21355e-05
3.09079e-07
7.21523e-05
2.94278e-07
2.79458e-07
7.21693e-05
7.34237e-05
1.00988e-07
7.34611e-05
2.66878e-07
7.34997e-05
3.72237e-07
7.35369e-05
4.40544e-07
7.35736e-05
4.90381e-07
7.36091e-05
5.2488e-07
7.36428e-05
5.46273e-07
7.36749e-05
5.58489e-07
7.37056e-05
5.64251e-07
7.3735e-05
5.64984e-07
7.37633e-05
5.61739e-07
7.37904e-05
5.55436e-07
7.38165e-05
5.46801e-07
7.38417e-05
5.36376e-07
7.3866e-05
5.24585e-07
7.38895e-05
5.11767e-07
7.39124e-05
4.98188e-07
7.39345e-05
4.84061e-07
7.3956e-05
4.69551e-07
7.3977e-05
4.54785e-07
7.39975e-05
4.39865e-07
7.40175e-05
4.24867e-07
7.40371e-05
4.09847e-07
7.40563e-05
3.94846e-07
7.40752e-05
3.79891e-07
7.40938e-05
3.65e-07
7.41122e-05
3.50177e-07
7.41303e-05
3.3542e-07
7.41483e-05
3.20716e-07
7.41661e-05
3.06043e-07
7.41838e-05
2.91372e-07
7.42014e-05
2.76643e-07
2.61851e-07
7.4219e-05
7.55168e-05
8.66832e-08
7.55485e-05
2.35118e-07
7.55839e-05
3.36837e-07
7.56193e-05
4.05165e-07
7.56547e-05
4.5495e-07
7.56895e-05
4.90131e-07
7.5723e-05
5.12803e-07
7.57551e-05
5.2632e-07
7.57861e-05
5.33271e-07
7.5816e-05
5.35129e-07
7.58447e-05
5.32956e-07
7.58725e-05
5.2766e-07
7.58994e-05
5.19963e-07
7.59253e-05
5.10411e-07
7.59505e-05
4.9943e-07
7.59749e-05
4.87361e-07
7.59986e-05
4.74476e-07
7.60217e-05
4.60989e-07
7.60442e-05
4.47067e-07
7.60661e-05
4.32843e-07
7.60875e-05
4.1842e-07
7.61085e-05
4.03877e-07
7.61291e-05
3.89272e-07
7.61493e-05
3.74649e-07
7.61692e-05
3.60038e-07
7.61887e-05
3.45456e-07
7.6208e-05
3.3091e-07
7.6227e-05
3.16399e-07
7.62458e-05
3.01913e-07
7.62644e-05
2.8743e-07
7.62829e-05
2.72921e-07
7.63012e-05
2.58321e-07
2.43617e-07
7.63194e-05
7.76709e-05
7.53127e-08
7.76981e-05
2.08014e-07
7.77304e-05
3.04519e-07
7.77639e-05
3.71675e-07
7.7798e-05
4.20803e-07
7.78321e-05
4.56085e-07
7.78653e-05
4.79554e-07
7.78976e-05
4.94055e-07
7.79289e-05
5.01984e-07
7.79592e-05
5.04819e-07
7.79885e-05
5.0361e-07
7.80169e-05
4.99244e-07
7.80445e-05
4.9243e-07
7.80712e-05
4.83713e-07
7.80971e-05
4.73519e-07
7.81222e-05
4.62188e-07
7.81467e-05
4.49994e-07
7.81706e-05
4.3715e-07
7.81938e-05
4.23827e-07
7.82165e-05
4.10159e-07
7.82387e-05
3.9625e-07
7.82604e-05
3.82183e-07
7.82816e-05
3.68017e-07
7.83025e-05
3.53798e-07
7.83229e-05
3.39558e-07
7.83431e-05
3.25317e-07
7.83629e-05
3.11084e-07
7.83824e-05
2.96861e-07
7.84017e-05
2.82639e-07
7.84207e-05
2.68402e-07
7.84395e-05
2.54128e-07
7.84581e-05
2.39778e-07
2.25361e-07
7.84763e-05
7.98876e-05
6.60382e-08
7.99109e-05
1.84696e-07
7.99404e-05
2.75069e-07
7.99719e-05
3.40093e-07
8.00047e-05
3.88063e-07
8.00378e-05
4.22992e-07
8.00705e-05
4.46855e-07
8.01025e-05
4.62055e-07
8.01337e-05
4.70762e-07
8.01641e-05
4.74418e-07
8.01937e-05
4.74053e-07
8.02224e-05
4.70523e-07
8.02503e-05
4.6452e-07
8.02774e-05
4.56583e-07
8.03038e-05
4.47132e-07
8.03295e-05
4.36507e-07
8.03545e-05
4.24977e-07
8.03789e-05
4.12758e-07
8.04027e-05
4.00021e-07
8.0426e-05
3.86901e-07
8.04487e-05
3.73505e-07
8.0471e-05
3.59915e-07
8.04928e-05
3.46194e-07
8.05142e-05
3.3239e-07
8.05352e-05
3.18536e-07
8.05559e-05
3.04656e-07
8.05762e-05
2.90763e-07
8.05962e-05
2.76859e-07
8.06159e-05
2.62942e-07
8.06353e-05
2.49e-07
8.06544e-05
2.35018e-07
8.06732e-05
2.20955e-07
2.06819e-07
8.06918e-05
8.21682e-05
5.82867e-08
8.21885e-05
1.64435e-07
8.22153e-05
2.4823e-07
8.2245e-05
3.10374e-07
8.22763e-05
3.56734e-07
8.23084e-05
3.90902e-07
8.23405e-05
4.1476e-07
8.23722e-05
4.30355e-07
8.24034e-05
4.39615e-07
8.24339e-05
4.43919e-07
8.24637e-05
4.44264e-07
8.24927e-05
4.41469e-07
8.2521e-05
4.36201e-07
8.25486e-05
4.28985e-07
8.25755e-05
4.20237e-07
8.26018e-05
4.10287e-07
8.26273e-05
3.99404e-07
8.26523e-05
3.87801e-07
8.26767e-05
3.75649e-07
8.27005e-05
3.63082e-07
8.27238e-05
3.50208e-07
8.27466e-05
3.37111e-07
8.27689e-05
3.23855e-07
8.27908e-05
3.10491e-07
8.28123e-05
2.97054e-07
8.28334e-05
2.83569e-07
8.28541e-05
2.70053e-07
8.28744e-05
2.56513e-07
8.28944e-05
2.42951e-07
8.29141e-05
2.29363e-07
8.29333e-05
2.15742e-07
8.29522e-05
2.02073e-07
1.88389e-07
8.29707e-05
8.45144e-05
5.1664e-08
8.45322e-05
1.46638e-07
8.45567e-05
2.23719e-07
8.45847e-05
2.82429e-07
8.46146e-05
3.26787e-07
8.46457e-05
3.59845e-07
8.46771e-05
3.83358e-07
8.47083e-05
3.99075e-07
8.47393e-05
4.08688e-07
8.47697e-05
4.13485e-07
8.47995e-05
4.14418e-07
8.48288e-05
4.12263e-07
8.48573e-05
4.07657e-07
8.48852e-05
4.01108e-07
8.49124e-05
3.93018e-07
8.4939e-05
3.83713e-07
8.49649e-05
3.73455e-07
8.49903e-05
3.62453e-07
8.5015e-05
3.50877e-07
8.50393e-05
3.38861e-07
8.5063e-05
3.26512e-07
8.50861e-05
3.13916e-07
8.51089e-05
3.01137e-07
8.51311e-05
2.88228e-07
8.5153e-05
2.75227e-07
8.51744e-05
2.62162e-07
8.51954e-05
2.49053e-07
8.5216e-05
2.35911e-07
8.52362e-05
2.22744e-07
8.5256e-05
2.09553e-07
8.52754e-05
1.96339e-07
8.52944e-05
1.83087e-07
1.69825e-07
8.53129e-05
8.69279e-05
4.58948e-08
8.69437e-05
1.30828e-07
8.69662e-05
2.01252e-07
8.69925e-05
2.56143e-07
8.70211e-05
2.98167e-07
8.70511e-05
3.29816e-07
8.70818e-05
3.52678e-07
8.71126e-05
3.68255e-07
8.71433e-05
3.78017e-07
8.71737e-05
3.83144e-07
8.72035e-05
3.84532e-07
8.72329e-05
3.82912e-07
8.72617e-05
3.78885e-07
8.72898e-05
3.72938e-07
8.73174e-05
3.65459e-07
8.73443e-05
3.56762e-07
8.73707e-05
3.47103e-07
8.73965e-05
3.36686e-07
8.74217e-05
3.25678e-07
8.74463e-05
3.14211e-07
8.74704e-05
3.02392e-07
8.7494e-05
2.90306e-07
8.75172e-05
2.78021e-07
8.75398e-05
2.65588e-07
8.7562e-05
2.53049e-07
8.75837e-05
2.40434e-07
8.7605e-05
2.27767e-07
8.76258e-05
2.15063e-07
8.76463e-05
2.02334e-07
8.76662e-05
1.8959e-07
8.76857e-05
1.76838e-07
8.77047e-05
1.64081e-07
1.51365e-07
8.77232e-05
8.94106e-05
4.07835e-08
8.94249e-05
1.16625e-07
8.94455e-05
1.80564e-07
8.94703e-05
2.31383e-07
8.94977e-05
2.70801e-07
8.95267e-05
3.00783e-07
8.95566e-05
3.2273e-07
8.9587e-05
3.37928e-07
8.96173e-05
3.47648e-07
8.96475e-05
3.52953e-07
8.96774e-05
3.54674e-07
8.97068e-05
3.53492e-07
8.97357e-05
3.49969e-07
8.97641e-05
3.44567e-07
8.97919e-05
3.37655e-07
8.98191e-05
3.29535e-07
8.98458e-05
3.20454e-07
8.98719e-05
3.10609e-07
8.98974e-05
3.00162e-07
8.99223e-05
2.89245e-07
8.99468e-05
2.77962e-07
8.99707e-05
2.66397e-07
8.99941e-05
2.5462e-07
9.0017e-05
2.42682e-07
9.00394e-05
2.30628e-07
9.00614e-05
2.1849e-07
9.00828e-05
2.06295e-07
9.01038e-05
1.94062e-07
9.01244e-05
1.81809e-07
9.01444e-05
1.69548e-07
9.01639e-05
1.57294e-07
9.0183e-05
1.45049e-07
1.32854e-07
9.02015e-05
9.19645e-05
3.61877e-08
9.19774e-05
1.03726e-07
9.19965e-05
1.61405e-07
9.20199e-05
2.08008e-07
9.20461e-05
2.44602e-07
9.20742e-05
2.727e-07
9.21034e-05
2.93499e-07
9.21332e-05
3.08104e-07
9.21633e-05
3.17601e-07
9.21933e-05
3.22935e-07
9.22231e-05
3.24867e-07
9.22526e-05
3.24023e-07
9.22816e-05
3.20925e-07
9.23102e-05
3.16004e-07
9.23382e-05
3.09611e-07
9.23657e-05
3.02032e-07
9.23927e-05
2.93502e-07
9.24191e-05
2.84211e-07
9.24449e-05
2.74317e-07
9.24702e-05
2.63946e-07
9.2495e-05
2.53202e-07
9.25192e-05
2.42168e-07
9.25429e-05
2.30912e-07
9.25661e-05
2.19488e-07
9.25888e-05
2.07941e-07
9.2611e-05
1.96306e-07
9.26327e-05
1.84613e-07
9.26538e-05
1.72884e-07
9.26745e-05
1.61141e-07
9.26947e-05
1.49402e-07
9.27143e-05
1.37685e-07
9.27333e-05
1.26005e-07
1.1441e-07
9.27518e-05
9.45913e-05
3.20013e-08
9.46032e-05
9.18904e-08
9.4621e-05
1.43555e-07
9.46432e-05
1.85872e-07
9.46683e-05
2.19475e-07
9.46955e-05
2.45503e-07
9.4724e-05
2.64956e-07
9.47534e-05
2.78773e-07
9.47831e-05
2.8788e-07
9.48129e-05
2.93104e-07
9.48427e-05
2.95131e-07
9.48721e-05
2.94531e-07
9.49013e-05
2.91783e-07
9.493e-05
2.87287e-07
9.49582e-05
2.81368e-07
9.4986e-05
2.74298e-07
9.50132e-05
2.66297e-07
9.50398e-05
2.57549e-07
9.5066e-05
2.48201e-07
9.50915e-05
2.38378e-07
9.51166e-05
2.2818e-07
9.5141e-05
2.17687e-07
9.5165e-05
2.06969e-07
9.51884e-05
1.96079e-07
9.52113e-05
1.85063e-07
9.52336e-05
1.73958e-07
9.52554e-05
1.62795e-07
9.52767e-05
1.51601e-07
9.52975e-05
1.404e-07
9.53176e-05
1.29213e-07
9.53373e-05
1.18061e-07
9.53563e-05
1.06959e-07
9.59513e-08
9.53748e-05
9.72934e-05
2.81425e-08
9.73043e-05
8.09216e-08
9.73211e-05
1.26814e-07
9.73421e-05
1.64828e-07
9.73663e-05
1.95317e-07
9.73927e-05
2.1912e-07
9.74206e-05
2.37057e-07
9.74494e-05
2.49916e-07
9.74788e-05
2.58479e-07
9.75085e-05
2.63462e-07
9.75381e-05
2.65474e-07
9.75676e-05
2.65027e-07
9.75969e-05
2.62557e-07
9.76257e-05
2.58426e-07
9.76542e-05
2.52938e-07
9.76821e-05
2.46342e-07
9.77096e-05
2.38848e-07
9.77365e-05
2.30625e-07
9.77629e-05
2.21817e-07
9.77887e-05
2.1254e-07
9.7814e-05
2.02891e-07
9.78387e-05
1.92949e-07
9.78629e-05
1.82782e-07
9.78866e-05
1.72442e-07
9.79096e-05
1.61977e-07
9.79322e-05
1.51425e-07
9.79542e-05
1.40818e-07
9.79756e-05
1.30186e-07
9.79964e-05
1.19555e-07
9.80167e-05
1.08947e-07
9.80363e-05
9.83889e-08
9.80554e-05
8.78986e-08
7.75237e-08
9.80738e-05
0.000100073
2.45472e-08
0.000100083
7.06588e-08
0.000100099
1.11003e-07
0.000100119
1.4473e-07
0.000100142
1.72016e-07
0.000100168
1.9347e-07
0.000100195
2.09745e-07
0.000100224
2.21495e-07
0.000100253
2.29376e-07
0.000100282
2.33998e-07
0.000100312
2.35893e-07
0.000100341
2.35515e-07
0.000100371
2.33252e-07
0.000100399
2.29433e-07
0.000100428
2.24333e-07
0.000100456
2.18183e-07
0.000100484
2.11173e-07
0.000100511
2.03465e-07
0.000100538
1.95191e-07
0.000100564
1.86461e-07
0.000100589
1.77368e-07
0.000100614
1.67989e-07
0.000100639
1.58388e-07
0.000100662
1.48618e-07
0.000100686
1.38726e-07
0.000100708
1.28751e-07
0.000100731
1.18726e-07
0.000100752
1.08681e-07
0.000100773
9.86451e-08
0.000100793
8.86423e-08
0.000100813
7.86988e-08
0.000100832
6.88328e-08
5.9089e-08
0.00010085
0.000102931
2.11627e-08
0.000102941
6.09666e-08
0.000102956
9.5962e-08
0.000102975
1.25437e-07
0.000102998
1.49458e-07
0.000103023
1.68459e-07
0.00010305
1.8295e-07
0.000103078
1.93463e-07
0.000103107
2.00539e-07
0.000103136
2.04691e-07
0.000103166
2.06375e-07
0.000103195
2.05988e-07
0.000103224
2.03869e-07
0.000103254
2.0031e-07
0.000103282
1.9556e-07
0.000103311
1.89825e-07
0.000103339
1.83281e-07
0.000103366
1.76074e-07
0.000103393
1.68328e-07
0.000103419
1.60147e-07
0.000103445
1.51616e-07
0.00010347
1.42809e-07
0.000103495
1.33787e-07
0.000103519
1.24604e-07
0.000103542
1.15304e-07
0.000103565
1.05925e-07
0.000103587
9.65039e-08
0.000103609
8.70696e-08
0.00010363
7.76509e-08
0.00010365
6.82738e-08
0.00010367
5.8965e-08
0.000103689
4.97443e-08
4.06559e-08
0.000103707
0.000105872
1.79447e-08
0.000105881
5.17279e-08
0.000105896
8.15439e-08
0.000105914
1.06808e-07
0.000105936
1.27522e-07
0.000105961
1.43988e-07
0.000105987
1.56592e-07
0.000106015
1.65757e-07
0.000106043
1.71921e-07
0.000106073
1.75507e-07
0.000106102
1.76897e-07
0.000106132
1.76429e-07
0.000106161
1.74396e-07
0.00010619
1.71052e-07
0.000106219
1.66616e-07
0.000106248
1.61271e-07
0.000106276
1.55175e-07
0.000106303
1.4846e-07
0.000106331
1.4124e-07
0.000106357
1.33608e-07
0.000106383
1.25646e-07
0.000106408
1.17422e-07
0.000106433
1.08995e-07
0.000106457
1.00416e-07
0.000106481
9.17265e-08
0.000106504
8.29668e-08
0.000106526
7.41702e-08
0.000106548
6.53677e-08
0.000106569
5.65872e-08
0.00010659
4.78554e-08
0.000106609
3.9198e-08
0.000106628
3.06351e-08
2.22075e-08
0.000106647
0.000108896
1.48536e-08
0.000108905
4.28375e-08
0.000108919
6.76107e-08
0.000108937
8.87024e-08
0.000108959
1.06081e-07
0.000108983
1.19945e-07
0.000109009
1.30577e-07
0.000109036
1.38301e-07
0.000109065
1.43463e-07
0.000109094
1.464e-07
0.000109123
1.47423e-07
0.000109153
1.46812e-07
0.000109183
1.44814e-07
0.000109212
1.41646e-07
0.000109241
1.37493e-07
0.00010927
1.32516e-07
0.000109298
1.26854e-07
0.000109326
1.20624e-07
0.000109353
1.13927e-07
0.00010938
1.06849e-07
0.000109406
9.94631e-08
0.000109432
9.18337e-08
0.000109457
8.40153e-08
0.000109481
7.60553e-08
0.000109505
6.79957e-08
0.000109528
5.98732e-08
0.000109551
5.17211e-08
0.000109572
4.35692e-08
0.000109593
3.54457e-08
0.000109614
2.73759e-08
0.000109634
1.93854e-08
0.000109653
1.14931e-08
3.7377e-09
0.000109671
0.000112007
1.1853e-08
0.000112016
3.41974e-08
0.00011203
5.40293e-08
0.000112047
7.09799e-08
0.000112069
8.49991e-08
0.000112092
9.62079e-08
0.000112118
1.04799e-07
0.000112145
1.11008e-07
0.000112174
1.15093e-07
0.000112203
1.17311e-07
0.000112232
1.17906e-07
0.000112262
1.17102e-07
0.000112292
1.15097e-07
0.000112321
1.1207e-07
0.000112351
1.08176e-07
0.00011238
1.0355e-07
0.000112408
9.83112e-08
0.000112436
9.2561e-08
0.000112464
8.63876e-08
0.000112491
7.98676e-08
0.000112517
7.30671e-08
0.000112543
6.60439e-08
0.000112568
5.88481e-08
0.000112593
5.15242e-08
0.000112616
4.41111e-08
0.00011264
3.6644e-08
0.000112662
2.91546e-08
0.000112684
2.16716e-08
0.000112705
1.42219e-08
0.000112726
6.83023e-09
0.000112746
-4.79094e-10
0.000112765
-7.68755e-09
-1.47584e-08
0.000112783
0.000115207
8.90653e-09
0.000115216
2.57126e-08
0.000115229
4.06685e-08
0.000115247
5.34951e-08
0.000115268
6.41346e-08
0.000115291
7.26458e-08
0.000115317
7.91418e-08
0.000115344
8.37754e-08
0.000115372
8.67234e-08
0.000115402
8.81689e-08
0.000115431
8.82892e-08
0.000115461
8.72509e-08
0.000115491
8.5207e-08
0.000115521
8.22964e-08
0.00011555
7.8643e-08
0.000115579
7.43571e-08
0.000115608
6.95358e-08
0.000115637
6.42648e-08
0.000115664
5.86191e-08
0.000115691
5.26651e-08
0.000115718
4.64606e-08
0.000115744
4.0057e-08
0.000115769
3.34994e-08
0.000115794
2.68284e-08
0.000115818
2.00797e-08
0.000115842
1.32864e-08
0.000115864
6.4777e-09
0.000115886
-3.18777e-10
0.000115907
-7.07815e-09
0.000115928
-1.37771e-08
0.000115948
-2.03934e-08
0.000115967
-2.69108e-08
-3.32968e-08
0.000115986
0.000118499
5.97534e-09
0.000118507
1.72874e-08
0.00011852
2.73939e-08
0.000118538
3.60961e-08
0.000118559
4.33345e-08
0.000118582
4.91134e-08
0.000118608
5.34729e-08
0.000118635
5.64876e-08
0.000118664
5.82568e-08
0.000118693
5.88909e-08
0.000118723
5.85026e-08
0.000118753
5.72028e-08
0.000118783
5.50978e-08
0.000118813
5.22876e-08
0.000118843
4.88642e-08
0.000118872
4.49118e-08
0.000118901
4.05065e-08
0.00011893
3.5717e-08
0.000118958
3.0605e-08
0.000118985
2.52256e-08
0.000119012
1.96283e-08
0.000119038
1.38573e-08
0.000119064
7.95272e-09
0.000119089
1.95006e-09
0.000119113
-4.11754e-09
0.000119136
-1.02208e-08
0.000119159
-1.63319e-08
0.000119181
-2.24263e-08
0.000119203
-2.848e-08
0.000119223
-3.44718e-08
0.000119243
-4.038e-08
0.000119263
-4.61884e-08
-5.18651e-08
0.000119281
0.000121884
3.02793e-09
0.000121893
8.83183e-09
0.000121906
1.40712e-08
0.000121923
1.86259e-08
0.000121944
2.24358e-08
0.000121968
2.54534e-08
0.000121994
2.76469e-08
0.000122021
2.90143e-08
0.00012205
2.95792e-08
0.00012208
2.938e-08
0.00012211
2.84652e-08
0.00012214
2.68905e-08
0.00012217
2.47156e-08
0.000122201
2.20012e-08
0.000122231
1.88073e-08
0.00012226
1.51916e-08
0.00012229
1.12089e-08
0.000122318
6.91055e-09
0.000122347
2.34405e-09
0.000122374
-2.44644e-09
0.000122401
-7.42079e-09
0.000122428
-1.25418e-08
0.000122454
-1.77756e-08
0.000122479
-2.30908e-08
0.000122503
-2.8459e-08
0.000122527
-3.38532e-08
0.000122549
-3.92492e-08
0.000122572
-4.46241e-08
0.000122593
-4.99571e-08
0.000122614
-5.52286e-08
0.000122634
-6.04206e-08
0.000122653
-6.55209e-08
-7.0503e-08
0.000122672
0.000125366
4.95157e-11
0.000125375
2.60483e-10
0.000125389
5.6148e-10
0.000125406
9.15592e-10
0.000125427
1.25994e-09
0.000125451
1.49045e-09
0.000125478
1.49983e-09
0.000125505
1.2076e-09
0.000125534
5.59955e-10
0.000125564
-4.77262e-10
0.000125595
-1.92062e-09
0.000125625
-3.77025e-09
0.000125656
-6.01327e-09
0.000125687
-8.62789e-09
0.000125717
-1.15865e-08
0.000125747
-1.48577e-08
0.000125777
-1.84081e-08
0.000125806
-2.22042e-08
0.000125834
-2.62121e-08
0.000125862
-3.03996e-08
0.00012589
-3.47356e-08
0.000125916
-3.91906e-08
0.000125942
-4.37367e-08
0.000125967
-4.83476e-08
0.000125992
-5.29988e-08
0.000126016
-5.76674e-08
0.000126039
-6.23317e-08
0.000126061
-6.69715e-08
0.000126083
-7.15679e-08
0.000126104
-7.6103e-08
0.000126124
-8.05588e-08
0.000126143
-8.49206e-08
-8.91617e-08
0.000126162
0.000128948
-3.00601e-09
0.000128957
-8.55166e-09
0.000128971
-1.33188e-08
0.000128989
-1.72483e-08
0.000129011
-2.04132e-08
0.000129035
-2.2988e-08
0.000129062
-2.51653e-08
0.00012909
-2.71092e-08
0.00012912
-2.89542e-08
0.00012915
-3.08102e-08
0.000129181
-3.2761e-08
0.000129212
-3.48633e-08
0.000129243
-3.71516e-08
0.000129274
-3.96437e-08
0.000129305
-4.23441e-08
0.000129335
-4.52481e-08
0.000129365
-4.83439e-08
0.000129395
-5.1615e-08
0.000129423
-5.50421e-08
0.000129452
-5.86045e-08
0.000129479
-6.22801e-08
0.000129506
-6.60473e-08
0.000129532
-6.98841e-08
0.000129558
-7.37699e-08
0.000129582
-7.76841e-08
0.000129606
-8.16078e-08
0.000129629
-8.55222e-08
0.000129652
-8.94105e-08
0.000129674
-9.32563e-08
0.000129694
-9.70453e-08
0.000129715
-1.00764e-07
0.000129734
-1.04406e-07
-1.07949e-07
0.000129753
0.000132632
-6.20392e-09
0.000132641
-1.77744e-08
0.000132656
-2.78101e-08
0.000132675
-3.61374e-08
0.000132697
-4.28566e-08
0.000132723
-4.82409e-08
0.00013275
-5.25864e-08
0.000132779
-5.615e-08
0.000132809
-5.91542e-08
0.00013284
-6.17903e-08
0.000132872
-6.42115e-08
0.000132903
-6.65321e-08
0.000132935
-6.88339e-08
0.000132967
-7.11735e-08
0.000132998
-7.35879e-08
0.000133029
-7.60981e-08
0.000133059
-7.87136e-08
0.000133089
-8.14351e-08
0.000133118
-8.42576e-08
0.000133147
-8.7171e-08
0.000133174
-9.01632e-08
0.000133202
-9.32196e-08
0.000133228
-9.63254e-08
0.000133254
-9.94643e-08
0.000133279
-1.02621e-07
0.000133303
-1.05779e-07
0.000133326
-1.08925e-07
0.000133349
-1.12042e-07
0.000133371
-1.15118e-07
0.000133392
-1.18137e-07
0.000133412
-1.21086e-07
0.000133432
-1.23951e-07
-1.2671e-07
0.000133451
0.000136422
-9.62538e-09
0.000136432
-2.76306e-08
0.000136447
-4.32244e-08
0.000136467
-5.60958e-08
0.00013649
-6.64093e-08
0.000136517
-7.45838e-08
0.000136545
-8.10439e-08
0.000136575
-8.61517e-08
0.000136606
-9.02291e-08
0.000136638
-9.35588e-08
0.00013667
-9.63694e-08
0.000136703
-9.88345e-08
0.000136735
-1.01084e-07
0.000136767
-1.03213e-07
0.000136799
-1.0529e-07
0.00013683
-1.07361e-07
0.000136861
-1.09456e-07
0.000136891
-1.11592e-07
0.00013692
-1.13776e-07
0.000136949
-1.16011e-07
0.000136977
-1.18291e-07
0.000137005
-1.20611e-07
0.000137031
-1.22961e-07
0.000137057
-1.2533e-07
0.000137082
-1.27707e-07
0.000137107
-1.30081e-07
0.00013713
-1.32439e-07
0.000137153
-1.3477e-07
0.000137175
-1.37064e-07
0.000137196
-1.3931e-07
0.000137216
-1.41502e-07
0.000137236
-1.43637e-07
-1.45701e-07
0.000137255
0.00014032
-1.33821e-08
0.00014033
-3.84296e-08
0.000140347
-5.9981e-08
0.000140369
-7.75649e-08
0.000140394
-9.1492e-08
0.000140421
-1.0241e-07
0.000140451
-1.10907e-07
0.000140483
-1.17462e-07
0.000140515
-1.22509e-07
0.000140548
-1.26431e-07
0.000140581
-1.29537e-07
0.000140614
-1.3206e-07
0.000140647
-1.34178e-07
0.00014068
-1.36025e-07
0.000140712
-1.377e-07
0.000140744
-1.39274e-07
0.000140776
-1.40796e-07
0.000140806
-1.42298e-07
0.000140836
-1.438e-07
0.000140866
-1.45315e-07
0.000140894
-1.46846e-07
0.000140922
-1.48395e-07
0.000140949
-1.49956e-07
0.000140975
-1.51526e-07
0.000141001
-1.53095e-07
0.000141025
-1.54656e-07
0.000141049
-1.562e-07
0.000141072
-1.57718e-07
0.000141094
-1.59201e-07
0.000141115
-1.60637e-07
0.000141136
-1.62016e-07
0.000141156
-1.63324e-07
-1.64546e-07
0.000141174
0.000144329
-1.76374e-08
0.000144341
-5.06226e-08
0.00014436
-7.86692e-08
0.000144383
-1.01128e-07
0.00014441
-1.18615e-07
0.00014444
-1.32133e-07
0.000144472
-1.42474e-07
0.000144505
-1.50263e-07
0.000144538
-1.56074e-07
0.000144572
-1.6041e-07
0.000144606
-1.63658e-07
0.00014464
-1.6611e-07
0.000144674
-1.67988e-07
0.000144707
-1.69462e-07
0.00014474
-1.7066e-07
0.000144773
-1.71672e-07
0.000144805
-1.72564e-07
0.000144836
-1.73384e-07
0.000144866
-1.74162e-07
0.000144896
-1.74918e-07
0.000144924
-1.75666e-07
0.000144952
-1.76411e-07
0.00014498
-1.77156e-07
0.000145006
-1.77898e-07
0.000145032
-1.78635e-07
0.000145056
-1.79362e-07
0.00014508
-1.80074e-07
0.000145103
-1.80764e-07
0.000145125
-1.81427e-07
0.000145147
-1.82059e-07
0.000145168
-1.82657e-07
0.000145187
-1.83226e-07
-1.83753e-07
0.000145207
0.000148453
-2.26476e-08
0.000148467
-6.48916e-08
0.000148489
-1.00116e-07
0.000148515
-1.27579e-07
0.000148545
-1.48546e-07
0.000148577
-1.6453e-07
0.000148612
-1.7652e-07
0.000148647
-1.85297e-07
0.000148682
-1.91619e-07
0.000148718
-1.96129e-07
0.000148753
-1.99304e-07
0.000148789
-2.01491e-07
0.000148824
-2.0296e-07
0.000148858
-2.03916e-07
0.000148892
-2.04511e-07
0.000148925
-2.04853e-07
0.000148958
-2.05023e-07
0.000148989
-2.05079e-07
0.00014902
-2.05061e-07
0.00014905
-2.04997e-07
0.00014908
-2.04904e-07
0.000149108
-2.04795e-07
0.000149136
-2.04675e-07
0.000149162
-2.04547e-07
0.000149188
-2.04411e-07
0.000149213
-2.04266e-07
0.000149237
-2.04107e-07
0.00014926
-2.0393e-07
0.000149282
-2.03731e-07
0.000149304
-2.03501e-07
0.000149324
-2.03233e-07
0.000149344
-2.02913e-07
-2.02534e-07
0.000149363
0.000152695
-2.88643e-08
0.000152713
-8.23947e-08
0.000152738
-1.25508e-07
0.000152768
-1.57706e-07
0.000152801
-1.81664e-07
0.000152837
-1.99667e-07
0.000152873
-2.12885e-07
0.00015291
-2.22267e-07
0.000152947
-2.28782e-07
0.000152984
-2.33211e-07
0.000153021
-2.361e-07
0.000153057
-2.37844e-07
0.000153093
-2.38754e-07
0.000153128
-2.39063e-07
0.000153163
-2.38943e-07
0.000153196
-2.38519e-07
0.000153229
-2.37884e-07
0.000153261
-2.37102e-07
0.000153292
-2.36223e-07
0.000153323
-2.35281e-07
0.000153352
-2.34298e-07
0.000153381
-2.3329e-07
0.000153408
-2.32267e-07
0.000153435
-2.31235e-07
0.000153461
-2.30197e-07
0.000153486
-2.29153e-07
0.00015351
-2.28103e-07
0.000153533
-2.27047e-07
0.000153555
-2.25981e-07
0.000153576
-2.24907e-07
0.000153597
-2.23827e-07
0.000153617
-2.22747e-07
-2.2166e-07
0.000153636
0.00015706
-3.70379e-08
0.000157082
-1.05096e-07
0.000157114
-1.57061e-07
0.00015715
-1.93703e-07
0.000157188
-2.20154e-07
0.000157228
-2.39533e-07
0.000157269
-2.53184e-07
0.000157309
-2.62392e-07
0.000157348
-2.68443e-07
0.000157387
-2.72255e-07
0.000157426
-2.74418e-07
0.000157463
-2.75362e-07
0.0001575
-2.75426e-07
0.000157536
-2.74857e-07
0.000157571
-2.73837e-07
0.000157605
-2.72494e-07
0.000157638
-2.70925e-07
0.00015767
-2.69199e-07
0.000157701
-2.67368e-07
0.000157731
-2.65468e-07
0.00015776
-2.63524e-07
0.000157789
-2.61555e-07
0.000157816
-2.59573e-07
0.000157842
-2.57586e-07
0.000157868
-2.55599e-07
0.000157892
-2.53614e-07
0.000157916
-2.51632e-07
0.000157938
-2.49652e-07
0.00015796
-2.47671e-07
0.000157981
-2.45687e-07
0.000158
-2.43693e-07
0.000158019
-2.4168e-07
-2.39645e-07
0.000158037
0.00016155
-4.90118e-08
0.000161581
-1.35632e-07
0.000161619
-1.95197e-07
0.00016166
-2.34432e-07
0.000161702
-2.62613e-07
0.000161746
-2.82838e-07
0.000161789
-2.96261e-07
0.000161831
-3.04659e-07
0.000161872
-3.09708e-07
0.000161912
-3.12438e-07
0.000161951
-3.13469e-07
0.000161989
-3.13263e-07
0.000162026
-3.12183e-07
0.000162062
-3.1049e-07
0.000162096
-3.08365e-07
0.00016213
-3.05938e-07
0.000162162
-3.03302e-07
0.000162193
-3.00526e-07
0.000162224
-2.97659e-07
0.000162253
-2.94738e-07
0.000162281
-2.91785e-07
0.000162308
-2.8882e-07
0.000162335
-2.85854e-07
0.00016236
-2.82896e-07
0.000162384
-2.7995e-07
0.000162408
-2.77019e-07
0.00016243
-2.74105e-07
0.000162452
-2.7121e-07
0.000162473
-2.68333e-07
0.000162492
-2.65477e-07
0.000162511
-2.62645e-07
0.000162529
-2.59848e-07
-2.57083e-07
0.000162547
0.000166174
-6.96579e-08
0.000166223
-1.84583e-07
0.000166276
-2.4776e-07
0.000166326
-2.84597e-07
0.000166374
-3.11059e-07
0.000166421
-3.29286e-07
0.000166465
-3.4022e-07
0.000166506
-3.46215e-07
0.000166546
-3.49164e-07
0.000166583
-3.50031e-07
0.000166619
-3.49365e-07
0.000166654
-3.47603e-07
0.000166687
-3.45089e-07
0.000166718
-3.42057e-07
0.000166748
-3.38669e-07
0.000166777
-3.35037e-07
0.000166805
-3.31245e-07
0.000166832
-3.27354e-07
0.000166858
-3.23405e-07
0.000166883
-3.1943e-07
0.000166906
-3.1545e-07
0.000166929