/*--------------------------------*- C++ -*----------------------------------*\
| =========                 |                                                 |
| \\      /  F ield         | OpenFOAM: The Open Source CFD Toolbox           |
|  \\    /   O peration     | Version:  4.1                                   |
|   \\  /    A nd           | Web:      www.OpenFOAM.org                      |
|    \\/     M anipulation  |                                                 |
\*---------------------------------------------------------------------------*/
FoamFile
{
    version     2.0;
    format      ascii;
    class       volScalarField;
    location    "2000";
    object      p;
}
// * * * * * * * * * * * * * * * * * * * * * * * * * * * * * * * * * * * * * //

dimensions      [0 2 -2 0 0 0 0];

internalField   nonuniform List<scalar> 
26785
(
657.799
673.434
674.683
671.856
667.144
663.221
661.202
660.892
661.524
662.418
663.569
664.696
665.816
666.79
667.598
668.197
668.556
668.657
668.474
667.975
667.132
665.913
664.292
662.261
659.845
657.09
654.041
650.777
647.41
643.934
640.346
636.831
632.97
627.232
618.42
606.526
592.28
576.609
560.304
543.895
527.692
511.852
496.449
481.511
467.047
453.05
439.5
426.367
413.615
401.206
389.111
377.31
365.801
354.598
343.735
333.258
323.227
313.707
304.767
296.473
288.88
282.029
275.944
270.623
266.046
262.168
258.929
256.252
254.052
252.237
250.712
249.38
248.15
246.929
245.631
244.172
242.471
240.448
238.027
235.135
231.701
227.664
222.966
217.559
211.4
204.453
196.684
188.062
178.556
168.145
156.81
144.545
131.33
117.146
101.886
85.5663
67.7646
49.4583
27.8715
12.763
657.744
673.349
674.609
671.806
667.111
663.205
661.2
660.895
661.525
662.415
663.564
664.69
665.809
666.783
667.591
668.189
668.547
668.648
668.465
667.966
667.123
665.904
664.282
662.251
659.834
657.078
654.028
650.763
647.396
643.921
640.335
636.834
633.003
627.287
618.488
606.575
592.255
576.506
560.161
543.746
527.55
511.72
496.324
481.393
466.936
452.945
439.402
426.274
413.526
401.121
389.026
377.225
365.715
354.51
343.645
333.167
323.136
313.616
304.678
296.385
288.795
281.948
275.868
270.553
265.982
262.112
258.88
256.212
254.022
252.217
250.701
249.379
248.157
246.946
245.657
244.208
242.515
240.501
238.089
235.205
231.781
227.751
223.061
217.66
211.507
204.566
196.802
188.183
178.682
168.273
156.94
144.676
131.465
117.288
102.034
85.7256
67.9077
49.6087
27.9049
12.8931
657.491
673.18
674.451
671.688
667.037
663.165
661.177
660.888
661.522
662.41
663.557
664.68
665.799
666.769
667.575
668.172
668.528
668.629
668.445
667.946
667.104
665.885
664.264
662.231
659.813
657.056
654.004
650.738
647.371
643.899
640.314
636.842
633.07
627.412
618.561
606.473
591.999
576.155
559.753
543.314
527.125
511.323
495.965
481.076
466.657
452.7
439.185
426.079
413.346
400.949
388.86
377.06
365.548
354.342
343.475
332.996
322.964
313.446
304.51
296.221
288.636
281.795
275.722
270.417
265.857
261.999
258.781
256.129
253.954
252.166
250.668
249.365
248.162
246.969
245.7
244.269
242.597
240.602
238.21
235.345
231.938
227.926
223.25
217.863
211.721
204.789
197.034
188.423
178.927
168.521
157.189
144.926
131.716
117.549
102.306
86.0163
68.1698
49.8932
27.9572
13.1313
657.096
672.906
674.206
671.488
666.899
663.08
661.119
660.853
661.503
662.4
663.546
664.663
665.778
666.743
667.547
668.14
668.496
668.597
668.413
667.916
667.075
665.857
664.236
662.202
659.782
657.024
653.97
650.7
647.335
643.864
640.284
636.852
633.173
627.568
618.511
606.124
591.355
575.306
558.853
542.486
526.418
510.737
495.481
480.67
466.31
452.397
438.912
425.827
413.107
400.718
388.631
376.83
365.316
354.108
343.24
332.761
322.731
313.216
304.284
296.001
288.422
281.59
275.526
270.231
265.684
261.841
258.642
256.009
253.858
252.093
250.621
249.344
248.169
247.005
245.765
244.364
242.721
240.757
238.394
235.558
232.179
228.191
223.537
218.169
212.044
205.126
197.383
188.783
179.294
168.892
157.56
145.295
132.085
117.927
102.693
86.4286
68.5405
50.3055
28.0337
13.505
656.515
672.526
673.867
671.202
666.691
662.939
661.011
660.773
661.451
662.37
663.522
664.635
665.744
666.703
667.503
668.095
668.451
668.552
668.37
667.875
667.037
665.821
664.2
662.165
659.743
656.984
653.926
650.652
647.293
643.811
640.256
636.842
633.346
627.669
618.159
605.251
590.107
573.979
557.659
541.487
525.599
510.06
494.911
480.179
465.879
452.01
438.559
425.499
412.796
400.417
388.335
376.537
365.025
353.818
342.953
332.479
322.454
312.945
304.019
295.741
288.168
281.342
275.285
270
265.466
261.639
258.458
255.849
253.724
251.991
250.553
249.312
248.175
247.05
245.85
244.489
242.886
240.963
238.64
235.842
232.499
228.544
223.92
218.577
212.474
205.575
197.848
189.26
179.78
169.38
158.045
145.773
132.559
118.41
103.192
86.9684
69.0316
50.8601
28.089
14.1344
655.753
672.033
673.427
670.817
666.398
662.728
660.843
660.638
661.357
662.308
663.478
664.591
665.694
666.646
667.443
668.033
668.39
668.493
668.315
667.823
666.989
665.776
664.156
662.12
659.696
656.934
653.872
650.594
647.24
643.748
640.219
636.843
633.603
627.513
617.33
603.863
588.511
572.49
556.395
540.448
524.743
509.344
494.298
479.643
465.4
451.574
438.156
425.12
412.436
400.071
388.001
376.213
364.71
353.513
342.657
332.192
322.177
312.675
303.755
295.481
287.91
281.084
275.028
269.746
265.218
261.403
258.24
255.655
253.56
251.863
250.466
249.269
248.178
247.1
245.948
244.636
243.083
241.208
238.934
236.183
232.884
228.971
224.383
219.072
212.996
206.12
198.412
189.84
180.372
169.978
158.64
146.363
133.144
119.007
103.806
87.629
69.6341
51.5606
28.1426
15.034
654.972
671.408
672.88
670.327
666.011
662.435
660.602
660.437
661.211
662.207
663.406
664.526
665.624
666.569
667.365
667.954
668.313
668.42
668.246
667.76
666.931
665.723
664.105
662.068
659.643
656.877
653.811
650.53
647.17
643.691
640.14
636.959
633.779
626.962
616.086
602.232
586.893
571.093
555.245
539.502
523.952
508.665
493.701
479.106
464.908
451.118
437.729
424.717
412.054
399.707
387.653
375.878
364.388
353.205
342.366
331.919
321.922
312.438
303.532
295.266
287.696
280.867
274.803
269.513
264.978
261.161
258.005
255.436
253.366
251.702
250.344
249.194
248.154
247.13
246.034
244.781
243.286
241.47
239.252
236.556
233.307
229.439
224.89
219.611
213.561
206.704
199.013
190.454
180.995
170.603
159.255
146.954
133.702
119.544
104.335
88.2066
70.1843
52.2445
28.4908
15.6618
654.017
670.658
672.215
669.72
665.52
662.05
660.278
660.159
661.004
662.057
663.299
664.433
665.531
666.469
667.265
667.855
668.219
668.332
668.165
667.687
666.865
665.663
664.048
662.01
659.582
656.813
653.743
650.46
647.08
643.646
640.034
637.21
633.686
626.059
614.632
600.626
585.447
569.889
554.252
538.673
523.246
508.053
493.16
478.618
464.461
450.702
437.335
424.34
411.688
399.349
387.3
375.53
364.048
352.878
342.056
331.632
321.663
312.209
303.331
295.09
287.537
280.716
274.652
269.352
264.805
260.976
257.811
255.24
253.178
251.53
250.199
249.083
248.085
247.11
246.069
244.875
243.445
241.696
239.545
236.916
233.73
229.919
225.419
220.179
214.154
207.313
199.626
191.066
181.6
171.195
159.824
147.485
134.179
119.961
104.672
88.4848
70.3633
52.4104
28.8906
15.3489
652.914
669.766
671.427
668.989
664.914
661.563
659.863
659.798
660.729
661.853
663.15
664.308
665.41
666.344
667.142
667.736
668.106
668.228
668.07
667.602
666.79
665.596
663.985
661.946
659.515
656.741
653.67
650.38
646.976
643.593
639.968
637.474
633.291
624.939
613.138
599.134
584.15
568.8
553.334
537.888
522.568
507.46
492.637
478.151
464.037
450.308
436.96
423.976
411.327
398.986
386.933
375.161
363.681
352.518
341.711
331.309
321.368
311.946
303.103
294.895
287.373
280.575
274.526
269.233
264.684
260.848
257.673
255.092
253.024
251.378
250.057
248.963
247.997
247.067
246.08
244.95
243.588
241.911
239.834
237.275
234.157
230.407
225.961
220.765
214.773
207.953
200.275
191.714
182.24
171.823
160.435
148.074
134.732
120.461
105.084
88.8177
70.5983
52.581
29.3658
14.6434
651.626
668.731
670.506
668.126
664.185
660.966
659.346
659.345
660.378
661.587
662.953
664.147
665.259
666.192
666.994
667.594
667.974
668.107
667.962
667.506
666.707
665.522
663.916
661.876
659.442
656.664
653.592
650.288
646.87
643.511
639.992
637.628
632.674
623.72
611.67
597.723
582.911
567.731
552.405
537.076
521.854
506.83
492.078
477.649
463.578
449.879
436.55
423.572
410.922
398.576
386.517
374.743
363.265
352.112
341.323
330.945
321.034
311.646
302.839
294.667
287.177
280.406
274.377
269.096
264.552
260.713
257.532
254.944
252.872
251.227
249.916
248.843
247.913
247.03
246.104
245.044
243.76
242.164
240.169
237.69
234.647
230.965
226.578
221.431
215.476
208.681
201.018
192.462
182.986
172.562
161.163
148.786
135.415
121.105
105.662
89.3341
70.9859
52.9277
29.6822
14.4519
650.22
667.544
669.447
667.123
663.325
660.248
658.721
658.794
659.945
661.255
662.705
663.945
665.074
666.01
666.82
667.429
667.822
667.969
667.839
667.399
666.615
665.442
663.842
661.802
659.362
656.582
653.508
650.181
646.766
643.4
640.099
637.634
631.93
622.469
610.23
596.341
581.671
566.633
551.432
536.213
521.087
506.146
491.462
477.089
463.06
449.39
436.077
423.107
410.458
398.11
386.05
374.277
362.808
351.668
340.899
330.548
320.668
311.315
302.544
294.407
286.948
280.204
274.195
268.927
264.388
260.549
257.364
254.772
252.698
251.058
249.762
248.716
247.825
246.996
246.136
245.153
243.954
242.448
240.545
238.158
235.202
231.6
227.285
222.197
216.29
209.528
201.886
193.339
183.863
173.432
162.019
149.62
136.215
121.857
106.328
89.9174
71.3814
53.3369
29.593
15.1986
648.759
666.198
668.241
665.971
662.325
659.403
657.98
658.14
659.426
660.854
662.402
663.7
664.852
665.796
666.616
667.239
667.648
667.812
667.701
667.28
666.514
665.356
663.764
661.721
659.277
656.495
653.419
650.06
646.66
643.277
640.257
637.512
631.115
621.207
608.805
594.964
580.414
565.502
550.419
535.306
520.274
505.415
490.801
476.483
462.496
448.855
435.561
422.6
409.954
397.606
385.547
373.78
362.32
351.196
340.449
330.125
320.276
310.957
302.221
294.117
286.69
279.971
273.982
268.727
264.195
260.358
257.173
254.58
252.508
250.877
249.6
248.584
247.738
246.968
246.179
245.279
244.171
242.763
240.961
238.673
235.813
232.302
228.067
223.047
217.196
210.475
202.86
194.327
184.855
174.417
162.989
150.568
137.126
122.717
107.096
90.5938
71.8329
53.8594
29.0682
17.0081
647.115
664.693
666.883
664.664
661.177
658.424
657.116
657.377
658.816
660.379
662.04
663.409
664.592
665.548
666.384
667.023
667.452
667.638
667.549
667.151
666.405
665.264
663.681
661.636
659.187
656.403
653.323
649.928
646.545
643.164
640.43
637.29
630.257
619.936
607.39
593.589
579.143
564.347
549.375
534.365
519.426
504.648
490.101
475.838
461.893
448.282
435.006
422.055
409.413
397.068
385.012
373.252
361.803
350.697
339.973
329.676
319.859
310.574
301.873
293.802
286.405
279.712
273.742
268.501
263.977
260.144
256.959
254.368
252.302
250.684
249.429
248.449
247.651
246.944
246.232
245.42
244.411
243.108
241.414
239.235
236.481
233.068
228.922
223.98
218.19
211.516
203.932
195.415
185.946
175.501
164.056
151.609
138.128
123.659
107.938
91.3391
72.3511
54.4751
28.2286
19.5143
645.297
663.024
665.365
663.194
659.876
657.304
656.124
656.501
658.113
659.83
661.62
663.07
664.291
665.265
666.121
666.781
667.233
667.445
667.383
667.01
666.289
665.167
663.593
661.545
659.091
656.307
653.219
649.788
646.411
643.077
640.588
636.995
629.362
618.655
605.979
592.211
577.859
563.169
548.304
533.394
518.545
503.845
489.365
475.155
461.251
447.669
434.412
421.472
408.837
396.496
384.446
372.694
361.259
350.172
339.471
329.203
319.418
310.166
301.499
293.461
286.093
279.425
273.474
268.247
263.732
259.904
256.723
254.137
252.08
250.478
249.25
248.309
247.565
246.926
246.296
245.578
244.674
243.483
241.906
239.845
237.205
233.899
229.85
224.991
219.27
212.648
205.098
196.601
187.136
176.683
165.222
152.749
139.224
124.687
108.869
92.1775
73.0137
55.1415
27.4531
21.6866
643.279
661.186
663.683
661.557
658.415
656.037
655
655.51
657.314
659.206
661.139
662.683
663.95
664.948
665.827
666.512
666.993
667.234
667.202
666.858
666.164
665.064
663.5
661.449
658.99
656.207
653.105
649.642
646.257
643.022
640.713
636.639
628.422
617.355
604.566
590.828
576.56
561.971
547.207
532.392
517.629
503.005
488.589
474.433
460.57
447.017
433.78
420.853
408.226
395.891
383.849
372.108
360.689
349.622
338.946
328.707
318.954
309.735
301.1
293.094
285.754
279.11
273.178
267.965
263.459
259.638
256.463
253.885
251.84
250.258
249.061
248.164
247.479
246.912
246.37
245.754
244.961
243.891
242.439
240.503
237.985
234.795
230.851
226.083
220.437
213.872
206.36
197.883
188.423
177.963
166.483
153.977
140.399
125.793
109.898
93.1251
73.8481
55.7324
27.0919
22.4904
641.213
659.173
661.831
659.747
656.788
654.618
653.737
654.402
656.418
658.505
660.6
662.248
663.568
664.595
665.502
666.219
666.732
667.006
667.008
666.697
666.033
664.956
663.402
661.346
658.883
656.101
652.981
649.49
646.085
642.993
640.793
636.212
627.418
616.027
603.144
589.434
575.245
560.751
546.083
531.358
516.678
502.127
487.775
473.67
459.848
446.326
433.11
420.197
407.581
395.256
383.224
371.496
360.095
349.05
338.4
328.19
318.468
309.282
300.679
292.703
285.39
278.768
272.855
267.656
263.16
259.347
256.181
253.612
251.583
250.026
248.864
248.015
247.392
246.904
246.456
245.946
245.272
244.329
243.01
241.208
238.822
235.755
231.924
227.254
221.688
215.183
207.713
199.258
189.803
179.334
167.831
155.284
141.653
126.99
111.047
94.1809
74.7315
56.1255
27.2471
21.678
639.049
656.987
659.805
657.758
654.991
653.043
652.334
653.174
655.425
657.731
660.003
661.767
663.147
664.209
665.15
665.902
666.453
666.765
666.805
666.529
665.895
664.841
663.297
661.235
658.768
655.986
652.845
649.331
645.906
642.972
640.813
635.677
626.328
614.664
601.707
588.029
573.914
559.508
544.93
530.291
515.69
501.211
486.92
472.867
459.086
445.595
432.403
419.507
406.903
394.591
382.572
370.86
359.478
348.457
337.834
327.654
317.963
308.808
300.236
292.289
285.002
278.402
272.507
267.321
262.837
259.033
255.876
253.32
251.31
249.78
248.657
247.861
247.306
246.901
246.551
246.155
245.607
244.799
243.62
241.96
239.713
236.779
233.068
228.502
223.021
216.581
209.154
200.722
191.272
180.792
169.257
156.667
142.996
128.296
112.303
95.2193
75.4331
56.2678
27.747
19.858
636.688
654.626
657.602
655.588
653.019
651.307
650.787
651.828
654.335
656.885
659.35
661.242
662.691
663.793
664.775
665.57
666.164
666.518
666.598
666.356
665.751
664.717
663.179
661.11
658.64
655.856
652.696
649.167
645.735
642.944
640.74
634.979
625.14
613.264
600.255
586.611
572.566
558.242
543.747
529.189
514.665
500.255
486.025
472.024
458.284
444.827
431.659
418.783
406.195
393.897
381.895
370.202
358.841
347.844
337.249
327.099
317.439
308.315
299.774
291.854
284.591
278.012
272.134
266.962
262.488
258.694
255.549
253.008
251.02
249.521
248.44
247.701
247.218
246.902
246.657
246.38
245.964
245.298
244.268
242.759
240.66
237.866
234.281
229.826
224.435
218.063
210.681
202.272
192.827
182.327
170.756
158.135
144.437
129.704
113.54
96.0116
75.7715
56.0907
28.2538
17.9191
634.113
652.09
655.217
653.231
650.869
649.407
649.094
650.364
653.152
655.97
658.646
660.678
662.203
663.355
664.385
665.23
665.875
666.276
666.396
666.182
665.596
664.574
663.037
660.96
658.487
655.701
652.528
649.008
645.588
642.903
640.512
634.085
623.862
611.829
598.785
585.178
571.199
556.949
542.533
528.053
513.603
499.261
485.091
471.141
457.444
444.021
430.881
418.026
405.458
393.178
381.194
369.522
358.185
347.214
336.648
326.528
316.898
307.805
299.292
291.399
284.16
277.601
271.738
266.579
262.117
258.334
255.201
252.677
250.713
249.248
248.214
247.535
247.129
246.907
246.771
246.62
246.344
245.828
244.954
243.604
241.661
239.015
235.565
231.225
225.929
219.627
212.291
203.907
194.46
183.933
172.34
159.694
145.979
131.121
114.505
96.3551
75.6237
55.5505
28.5106
16.4403
631.32
649.375
652.649
650.687
648.539
647.341
647.253
648.782
651.878
654.991
657.895
660.079
661.69
662.903
663.992
664.9
665.602
666.051
666.2
665.998
665.415
664.393
662.853
660.771
658.298
655.51
652.336
648.866
645.469
642.838
640.078
633.025
622.516
610.361
597.299
583.729
569.809
555.629
541.286
526.88
512.502
498.226
484.116
470.219
456.566
443.179
430.068
417.238
404.692
392.433
380.471
368.822
357.511
346.568
336.031
325.941
316.343
307.28
298.794
290.926
283.709
277.168
271.321
266.174
261.723
257.951
254.832
252.327
250.389
248.961
247.976
247.362
247.038
246.914
246.894
246.875
246.745
246.386
245.678
244.495
242.716
240.226
236.917
232.7
227.501
221.272
213.983
205.622
196.161
185.62
174.008
161.343
147.577
132.289
114.947
96.124
74.9619
54.7184
28.4514
15.5401
628.551
646.476
649.897
647.953
646.027
645.106
645.263
647.087
650.518
653.955
657.102
659.448
661.159
662.448
663.611
664.59
665.35
665.831
665.992
665.787
665.194
664.165
662.623
660.539
658.067
655.278
652.121
648.733
645.349
642.711
639.438
631.848
621.114
608.864
595.795
582.261
568.395
554.278
540.005
525.671
511.362
497.153
483.102
469.257
455.649
442.3
429.222
416.42
403.898
391.663
379.726
368.103
356.82
345.907
335.401
325.342
315.774
306.74
298.281
290.437
283.24
276.717
270.883
265.748
261.308
257.548
254.443
251.959
250.049
248.66
247.728
247.182
246.943
246.922
247.024
247.143
247.166
246.973
246.438
245.431
243.825
241.498
238.338
234.248
229.152
222.996
215.757
207.406
197.939
187.394
175.745
163.101
149.001
132.895
114.73
95.3125
73.8954
53.7266
28.1416
15.0693
625.637
643.404
646.958
645.027
643.331
642.7
643.123
645.282
649.078
652.867
656.273
658.784
660.605
661.988
663.233
664.284
665.094
665.598
665.762
665.55
664.942
663.898
662.35
660.264
657.794
655.005
651.878
648.57
645.185
642.459
638.616
630.579
619.659
607.338
594.271
580.77
566.952
552.895
538.688
524.423
510.183
496.039
482.048
468.256
454.695
441.387
428.343
415.571
403.078
390.871
378.962
367.368
356.115
345.233
334.758
324.731
315.193
306.187
297.755
289.933
282.755
276.248
270.427
265.303
260.873
257.124
254.035
251.572
249.692
248.345
247.468
246.994
246.844
246.931
247.16
247.423
247.607
247.587
247.233
246.411
244.987
242.832
239.828
235.871
230.879
224.801
217.606
209.258
199.809
189.217
177.613
164.817
149.86
132.772
113.863
94.0418
72.5975
52.6846
27.6842
14.8257
622.514
640.155
643.832
641.911
640.452
640.122
640.835
643.372
647.568
651.738
655.415
658.091
660.025
661.509
662.847
663.969
664.822
665.343
665.509
665.287
664.663
663.6
662.042
659.954
657.487
654.7
651.603
648.346
644.937
642.044
637.637
629.225
618.155
605.783
592.722
579.252
565.478
551.477
537.335
523.138
508.965
494.885
480.955
467.217
453.704
440.438
427.432
414.695
402.234
390.057
378.179
366.617
355.396
344.547
334.105
324.109
314.602
305.624
297.216
289.416
282.256
275.763
269.954
264.839
260.419
256.682
253.608
251.167
249.319
248.015
247.197
246.797
246.74
246.94
247.3
247.715
248.066
248.227
248.064
247.435
246.202
244.228
241.386
237.566
232.682
226.686
219.518
211.203
201.732
191.134
179.609
166.042
149.919
131.937
112.471
92.4929
71.2154
51.6527
27.1637
14.6571
619.138
636.733
640.52
638.604
637.39
637.372
638.398
641.364
645.997
650.578
654.535
657.376
659.421
661.013
662.448
663.641
664.533
665.067
665.23
664.998
664.357
663.276
661.707
659.616
657.151
654.365
651.292
648.049
644.595
641.469
636.528
627.796
616.604
604.197
591.145
577.703
563.971
550.025
535.944
521.813
507.706
493.691
479.821
466.139
452.676
439.455
426.49
413.79
401.365
389.223
377.379
365.851
354.665
343.85
333.442
323.48
314.002
305.052
296.668
288.888
281.745
275.264
269.465
264.359
259.947
256.221
253.163
250.745
248.929
247.67
246.912
246.59
246.63
246.947
247.444
248.016
248.542
248.892
248.928
248.503
247.47
245.684
243.013
239.335
234.566
228.64
221.509
213.233
203.675
193.303
181.311
166.408
149.195
130.509
110.738
90.8262
69.8365
50.6527
26.6315
14.4801
615.531
633.136
637.023
635.107
634.146
634.448
635.814
639.266
644.378
649.397
653.641
656.643
658.804
660.511
662.045
663.302
664.225
664.767
664.923
664.678
664.02
662.921
661.341
659.247
656.782
653.993
650.934
647.679
644.157
640.747
635.306
626.297
615.008
602.577
589.535
576.121
562.43
548.535
534.515
520.448
506.408
492.456
478.647
465.022
451.612
438.439
425.518
412.859
400.473
388.369
376.562
365.072
353.923
343.145
332.773
322.843
313.396
304.473
296.112
288.351
281.222
274.753
268.963
263.864
259.46
255.744
252.701
250.306
248.523
247.311
246.615
246.373
246.513
246.95
247.591
248.325
249.033
249.581
249.825
249.613
248.789
247.202
244.708
241.178
236.527
230.657
223.609
215.252
205.842
195.514
182.16
165.897
147.81
128.663
108.839
89.1432
68.4966
49.6851
26.1119
14.2629
612.013
629.365
633.344
631.423
630.723
631.351
633.086
637.089
642.727
648.209
652.738
655.897
658.18
660.008
661.637
662.95
663.896
664.439
664.585
664.326
663.65
662.533
660.94
658.84
656.372
653.576
650.521
647.23
643.612
639.884
633.98
624.733
613.366
600.919
587.891
574.503
560.851
547.008
533.046
519.043
505.068
491.181
477.434
463.867
450.512
437.39
424.516
411.902
399.558
387.497
375.731
364.282
353.173
342.433
332.097
322.202
312.786
303.889
295.55
287.806
280.691
274.231
268.448
263.355
258.957
255.251
252.222
249.85
248.101
246.936
246.303
246.144
246.387
246.949
247.737
248.641
249.539
250.293
250.754
250.764
250.16
248.78
246.47
243.097
238.554
232.766
225.76
217.316
208.387
197.069
182
164.649
145.924
126.582
106.895
87.4901
67.2009
48.7423
25.6116
14.003
608.32
625.432
629.484
627.555
627.124
628.082
630.218
634.846
641.062
647.027
651.831
655.142
657.552
659.503
661.22
662.577
663.537
664.077
664.212
663.939
663.246
662.108
660.5
658.393
655.917
653.11
650.045
646.696
642.954
638.889
632.563
623.109
611.679
599.223
586.208
572.847
559.234
545.44
531.537
517.596
503.686
489.864
476.181
462.675
449.376
436.308
423.485
410.92
398.623
386.607
374.887
363.481
352.415
341.716
331.418
321.557
312.172
303.301
294.984
287.256
280.153
273.701
267.923
262.834
258.441
254.743
251.728
249.378
247.663
246.545
245.978
245.903
246.251
246.943
247.883
248.962
250.056
251.024
251.713
251.956
251.581
250.419
248.301
245.093
240.645
234.996
227.834
219.806
210.779
197.498
180.991
162.816
143.714
124.408
104.968
85.8781
65.9409
47.8155
25.1292
13.71
604.42
621.336
625.448
623.506
623.352
624.643
627.216
632.553
639.405
645.86
650.922
654.381
656.922
658.994
660.786
662.177
663.145
663.679
663.803
663.516
662.805
661.644
660.018
657.904
655.415
652.59
649.501
646.072
642.183
637.774
631.063
621.429
609.946
597.485
584.487
571.152
557.577
543.832
529.986
516.108
502.262
488.507
474.888
461.444
448.206
435.194
422.426
409.914
397.668
385.702
374.03
362.672
351.651
340.995
330.737
320.912
311.557
302.712
294.415
286.703
279.609
273.163
267.389
262.302
257.913
254.221
251.219
248.89
247.209
246.139
245.638
245.648
246.105
246.929
248.025
249.286
250.584
251.775
252.701
253.187
253.053
252.117
250.203
247.153
242.839
237.241
230.012
222.778
212.163
196.877
179.313
160.557
141.343
122.224
103.079
84.3009
64.7047
46.8976
24.6601
13.3964
600.246
617.083
621.237
619.282
619.412
621.036
624.089
630.231
637.777
644.717
650.014
653.616
656.289
658.474
660.329
661.745
662.717
663.245
663.358
663.056
662.326
661.141
659.494
657.368
654.863
652.011
648.883
645.356
641.3
636.548
629.486
619.693
608.166
595.705
582.723
569.416
555.879
542.181
528.392
514.576
500.797
487.107
473.555
460.176
447
434.05
421.34
408.885
396.694
384.782
373.162
361.855
350.882
340.271
330.055
320.267
310.944
302.124
293.847
286.149
279.063
272.622
266.848
261.762
257.374
253.687
250.696
248.388
246.739
245.718
245.282
245.38
245.947
246.905
248.163
249.611
251.12
252.543
253.715
254.456
254.574
253.875
252.176
249.275
245.165
239.341
232.834
225.405
212.233
195.464
177.111
158.041
138.921
120.067
101.223
82.7463
63.4817
45.9836
24.1996
13.0718
595.847
612.675
616.857
614.888
615.311
617.265
620.85
627.907
636.202
643.602
649.104
652.845
655.649
657.935
659.843
661.279
662.252
662.773
662.876
662.558
661.807
660.596
658.925
656.785
654.255
651.369
648.188
644.545
640.306
635.216
627.836
617.903
606.339
593.88
580.916
567.636
554.137
540.487
526.754
513.001
499.288
485.666
472.182
458.87
445.761
432.875
420.228
407.833
395.702
383.848
372.285
361.031
350.11
339.548
329.374
319.624
310.333
301.54
293.281
285.595
278.517
272.077
266.303
261.215
256.826
253.142
250.16
247.871
246.254
245.28
244.911
245.096
245.775
246.872
248.295
249.934
251.662
253.326
254.755
255.761
256.143
255.694
254.214
251.499
247.497
241.56
236.298
226.73
211.242
193.438
174.533
155.404
136.505
117.941
99.3904
81.2027
62.2639
45.0706
23.7443
12.7429
591.62
608.114
612.311
610.329
611.056
613.337
617.517
625.612
634.697
642.513
648.191
652.067
654.995
657.372
659.324
660.774
661.747
662.263
662.355
662.019
661.245
660.007
658.311
656.151
653.59
650.661
647.412
643.64
639.205
633.787
626.117
616.059
604.464
592.009
579.064
565.812
552.35
538.749
525.072
511.382
497.735
484.183
470.769
457.528
444.487
431.669
419.089
406.76
394.693
382.901
371.399
360.204
349.337
338.825
328.697
318.986
309.728
300.96
292.72
285.045
277.972
271.532
265.755
260.662
256.27
252.587
249.613
247.341
245.754
244.827
244.523
244.797
245.589
246.826
248.417
250.255
252.208
254.121
255.818
257.102
257.759
257.572
256.31
253.87
249.618
244.608
239.35
226.569
209.506
190.925
171.732
152.735
134.115
115.838
97.5671
79.6609
61.0465
44.1569
23.2915
12.4131
587.227
603.413
607.599
605.611
606.656
609.259
614.117
623.388
633.276
641.444
647.27
651.276
654.322
656.779
658.767
660.23
661.204
661.714
661.793
661.438
660.64
659.372
657.647
655.463
652.865
649.884
646.552
642.639
637.999
632.265
624.331
614.162
602.54
590.091
577.165
563.941
550.518
536.964
523.345
509.718
496.139
482.658
469.316
456.148
443.18
430.434
417.925
405.666
393.668
381.944
370.506
359.373
348.565
338.106
328.026
318.355
309.13
300.387
292.165
284.5
277.43
270.989
265.206
260.107
255.708
252.023
249.055
246.798
245.24
244.357
244.119
244.481
245.387
246.766
248.53
250.57
252.755
254.926
256.901
258.475
259.42
259.507
258.491
256.29
251.739
248.6
240.878
225.299
207.196
188.058
168.828
150.077
131.748
113.742
95.7423
78.1148
59.8264
43.2418
22.8398
12.084
582.672
598.576
602.726
600.738
602.119
605.042
610.686
621.276
631.941
640.383
646.338
650.468
653.622
656.151
658.172
659.647
660.621
661.125
661.19
660.814
659.989
658.69
656.933
654.718
652.076
649.034
645.608
641.543
636.691
630.656
622.482
612.211
600.566
588.123
575.217
562.023
548.638
535.133
521.571
508.008
494.499
481.091
467.824
454.732
441.84
429.17
416.737
404.553
392.629
380.976
369.607
358.54
347.794
337.391
327.361
317.733
308.542
299.825
291.619
283.963
276.895
270.45
264.659
259.55
255.143
251.453
248.487
246.243
244.711
243.872
243.698
244.147
245.167
246.69
248.629
250.877
253.301
255.739
258.003
259.879
261.123
261.497
260.812
258.482
254.721
252.393
240.684
223.3
204.414
184.974
165.899
147.439
129.39
111.642
93.908
76.5606
58.6022
42.3248
22.3881
11.7559
577.877
593.614
597.692
595.717
597.455
600.699
607.276
619.32
630.68
639.32
645.389
649.637
652.891
655.485
657.536
659.022
659.997
660.494
660.543
660.144
659.29
657.958
656.165
653.915
651.22
648.11
644.577
640.352
635.285
628.962
620.569
610.206
598.54
586.106
573.22
560.056
546.71
533.254
519.75
506.253
492.814
479.481
466.291
453.278
440.468
427.878
415.525
403.421
391.575
379.999
368.704
357.707
347.026
336.684
326.705
317.121
307.966
299.274
291.085
283.437
276.369
269.917
264.115
258.994
254.575
250.878
247.911
245.677
244.169
243.371
243.259
243.795
244.929
246.596
248.713
251.173
253.842
256.555
259.121
261.312
262.863
263.551
263.26
260.423
259.077
254.57
239.233
220.752
201.272
181.786
162.976
144.812
127.025
109.528
92.0593
74.9964
57.373
41.4057
21.9358
11.4288
572.931
588.534
592.501
590.549
592.675
596.245
603.955
617.549
629.473
638.244
644.419
648.777
652.124
654.779
656.858
658.356
659.332
659.82
659.852
659.427
658.542
657.174
655.342
653.051
650.297
647.109
643.459
639.067
633.783
627.187
618.593
608.147
596.462
584.037
571.172
558.038
544.733
531.327
517.881
504.45
491.084
477.828
464.719
451.789
439.062
426.558
414.29
402.27
390.508
379.013
367.798
356.876
346.264
335.984
326.061
316.523
307.403
298.738
290.565
282.923
275.853
269.393
263.578
258.441
254.008
250.299
247.328
245.101
243.614
242.855
242.802
243.423
244.671
246.484
248.78
251.455
254.376
257.373
260.251
262.769
264.641
265.701
265.605
262.898
263.896
254.699
237.008
217.736
197.896
178.567
160.065
142.181
124.642
107.391
90.1932
73.4213
56.1383
40.4841
21.482
11.1026
568.271
583.346
587.153
585.239
587.786
591.705
600.809
615.973
628.29
637.15
643.424
647.884
651.32
654.032
656.139
657.649
658.625
659.103
659.115
658.662
657.744
656.337
654.461
652.123
649.304
646.029
642.253
637.689
632.188
625.334
616.556
606.033
594.331
581.915
569.072
555.969
542.704
529.349
515.964
502.601
489.309
476.132
463.107
450.263
437.625
425.21
413.032
401.102
389.429
378.022
366.89
356.047
345.509
335.295
325.429
315.939
306.857
298.218
290.061
282.425
275.351
268.879
263.049
257.893
253.441
249.718
246.74
244.516
243.046
242.323
242.328
243.031
244.391
246.349
248.827
251.721
254.9
258.187
261.391
264.24
266.465
267.99
267.534
266.985
267.393
253.24
234.249
214.333
194.396
175.346
157.154
139.53
122.231
105.228
88.3085
71.8347
54.8978
39.5597
21.0263
10.7774
563.499
578.07
581.651
579.788
582.794
587.115
597.932
614.574
627.103
636.035
642.398
646.956
650.477
653.243
655.377
656.898
657.874
658.34
658.331
657.848
656.893
655.444
653.521
651.131
648.238
644.869
640.958
636.219
630.502
623.405
614.458
603.863
592.145
579.739
566.919
553.847
540.625
527.321
513.997
500.703
487.488
474.393
461.455
448.701
436.155
423.835
411.753
399.918
388.339
377.024
365.981
355.223
344.762
334.618
324.813
315.373
306.33
297.718
289.576
281.944
274.865
268.38
262.53
257.352
252.879
249.138
246.148
243.923
242.467
241.776
241.835
242.619
244.089
246.192
248.852
251.968
255.409
258.997
262.539
265.713
268.346
270.367
269.299
272.615
268.529
250.824
231.025
210.652
190.845
172.127
154.226
136.845
119.784
103.038
86.4044
70.2364
53.6509