/*--------------------------------*- C++ -*----------------------------------*\
| =========                 |                                                 |
| \\      /  F ield         | OpenFOAM: The Open Source CFD Toolbox           |
|  \\    /   O peration     | Version:  4.1                                   |
|   \\  /    A nd           | Web:      www.OpenFOAM.org                      |
|    \\/     M anipulation  |                                                 |
\*---------------------------------------------------------------------------*/
FoamFile
{
    version     2.0;
    format      ascii;
    class       surfaceScalarField;
    location    "2000";
    object      phi;
}
// * * * * * * * * * * * * * * * * * * * * * * * * * * * * * * * * * * * * * //

dimensions      [0 3 -1 0 0 0 0];

internalField   nonuniform List<scalar> 
52920
(
-1108.39
-512.604
-673.701
-434.687
-306.884
-366.813
-17.6161
-289.26
179.974
-197.579
318.033
-138.05
403.032
-84.9868
458.312
-55.2701
507.445
-49.1216
554.4
-46.9415
615.286
-60.873
696.098
-80.802
803.174
-107.068
934.455
-131.275
1086.13
-151.668
1253.5
-167.364
1432.54
-179.036
1620.29
-187.747
1814.7
-194.408
2014.48
-199.778
2218.87
-204.38
2427.22
-208.349
2638.78
-211.56
2852.35
-213.57
3066.44
-214.079
3279.53
-213.094
3488.97
-209.433
3691.65
-202.681
3888.8
-197.145
4080.61
-191.813
4258.1
-177.486
4426.52
-168.421
4627.45
-200.927
4899.97
-272.52
5246.39
-346.415
5649.11
-402.722
6092.65
-443.534
6567.49
-474.838
7066.14
-498.65
7580.37
-514.226
8101.16
-520.793
8620.06
-518.893
9130.49
-510.429
9628.54
-498.051
10113
-484.479
10585.1
-472.041
11047.5
-462.452
11504.2
-456.708
11959.3
-455.055
12416.3
-457.015
12877.8
-461.518
13344.9
-467.101
13817.1
-472.167
14292.3
-475.223
14767.4
-475.067
15238.3
-470.893
15700.6
-462.339
16150.1
-449.482
16582.9
-432.799
16996
-413.103
17387.4
-391.456
17756.5
-369.062
18103.7
-347.146
18430.5
-326.839
18739.6
-309.063
19034
-294.456
19317.3
-283.327
19593
-275.649
19864.1
-271.106
20133.3
-269.156
20402.4
-269.137
20672.8
-270.363
20945
-272.219
21219.2
-274.221
21495.2
-276.042
21772.7
-277.509
22051.3
-278.577
22330.6
-279.293
22610.4
-279.757
22890.5
-280.09
23170.9
-280.426
23451.8
-280.903
23733.5
-281.689
24016.5
-283.013
24301.7
-285.184
24590.3
-288.579
24883.8
-293.561
25184.2
-300.351
25493.1
-308.918
25812.1
-319.019
26142.6
-330.466
26486.1
-343.561
26845.4
-359.308
27224.7
-379.271
27628.7
-403.997
28061.9
-433.17
28522.5
-460.655
29007
-484.468
29499.6
-492.585
-471.542
-1692.83
-949.779
-1249.76
-877.754
-865.872
-750.695
-528.685
-626.443
-253.747
-472.511
-94.2426
-297.548
-42.6564
-136.561
-11.3112
-86.6018
35.9474
-96.3608
89.9521
-100.923
177.551
-148.454
294.768
-198.007
440.264
-252.554
604.201
-295.205
780.271
-327.732
963.884
-350.972
1152.49
-367.642
1344.82
-380.066
1540.14
-389.723
1738.05
-397.686
1938.36
-404.694
2140.86
-410.836
2345.02
-415.725
2549.83
-418.377
2754
-418.241
2956.16
-415.258
3153.53
-406.8
3343.48
-392.625
3527.97
-381.639
3705.84
-369.68
3869.62
-341.26
4031.99
-330.786
4223.02
-391.956
4461.58
-511.077
4790.69
-675.526
5276.39
-888.416
5928.17
-1095.32
6681.7
-1228.37
7455.94
-1272.88
8195.69
-1253.98
8876.25
-1201.35
9492.85
-1135.49
10050.7
-1068.31
10559.2
-1006.56
11029
-954.216
11470.6
-913.687
11894.4
-886.244
12309.7
-871.982
12724.3
-869.626
13143.7
-876.478
13570.9
-888.714
14005.8
-902.005
14445.9
-912.252
14886.9
-916.178
15323.4
-911.621
15750.1
-897.572
16161.8
-874.038
16554.2
-841.859
16923.9
-802.512
17268.7
-757.95
17587.7
-710.425
17881
-662.327
18149.8
-615.995
18396.5
-573.546
18624.2
-536.711
18836.4
-506.714
19037.3
-484.203
19230.9
-469.222
19421
-461.257
19611.2
-459.324
19804.2
-462.123
20002
-468.216
20206
-476.213
20416.7
-484.916
20634.1
-493.424
20857.8
-501.155
21087
-507.822
21321.1
-513.379
21559.3
-517.94
21800.9
-521.716
22045.4
-524.971
22292.6
-528.008
22542.1
-531.198
22794.1
-535.037
23049.1
-540.193
23308
-547.486
23572.2
-557.737
23843.3
-571.499
24123.2
-588.818
24413.5
-609.27
24715.5
-632.469
25030.9
-659.005
25362.6
-691.002
25715.3
-731.954
26094.8
-783.452
26507
-845.374
26951.5
-905.152
27425.6
-958.653
27912.8
-979.781
-942.707
-2015.74
-1383.44
-1582.46
-1311.03
-1197.08
-1136.07
-858.264
-965.259
-566.45
-764.323
-342.963
-521.033
-210.326
-269.195
-174.135
-122.786
-142.641
-127.841
-66.0295
-177.512
57.1336
-271.601
198.148
-339.01
360.03
-414.428
533.78
-468.949
714.815
-508.762
899.984
-536.136
1087.88
-555.537
1277.98
-570.157
1470.02
-581.758
1663.85
-591.516
1859.42
-600.26
2056.57
-607.983
2254.88
-614.034
2453.44
-616.936
2650.99
-615.79
2846.01
-610.277
3036.37
-597.152
3220.45
-576.707
3397.34
-558.522
3565.95
-538.289
3730.03
-505.347
3883.68
-484.425
4020.03
-528.31
4260.27
-751.317
4817.29
-1232.54
5703.98
-1775.1
6715.67
-2107
7667.78
-2180.48
8489.02
-2094.12
9180.42
-1945.38
9767.58
-1788.51
10277.9
-1645.78
10733.8
-1524.22
11152.6
-1425.37
11547.8
-1349.41
11930.4
-1296.32
12309.8
-1265.59
12693.2
-1255.42
13085.6
-1262.01
13488.7
-1279.6
13901.3
-1301.3
14319.6
-1320.33
14738.5
-1331.13
15152.3
-1329.96
15555.6
-1314.92
15943.6
-1285.64
16312.5
-1242.93
16659.1
-1188.46
16981.2
-1124.57
17277.4
-1054.11
17547.2
-980.259
17791.2
-906.389
18011.1
-835.824
18209.2
-771.645
18388.9
-716.479
18554.5
-672.317
18710.7
-640.361
18862.4
-620.896
19014.4
-613.248
19170.9
-615.841
19335.2
-626.397
19509.2
-642.266
19693.8
-660.805
19888.6
-679.732
20092.5
-697.348
20304
-712.621
20521.3
-725.132
20742.9
-734.946
20967.4
-742.442
21193.8
-748.17
21421.6
-752.743
21650.4
-756.796
21880.2
-761.018
22111.4
-766.242
22344.8
-773.531
22581.5
-784.184
22823.3
-799.527
23072.3
-820.523
23330.8
-847.341
23600.9
-879.349
23884.3
-915.893
24183.2
-957.893
24501.2
-1008.97
24844.4
-1075.22
25220.7
-1159.73
25637.4
-1262.1
26093.1
-1360.87
26584.1
-1449.64
27086.6
-1482.29
-1424.84
-2259.69
-1810.32
-1827.92
-1742.81
-1438.48
-1525.51
-1094.81
-1308.93
-792.712
-1066.42
-545.431
-768.311
-363.076
-451.546
-249.237
-236.62
-174.423
-202.647
-103.236
-248.683
14.0754
-388.897
163.955
-488.88
330.758
-581.223
507.275
-645.46
689.587
-691.069
874.982
-721.528
1062.32
-742.867
1251.13
-758.964
1441.16
-771.787
1632.26
-782.608
1824.36
-792.362
2017.38
-800.998
2211.06
-807.708
2404.55
-810.422
2596.37
-807.615
2785.51
-799.417
2971.45
-783.083
3150.36
-755.615
3318.21
-726.368
3487.64
-707.717
3656.06
-673.771
3755.95
-584.314
3873.26
-645.609
4374
-1252.06
5368.34
-2226.89
6526.74
-2933.5
7554.89
-3135.15
8382.05
-3007.64
9047.43
-2759.5
9604.95
-2502.89
10093.9
-2277.49
10538.6
-2090.46
10953.6
-1939.22
11348.6
-1820.33
11731
-1731.8
12107.2
-1672.55
12482.6
-1640.93
12860.5
-1633.35
13242.1
-1643.67
13626.4
-1663.88
14010.7
-1685.6
14392
-1701.6
14767.5
-1706.61
15134.9
-1697.39
15492.3
-1672.35
15837.8
-1631.06
16168.8
-1574.01
16482.9
-1502.56
16777.3
-1418.94
17049.5
-1326.31
17297.9
-1228.61
17521.8
-1130.3
17722
-1036.06
17900.8
-950.424
18061.7
-877.431
18209.7
-820.244
18350.1
-780.818
18488.8
-759.61
18631
-755.44
18780.8
-765.624
18940.8
-786.387
19112
-813.505
19294.2
-842.976
19486
-871.541
19685.6
-896.97
19891.1
-918.079
20100.5
-934.573
20312.4
-946.81
20525.5
-955.544
20739.1
-961.719
20952.6
-966.327
21166.2
-970.352
21380
-974.819
21594.7
-980.925
21811.3
-990.201
22031.7
-1004.55
22258.2
-1026
22493.8
-1056.12
22741.7
-1095.26
23004.8
-1142.48
23285.6
-1196.69
23587
-1259.25
23913.8
-1335.74
24273.7
-1435.2
24675.4
-1561.39
25124.9
-1711.57
25615.8
-1851.83
26142.6
-1976.45
26668.5
-2008.11
-1920.76
-2449.35
-2237.95
-2021.11
-2171.04
-1626.45
-1920.17
-1277.85
-1657.53
-967.64
-1376.63
-705.244
-1030.71
-496.805
-659.984
-343.736
-389.686
-226.902
-319.477
-128.329
-347.248
-8.12443
-509.092
142.977
-639.974
314.018
-752.258
493.808
-825.245
678.278
-875.536
864.934
-908.18
1052.79
-930.719
1241.4
-947.569
1430.47
-960.855
1619.82
-971.958
1809.43
-981.971
1999.35
-990.915
2189.5
-997.856
2378.84
-999.76
2565.89
-994.666
2751.28
-984.805
2934.29
-966.089
3105.31
-926.633
3268
-889.053
3449.22
-888.934
3593.33
-817.882
3632.77
-623.751
3919.03
-931.869
4805.08
-2138.11
5988.66
-3410.46
7034
-3978.84
7835.34
-3936.49
8463.3
-3635.6
8997.59
-3293.79
9484.73
-2990.03
9945.38
-2738.14
10387.1
-2532.15
10812.2
-2364.32
11221.8
-2229.91
11616.9
-2126.96
11998.8
-2054.41
12367.9
-2010.11
12724.2
-1989.64
13067
-1986.42
13396.1
-1992.95
13712.7
-2002.27
14020
-2008.86
14322.1
-2008.67
14623.2
-1998.56
14926.7
-1975.82
15233.6
-1937.95
15542.6
-1883.04
15850.3
-1810.21
16151.5
-1720.13
16440.5
-1615.34
16712
-1500.15
16962.1
-1380.32
17188.5
-1262.48
17391.4
-1153.36
17573.1
-1059.12
17737.4
-984.528
17889
-932.44
18032.8
-903.409
18173.1
-895.723
18313.3
-905.83
18456
-929.086
18603.1
-960.608
18756.1
-995.986
18916.3
-1031.72
19084.7
-1065.35
19262
-1095.39
19448.5
-1121.11
19644.1
-1142.38
19848
-1159.46
20059.2
-1172.92
20276.4
-1183.54
20498.3
-1192.24
20723.7
-1200.25
20952
-1209.17
21183
-1221.27
21418
-1239.51
21659.2
-1267.16
21909.8
-1306.78
22173.6
-1359
22453.3
-1422.2
22750.8
-1494.15
23067.2
-1575.64
23404.2
-1672.81
23765.1
-1796.1
24153.4
-1949.63
24574.1
-2132.32
25027.5
-2305.24
25522.3
-2471.25
26042.5
-2528.32
-2438.35
-2601.08
-2712.59
-2176.32
-2595.8
-1777.11
-2319.37
-1423.37
-2011.27
-1106.49
-1693.51
-833.152
-1304.04
-607.548
-885.584
-429.641
-567.59
-284.292
-464.821
-160.732
-470.8
-28.733
-641.082
127.718
-796.417
303.601
-928.136
487.044
-1008.68
674.067
-1062.56
862.44
-1096.55
1051.31
-1119.58
1240.2
-1136.46
1428.8
-1149.45
1616.92
-1160.08
1804.64
-1169.69
1992.23
-1178.5
2179.64
-1185.26
2365.53
-1185.65
2549.26
-1178.39
2733.03
-1168.57
2912.06
-1145.12
3074.28
-1088.85
3242.8
-1057.57
3429.87
-1076.01
3516.78
-904.792
3589.19
-696.155
4156.72
-1499.4
5219.62
-3201.01
6238.9
-4429.73
6982.06
-4722
7527.61
-4482.04
7991.27
-4099.26
8436.68
-3739.2
8885.24
-3438.6
9338.03
-3190.93
9788.91
-2983.04
10230.3
-2805.75
10655.4
-2654.92
11058
-2529.57
11433.2
-2429.65
11777.4
-2354.27
12088.7
-2300.96
12368.4
-2266.13
12621.3
-2245.85
12855.5
-2236.5
13081.3
-2234.62
13309
-2236.42
13547.7
-2237.26
13803.6
-2231.66
14079.5
-2213.83
14374.9
-2178.47
14686.4
-2121.73
15008.1
-2041.87
15332.6
-1939.79
15651.5
-1819.06
15956.8
-1685.66
16241.7
-1547.33
16501
-1412.62
16731.6
-1289.72
16932.4
-1185.37
17104
-1104.07
17248.3
-1047.72
17368.4
-1015.75
17468.3
-1005.72
17553.3
-1014.12
17629.8
-1037.08
17704.7
-1070.9
17785.3
-1112.29
17878.3
-1158.37
17989.5
-1206.65
18123.4
-1254.93
18282.3
-1301.29
18467
-1344.19
18676.6
-1382.51
18908.6
-1415.6
19159.7
-1443.35
19425.8
-1466.28
19702.4
-1485.78
19985.5
-1504.39
20271.9
-1525.9
20559.6
-1554.87
20848
-1595.21
21137.5
-1648.48
21428.2
-1712.92
21718.9
-1784.81
22005.4
-1862.19
22280.4
-1947.81
22535.7
-2051.36
22767.7
-2181.64
22990.1
-2354.68
23236.5
-2551.63
23550.2
-2785.02
24007.1
-2985.23
-2997.6
-2733.88
-3177.1
-2301.95
-3027.73
-1899.38
-2721.94
-1540.56
-2370.09
-1217.83
-2016.24
-935.992
-1585.87
-698.059
-1123.52
-502.92
-762.728
-337.236
-630.503
-193.615
-614.417
-47.8501
-786.841
116.349
-960.611
297.117
-1108.9
484.23
-1195.79
673.936
-1252.26
864.216
-1286.83
1054.3
-1309.67
1243.72
-1325.87
1432.12
-1337.85
1619.39
-1347.35
1805.76
-1356.06
1991.69
-1364.42
2176.98
-1370.56
2360.29
-1368.96
2542.52
-1360.62
2725.47
-1351.52
2898.47
-1318.12
3056.84
-1247.22
3238.68
-1239.41
3408.39
-1245.71
3448.71
-945.11
3655.06
-902.509
4417.48
-2261.82
5372.56
-4156.09
6074.16
-5131.33
6524.06
-5171.89
6872.33
-4830.31
7216.02
-4442.94
7588.47
-4111.65
7990.91
-3841.03
8413.44
-3613.45
8843.78
-3413.38
9269.97
-3231.94
9680.9
-3065.85
10066.7
-2915.41
10419.7
-2782.63
10735.3
-2669.84
11013.3
-2578.98
11258.4
-2511.21
11479.2
-2466.63
11686.4
-2443.76
11890.8
-2439.03
12101.1
-2446.72
12323.3
-2459.44
12560.8
-2469.11
12815
-2468.02
13086.1
-2449.57
13373.2
-2408.87
13674.3
-2342.99
13985.8
-2251.28
14302.3
-2135.5
14616.5
-1999.89
14920
-1850.85
15203.8
-1696.38
15459.1
-1545.08
15678.9
-1405.15
15858.3
-1283.42
15995.3
-1184.75
16091.4
-1111.89
16151.3
-1065.63
16182.5
-1045.25
16194.3
-1048.93
16197.5
-1074.06
16202.6
-1117.44
16219.7
-1175.42
16257.1
-1244.07
16321.6
-1319.38
16417.7
-1397.48
16548.4
-1474.85
16714.4
-1548.54
16915
-1616.18
17147.7
-1676.03
17408.4
-1726.99
17691.4
-1768.79
17989.4
-1802.36
18293.7
-1830.26
18595.6
-1856.72
18887.1
-1886.71
19162.9
-1924.26
19420.4
-1970.42
19657.8
-2022.24
19870.1
-2074.48
20045.7
-2123.45
20170.7
-2176.36
20240.3
-2251.16
20277.9
-2392.3
20346.9
-2620.66
20503.7
-2941.8
20885.9
-3367.46
-3576.59
-2841.05
-3635.81
-2405.24
-3463.55
-1998.38
-3128.79
-1634.98
-2733.49
-1307.07
-2344.15
-1018.44
-1874.5
-771.298
-1370.65
-563.628
-970.395
-382.792
-811.335
-222.779
-774.424
-63.6871
-945.927
108.187
-1132.48
293.28
-1293.99
483.97
-1386.48
676.302
-1444.59
868.491
-1479.01
1059.86
-1501.03
1249.93
-1515.93
1438.38
-1526.3
1625.17
-1534.14
1810.71
-1541.59
1995.56
-1549.26
2179.35
-1554.34
2361.22
-1550.83
2543.49
-1542.88
2724.95
-1532.99
2891.91
-1485.07
3054.69
-1409.99
3245.18
-1429.9
3378.08
-1378.6
3422.27
-989.298
3779.18
-1259.42
4565.98
-3048.62
5284.63
-4874.74
5716.49
-5563.19
5988.78
-5444.19
6238.32
-5079.85
6521.17
-4725.8
6844.34
-4434.82
7198.2
-4194.9
7570.84
-3986.08
7951.7
-3794.24
8331.7
-3611.94
8702.79
-3436.93
9058.1
-3270.73
9392.83
-3117.36
9705.16
-2982.17
9996.68
-2870.49
10271.7
-2786.28
10535.9
-2730.76
10793.8
-2701.67
11048.2
-2693.39
11299.4
-2697.95
11546.6
-2706.63
11788.8
-2711.29
12025.9
-2705.13
12259.1
-2682.84
12490.8
-2640.57
12723.6
-2575.75
12959.5
-2487.17
13199.2
-2375.17
13441.1
-2241.83
13681.5
-2091.2
13914.2
-1929.07
14131.7
-1762.67
14326.6
-1600
14492.2
-1449.05
14624.5
-1317.05
14722.5
-1209.9
14788.6
-1131.75
14828.1
-1084.75
14848.3
-1069.06
14857.1
-1082.91
14862.6
-1122.93
14871.8
-1184.57
14890.4
-1262.69
14923
-1352.06
14973.4
-1447.85
15044.4
-1545.85
15138.4
-1642.55
15257.3
-1735.04
15402.1
-1820.87
15573
-1897.84
15768.2
-1964.02
15983.9
-2018.05
16213.6
-2059.93
16448.8
-2091.92
16681
-2118.98
16904.5
-2147.68
17117.2
-2183.12
17319.8
-2224.87
17511.7
-2266.37
17687.9
-2299.64
17843.3
-2331.79
17982
-2389.89
18127.4
-2537.69
18320
-2813.18
18583.8
-3205.61
18964.3
-3747.97
-4097.16
-2926.97
-4092.68
-2488.82
-3901.7
-2077.82
-3539.79
-1710.21
-3101.1
-1377.79
-2676.57
-1083.65
-2168.64
-829.569
-1624.73
-612.672
-1187.29
-420.402
-1003.6
-247.591
-947.232
-77.2267
-1116.29
101.987
-1311.69
291.378
-1483.38
485.35
-1580.45
680.09
-1639.33
874.083
-1673
1066.73
-1693.68
1257.56
-1706.76
1446.28
-1715.02
1632.95
-1720.81
1818.15
-1726.79
2002.42
-1733.54
2185.36
-1737.27
2367.07
-1732.54
2550.1
-1725.91
2729.02
-1711.91
2893.06
-1649.12
3065.63
-1582.55
3251.93
-1616.21
3349.02
-1475.69
3440.81
-1081.08
3898.46
-1717.07
4600.31
-3750.46
5116.36
-5390.79
5411.32
-5858.14
5634.94
-5667.81
5877.46
-5322.37
6158.52
-5006.86
6469.76
-4746.06
6798.97
-4524.1
7137.16
-4324.27
7478.86
-4135.95
7820.83
-3953.91
8161.01
-3777.1
8498.1
-3607.82
8831.55
-3450.82
9161.46
-3312.07
9488.09
-3197.13
9811.14
-3109.32
10128.9
-3048.53
10438.2
-3010.95
10734.8
-2990.02
11014.8
-2977.94
11275.4
-2967.18
11515.4
-2951.3
11735.5
-2925.24
11937.8
-2885.16
12125.4
-2828.18
12301.9
-2752.28
12471.1
-2656.31
12636.1
-2540.16
12799.3
-2405.02
12961.6
-2253.57
13122.6
-2090.08
13280.3
-1920.28
13431.4
-1751.15
13572.7
-1590.32
13701.1
-1445.48
13814.8
-1323.63
13913.4
-1230.3
13997.6
-1168.99
14069.4
-1140.76
14130.7
-1144.29
14184
-1176.23
14231.4
-1231.93
14274.9
-1306.17
14316.7
-1393.84
14359.1
-1490.33
14405.1
-1591.77
14457.4
-1694.93
14519.5
-1797.09
14594.5
-1895.83
14685.3
-1988.69
14794.4
-2073.11
14923
-2146.63
15070.8
-2207.77
15236.4
-2257.5
15417.7
-2300.28
15613.3
-2343.3
15823.1
-2392.85
16047.7
-2449.48
16288.4
-2507.06
16547.2
-2558.5
16828.8
-2613.35
17139.2
-2700.34
17484.4
-2882.92
17854.3
-3183.07
18249.4
-3600.71
18593.7
-4092.22
-4495.5
-2994.38
-4551.58
-2554.72
-4341.35
-2140.09
-3954.42
-1768.73
-3472.46
-1432.45
-3012.85
-1133.9
-2467.2
-874.663
-1883.96
-651.059
-1410.89
-450.23
-1204.43
-267.628
-1129.83
-88.1927
-1295.72
97.5111
-1497.39
290.837
-1676.7
487.611
-1777.22
684.423
-1836.14
880.031
-1868.61
1073.9
-1887.54
1265.54
-1898.4
1454.71
-1904.19
1641.57
-1907.67
1826.81
-1912.02
2010.93
-1917.65
2193.74
-1920.09
2376.39
-1915.18
2560.08
-1909.6
2736.28
-1888.11
2902.05
-1814.88
3084.14
-1764.64
3255.43
-1787.5
3333.23
-1553.49
3487.37
-1235.21
3987.9
-2217.59
4585.28
-4347.84
4985.31
-5790.82
5245.33
-6118.16
5487.98
-5910.46
5760.99
-5595.37
6063.53
-5309.39
6383
-5065.53
6709.44
-4850.54
7037.7
-4652.52
7366.1
-4464.35
7694.92
-4282.72
8025.21
-4107.39
8358.06
-3940.67
8693.98
-3786.73
9032.28
-3650.37
9370.7
-3535.55
9705.37
-3443.98
10031.3
-3374.45
10343.4
-3323.03
10637.4
-3284.04
10910.7
-3251.22
11162.1
-3218.62
11392
-3181.17
11601.5
-3134.71
11792.3
-3075.97
11966.5
-3002.46
12126.7
-2912.44
12275.4
-2804.97
12415.3
-2680.07
12549.1
-2538.85
12679.2
-2383.71
12807.5
-2218.36
12935
-2047.81
13062.1
-1878.19
13188.1
-1716.35
13311.9
-1569.31
13431.9
-1443.61
13546.2
-1344.58
13652.9
-1275.69
13750.4
-1238.25
13837.4
-1231.37
13913.6
-1252.4
13979.2
-1297.51
14035.4
-1362.36
14084.2
-1442.66
14128.3
-1534.47
14171
-1634.4
14215.6
-1739.51
14265.7
-1847.2
14324.9
-1955.03
14396.6
-2060.47
14484.3
-2160.76
14590.8
-2253.19
14719
-2335.91
14870.9
-2409.4
15048
-2477.44
15251
-2546.27
15479.5
-2621.31
15732.9
-2702.91
16011.6
-2785.72
16316.9
-2863.82
16650.8
-2947.23
17013.6
-3063.17
17402.8
-3272.11
17793.1
-3573.34
18190
-3997.64
18456.6
-4358.87
-4806.73
-3045.65
-5025.85
-2604.4
-4782.61
-2186.88
-4371.94
-1812.32
-3847.01
-1472.87
-3352.31
-1170.87
-2769.2
-907.975
-2146.85
-679.725
-1639.14
-472.69
-1411.46
-282.803
-1319.71
-96.4037
-1482.12
94.5415
-1688.33
291.049
-1873.2
489.983
-1976.15
688.41
-2034.56
885.326
-2065.52
1080.23
-2082.44
1272.63
-2090.8
1462.31
-2093.87
1649.54
-2094.9
1835.06
-2097.54
2019.38
-2101.97
2202.84
-2103.55
2387.08
-2099.42
2570.98
-2093.49
2745.64
-2062.78
2917.06
-1986.29
3104.79
-1952.38
3257.51
-1940.21
3334.22
-1630.21
3546.4
-1447.39
4052.11
-2723.3
4563.35
-4859.08
4905.53
-6133.01
5166.79
-6379.42
5434.75
-6178.42
5730.57
-5891.19
6045.99
-5624.81
6370.04
-5389.58
6696.18
-5176.69
7021.92
-4978.26
7347.08
-4789.52
7672.58
-4608.21
7999.47
-4434.28
8328.37
-4269.57
8658.85
-4117.21
8989.17
-3980.69
9316.26
-3862.64
9636.21
-3763.94
9945.02
-3683.27
10239.3
-3617.34
10516.8
-3561.55
10776.4
-3510.74
11017.6
-3459.88
11240.9
-3404.5
11447.1
-3340.85
11637.1
-3265.97
11812.2
-3177.6
11974
-3074.24
12124.3
-2955.21
12264.9
-2820.7
12398
-2671.95
12525.6
-2511.32
12649.6
-2342.31
12771.3
-2169.55
12891.7
-1998.55
13010.7
-1835.42
13127.9
-1686.42
13241.6
-1557.37
13350.1
-1453.06
13451.2
-1376.8
13543
-1330.11
13624.4
-1312.71
13694.8
-1322.82
13754.9
-1357.62
13806.3
-1413.72
13851.3
-1487.65
13892.8
-1576.06
13934.3
-1675.91
13979.3
-1784.42
14031.1
-1899.01
14093.2
-2017.14
14168.8
-2136.12
14261.1
-2253.04
14372.9
-2364.96
14506.7
-2469.74
14664.6
-2567.25
14847.5
-2660.35
15055.6
-2754.36
15288.5
-2854.18
15545.4
-2959.89
15825.4
-3065.65
16127.5
-3165.93
16453.5
-3273.25
16808.6
-3418.25
17191.3
-3654.84
17572.6
-3954.62
17943.4
-4368.4
18155.6
-4571.12
-5110.78
-3083.6
-5495.78
-2639.19
-5227.02
-2219.4
-4791.73
-1842.32
-4224.09
-1500.4
-3694.22
-1195.86
-3073.73
-930.626
-2412.09
-699.497
-1870.27
-488.284
-1622.67
-293.33
-1514.66
-102.041
-1673.4
92.6377
-1883.01
291.292
-2071.85
491.557
-2176.41
690.943
-2233.94
888.646
-2263.22
1084.17
-2277.97
1277.03
-2283.65
1467.06
-2283.9
1654.61
-2282.44
1840.46
-2283.4
2025.25
-2286.76
2210
-2288.29
2396.04
-2285.47
2579.87
-2277.32
2755.25
-2238.15
2934.61
-2165.66
3123.66
-2141.42
3260.1
-2076.65
3349.06
-1719.16
3608.22
-1706.55
4096.77
-3211.85
4538.37
-5300.68
4845.83
-6440.46
5109.97
-6643.56
5389.58
-6458.03
5691.36
-6192.98
6006.02
-5939.46
6325.71
-5709.27
6646.67
-5497.65
6967.73
-5299.32
7288.9
-5110.68
7610.53
-4929.84
7932.83
-4756.59
8255.53
-4592.27
8577.61
-4439.29
8897.23
-4300.3
9211.87
-4177.29
9518.73
-4070.79
9815.05
-3979.58
10098.5
-3900.8
10367.4
-3830.4
10620.5
-3763.86
10857.3
-3696.73
11077.9
-3625.03
11282.5
-3545.45
11471.9
-3455.37
11647.1
-3352.86
11809.6
-3236.68
11960.7
-3106.35
12102.2
-2962.22
12235.9
-2805.56
12363.2
-2638.67
12485.8
-2464.85
12604.6
-2288.35
12720.2
-2114.21
12832.8
-1947.96
12941.6
-1795.23
13045.5
-1661.31
13143.1
-1550.66
13232.8
-1466.5
13313.3
-1410.6
13383.8
-1383.22
13444.3
-1383.35
13495.7
-1409
13539.6
-1457.63
13578.4
-1526.45
13615
-1612.65
13652.7
-1713.54
13694.8
-1826.5
13744.7
-1948.95
13805.8
-2078.23
13881.2
-2211.5
13973.7
-2345.61
14086.1
-2477.3
14220.2
-2603.9
14377.5
-2724.53
14558.5
-2841.34
14763.4
-2959.3
14992.3
-3083.06
15244.1
-3211.7
15517.4
-3338.97
15814.9
-3463.43
16145.8
-3604.09
16518
-3790.47
16912.9
-4049.73
17288.4
-4330.17
17615.7
-4695.62
17829.2
-4784.71
-5520.41
-3106.48
-5964.19
-2660.34
-5673.16
-2238.65
-5213.42
-1859.77
-4602.97
-1516.16
-4037.84
-1209.94
-3379.95
-943.55
-2678.48
-711.124
-2102.69
-497.557
-1836.24
-299.586
-1712.64
-105.493
-1867.49
91.1653
-2079.66
290.624
-2271.31
491.097
-2376.89
690.448
-2433.29
888.018
-2460.79
1083.32
-2473.27
1275.88
-2476.21
1465.61
-2473.63
1652.97
-2469.8
1838.86
-2469.28
2024.21
-2472.1
2210.58
-2474.67
2398.29
-2473.17
2582.44
-2461.47
2761.31
-2417.02
2949.58
-2353.92
3136.88
-2328.72
3262.53
-2202.3
3372.2
-1828.83
3664.02
-1998.37
4119.46
-3667.28
4502.48
-5683.7
4786.22
-6724.21
5050.8
-6908.13
5332.66
-6739.89
5631.36
-6491.68
5939.3
-6247.4
6251.62
-6021.59
6566.22
-5812.25
6882.31
-5615.41
7199.54
-5427.91
7517.64
-5247.94
7836.23
-5075.18
8154.63
-4910.67
8471.71
-4756.36
8785.8
-4614.39
9094.78
-4486.27
9396.24
-4372.25
9687.72
-4271.07
9967.01
-4180.08
10232.3
-4095.69
10482.3
-4013.9
10716.5
-3930.86
10934.6
-3843.12
11136.9
-3747.81
11324.2
-3642.7
11497.5
-3526.16
11658.1
-3397.2
11807.2
-3255.52
11946.6
-3101.57
12077.7
-2936.65
12201.9
-2762.94
12320.6
-2583.56
12434.7
-2402.42
12544.6
-2224.14
12650.4
-2053.77
12751.6
-1896.43
12847.3
-1756.99
12936.3
-1639.63
13017.3
-1547.54
13089.4
-1482.69
13152
-1445.83
13205.2
-1436.57
13249.9
-1453.69
13287.7
-1495.39
13320.8
-1559.54
13352
-1643.87
13384.5
-1746.05
13421.6
-1863.65
13466.8
-1994.12
13523.3
-2134.74
13594.3
-2282.48
13682.6
-2433.96
13790.9
-2585.58
13921.2
-2734.15
14074.8
-2878.14
14252.8
-3019.36
14456
-3162.49
14683.8
-3310.86
14934.3
-3462.17
15208.7
-3613.38
15517.3
-3772.05
15870.8
-3957.59
16258.9
-4178.53
16633.6
-4424.43
16967.8
-4664.44
17266
-4993.74
17645.8
-5164.56
-6200.96
-3115.94
-6433.19
-2668.44
-6120.67
-2245.51
-5636.34
-1865.6
-4982.88
-1521.06
-4382.37
-1214.01
-3686.99
-947.572
-2944.92
-715.31
-2334.95
-501.102
-2050.45
-302.096
-1911.64
-107.378
-2062.21
89.2143
-2276.25
287.728
-2469.82
486.815
-2575.97
684.537
-2631.01
880.326
-2656.58
1073.69
-2666.63
1264.23
-2666.75
1452.05
-2661.45
1637.82
-2655.57
1822.68
-2654.14
2008.11
-2657.52
2195.89
-2662.45
2384.99
-2662.27
2570.67
-2647.14
2756.05
-2602.41
2953.46
-2551.33
3138.12
-2513.37
3260.81
-2324.99
3395.29
-1963.31
3702.4
-2305.48
4115.11
-4079.99
4453.47
-6022.05
4725.08
-6995.82
4990.9
-7173.95
5271.5
-7020.49
5564.79
-6784.97
5866.16
-6548.77
6172.89
-6328.32
6483.48
-6122.83
6796.85
-5928.77
7112.12
-5743.18
7428.54
-5564.36
7745.36
-5392.01
8061.7
-5227
8376.3
-5070.96
8687.5
-4925.59
8993.21
-4791.98
9291.1
-4670.14
9578.85
-4558.81
9854.35
-4455.58
10116
-4357.3
10362.6
-4260.51
10593.6
-4161.89
10808.9
-4058.46
11008.9
-3947.78
11194.1
-3827.92
11365.5
-3697.54
11524.2
-3555.86
11671.4
-3402.73
11808.5
-3238.69
11936.9
-3065.06
12057.9
-2883.96
12172.7
-2698.28
12281.9
-2511.7
12386.2
-2328.44
12485.6
-2153.12
12579.6
-1990.48
12667.7
-1845
12748.7
-1720.67
12821.8
-1620.64
12886.2
-1547.08
12941.5
-1501.15
12988
-1483.05
13026.5
-1492.22
13058.7
-1527.52
13086.6
-1587.47
13113
-1670.29
13141
-1774
13173.7
-1896.42
13214.7
-2035.07
13267.1
-2187.16
13334.1
-2349.53
13418.8
-2518.59
13523.6
-2690.43
13650.8
-2861.31
13802
-3029.39
13979
-3196.3
14181.9
-3365.45
14408.8
-3537.72
14659
-3712.39
14941.3
-3895.67
15268.6
-4099.34
15631.8
-4320.75
15988.3
-4535.07
16298.2
-4734.29
16621.2
-4987.5
17058.2
-5430.71
17861
-5967.41
-7265.09
-3113.16
-6904.2
-2664.24
-6569.59
-2240.78
-6059.8
-1860.63
-5363.04
-1515.99
-4727.01
-1208.91
-3994.07
-943.464
-3210.37
-712.758
-2565.66
-499.58
-2263.62
-301.554
-2109.66
-108.583
-2255.17
85.4923
-2470.33
280.727
-2665.05
476.055
-2771.3
669.521
-2824.48
860.536
-2847.59
1048.58
-2854.67
1233.45
-2851.61
1415.65
-2843.65
1596.39
-2836.31
1777.46
-2835.2
1961.08
-2841.14
2149.06
-2850.44
2339.3
-2852.51
2528.63
-2836.47
2723.69
-2797.47
2930.73
-2758.37
3115.51
-2698.16
3245.59
-2455.06
3403.87
-2121.58
3708.72
-2610.33
4080.87
-4452.13
4395.35
-6336.54
4666.75
-7267.22
4934.58
-7441.77
5212.08
-7298
5499.98
-7072.87
5796.69
-6845.48
6100.43
-6632.06
6409.36
-6431.76
6721.77
-6241.19
7036.27
-6057.68
7351.73
-5879.82
7667.18
-5707.46
7981.56
-5541.37
8293.53
-5382.93
8601.42
-5233.48
8903.23
-5093.79
9196.83
-4963.74
9480.11
-4842.09
9751.22
-4726.7
10008.7
-4614.82
10251.7
-4503.47
10479.6
-4389.76
10692.3
-4271.16
10890
-4145.54
11073.4
-4011.29
11243.1
-3867.28
11400.2
-3712.93
11545.7
-3548.24
11680.9
-3373.83
11806.8
-3191.03
11924.8
-3001.89
12035.6
-2809.16
12140.2
-2616.26
12238.9
-2427.11
12331.7
-2246
12418.6
-2077.31
12498.8
-1925.25
12571.8
-1793.65
12636.8
-1685.65
12693.3
-1603.62
12741.3
-1549.08
12780.9
-1522.72
12813.3
-1524.58
12839.9
-1554.13
12862.9
-1610.44
12884.8
-1692.23
12908.7
-1797.87
12937.7
-1925.4
12975.1
-2072.47
13024.2
-2236.25
13088.1
-2413.48
13169.9
-2600.38
13272.1
-2792.62
13396.9
-2986.12
13546.6
-3179.06
13722.6
-3372.3
13923.5
-3566.36
14147.5
-3761.78
14401.8
-3966.7
14700.4
-4194.25
15036.5
-4435.39
15363.4
-4647.65
15643.4
-4815.13
15939.9
-5030.72
16450.1
-5497.7
17314
-6294.65
18658.7
-7312.15
-8614.86
-3098.67
-7371.88
-2648.56
-7019.7
-2225.24
-6483.11
-1845.69
-5742.59
-1501.78
-5070.92
-1195.45
-4300.39
-931.985
-3473.84
-704.202
-2793.44
-493.765
-2474.06
-298.87
-2304.55
-110.34
-2443.7
78.1873
-2658.85
266.927
-2853.79
454.876
-2959.24
639.684
-3009.28
820.492
-3028.4
996.649
-3030.83
1168.32
-3023.28
1336.99
-3012.31
1505.2
-3004.52
1676.27
-3006.27
1853.7
-3018.56
2039.37
-3036.1
2230.81
-3043.95
2427
-3032.66
2635.31
-3005.77
2854.41
-2977.47
3047.7
-2891.45
3196.4
-2603.76
3372.29
-2297.46
3666.64
-2904.68
4019.07
-4804.56
4335.25
-6652.72
4614.19
-7546.16
4881.98
-7709.56
5154.57
-7570.59
5437.72
-7356.02
5731.63
-7139.38
6034.07
-6934.5
6342.38
-6740.06
6654.22
-6553.03
6967.86
-6371.32
7282.01
-6193.97
7595.58
-6021.02
7907.45
-5853.25
8216.29
-5691.78
8520.51
-5537.69
8818.25
-5391.53
9107.55
-5253.04
9386.54
-5121.07
9653.57
-4993.72
9907.33
-4868.58
10146.9
-4743.08
10371.9
-4614.73
10582.1
-4481.35
10777.7
-4341.15
10959.2
-4192.74
11127.1
-4035.24
11282.4
-3868.22
11426
-3691.82
11558.9
-3506.74
11682.2
-3314.31
11796.8
-3116.53
11903.7
-2916.03
12003.5
-2716.02
12096.5
-2520.18
12183
-2332.51
12262.9
-2157.12
12335.6
-1998.01
12400.8
-1858.88
12458.1
-1742.9
12507.1
-1652.61
12547.8
-1589.83
12580.8
-1555.73
12607.1
-1550.84
12628.2
-1575.19
12646.1
-1628.36
12663.4
-1709.53
12683
-1817.45
12707.9
-1950.39
12741.6
-2106.12
12787.2
-2281.84
12847.9
-2474.2
12926.7
-2679.17
13026.1
-2892.01
13148.7
-3108.72
13297
-3327.37
13470.9
-3546.16
13667.9
-3763.44
13893.5
-3987.34
14163.2
-4236.36
14473.7
-4504.77
14774.2
-4735.92
15016.6
-4890.03
15277.8
-5076.39
15797.1
-5549.94
16792.6
-6493.2
18214.4
-7716.5
19883.5
-8981.27
-9974.83
-3072.32
-7839.05
-2622.22
-7469.8
-2199.7
-6905.64
-1821.62
-6120.66
-1479.28
-5413.26
-1174.46
-4605.22
-913.916
-3734.38
-690.437
-3016.92
-484.574
-2679.92
-295.226
-2493.9
-114.312
-2624.61
64.8115
-2837.97
242.54
-3031.52
417.532
-3134.23
586.356
-3178.11
747.303
-3189.34
899.322
-3182.85
1043.47
-3167.43
1183.62
-3152.46
1325.64
-3146.54
1476.14
-3156.77
1640.74
-3183.15
1821.55
-3216.91
2015.92
-3238.33
2223.67
-3240.41
2449.65
-3231.74
2686.58
-3214.4
2900.8
-3105.67
3075.17
-2778.13
3264.66
-2486.95
3567.17
-3207.19
3941.5
-5178.9
4281.37
-6992.59
4567.44
-7832.23
4830.76
-7972.87
5097.46
-7837.29
5377.26
-7635.82
5669.91
-7432.04
5971.93
-7236.51
6279.77
-7047.9
6590.8
-6864.06
6903.21
-6683.72
7215.69
-6506.45
7527.15
-6332.48
7836.45
-6162.55
8142.29
-5997.62
8443.12
-5838.52
8737.19
-5685.6
9022.7
-5538.54
9297.9
-5396.27
9561.28
-5257.1
9811.65
-5118.95
10048.2
-4979.61
10270.4
-4836.95
10478.1
-4689.11
10671.6
-4534.56
10851
-4372.17
11017
-4201.24
11170.3
-4021.51
11311.7
-3833.22
11442.1
-3637.16
11562.5
-3434.67
11673.6
-3227.71
11776.4
-3018.81
11871.4
-2811
11959
-2607.78
12039.4
-2412.9
12112.5
-2230.26
12178.2
-2063.7
12236.2
-1916.83
12286.1
-1792.85
12328
-1694.44
12361.9
-1623.74
12388.4
-1582.28
12408.7
-1571.08
12424.2
-1590.67
12436.9
-1641.11
12449.4
-1722.02
12464.5
-1832.51
12485.2
-1971.12
12514.8
-2135.76
12556.7
-2323.68
12614
-2531.48
12689.5
-2754.74
12786.2
-2988.65
12907
-3229.6
13053.6
-3473.89
13223.4
-3716.01
13419.4
-3959.41
13658.3
-4226.26
13944.1
-4522.12
14224.4
-4785.11
14433.4
-4944.91
14644.8
-5101.45
15145.3
-5576.84
16212.3
-6616.95
17789.1
-8070.03
19527.9
-9455.34
21119
-10572.3
-11112.3
-3035.77
-8306.61
-2585.93
-7919.63
-2164.98
-7326.59
-1789.29
-6496.36
-1449.37
-5753.17
-1146.77
-4907.82
-890.063
-3991.08
-672.336
-3234.64
-473.119
-2879.13
-292.155
-2674.86
-122.697
-2794.07
42.0659
-3002.73
202.447
-3191.9
356.035
-3287.82
497.12
-3319.19
622.115
-3314.34
729.517
-3290.25
823.134
-3261.04
912.92
-3242.24
1012.05
-3245.67
1132.61
-3277.32
1281.95
-3332.49
1460.7
-3395.66
1663.97
-3441.59
1889.16
-3465.6
2136.58
-3479.16
2396.44
-3474.26
2637.58
-3346.81
2836.65
-2977.19
3058.75
-2709.05
3428.13
-3576.57
3870.88
-5621.65
4239.41
-7361.11
4523.6
-8116.42
4778.39
-8227.66
5040.21
-8099.1
5318.7
-7914.31
5611.32
-7724.67
5913.21
-7538.4