/*--------------------------------*- C++ -*----------------------------------*\
| =========                 |                                                 |
| \\      /  F ield         | OpenFOAM: The Open Source CFD Toolbox           |
|  \\    /   O peration     | Version:  4.1                                   |
|   \\  /    A nd           | Web:      www.OpenFOAM.org                      |
|    \\/     M anipulation  |                                                 |
\*---------------------------------------------------------------------------*/
FoamFile
{
    version     2.0;
    format      ascii;
    class       volVectorField;
    location    "2000";
    object      U;
}
// * * * * * * * * * * * * * * * * * * * * * * * * * * * * * * * * * * * * * //

dimensions      [0 1 -1 0 0 0 0];

internalField   nonuniform List<vector> 
26785
(
(-8.84856e-14 -0.205077 -10.4018)
(-9.7865e-14 -0.167373 -7.09825)
(-1.29435e-13 -0.140169 -3.4554)
(-2.05337e-13 -0.108906 -1.0404)
(-1.07689e-13 -0.0660089 0.791678)
(-4.58119e-13 -0.0312862 2.03904)
(-3.95581e-13 -0.0125831 2.66361)
(-2.88486e-13 -0.00965629 2.95453)
(-8.66165e-14 -0.0113284 3.13123)
(-1.52089e-13 -0.0117283 3.30727)
(-1.82582e-13 -0.013568 3.52124)
(-1.58512e-13 -0.0169546 3.83856)
(-1.27926e-13 -0.0230658 4.27265)
(-8.87994e-14 -0.0298893 4.82083)
(-6.48967e-14 -0.0365796 5.45604)
(-5.55213e-14 -0.0422551 6.14948)
(-5.17524e-14 -0.0466532 6.8764)
(-5.56875e-14 -0.0498557 7.61768)
(-5.81916e-14 -0.0521172 8.36085)
(-6.99451e-14 -0.0537501 9.09861)
(-7.01929e-14 -0.0549775 9.82705)
(-6.40389e-14 -0.0558581 10.5439)
(-9.6612e-14 -0.0563655 11.2469)
(-8.66286e-14 -0.0563799 11.9329)
(-1.24858e-13 -0.0558036 12.5966)
(-1.38257e-13 -0.0546303 13.2329)
(-1.48445e-13 -0.0525678 13.8362)
(-1.5623e-13 -0.0495792 14.3943)
(-1.91229e-13 -0.046722 14.9034)
(-2.18481e-13 -0.0438917 15.3793)
(-2.39319e-13 -0.0387724 15.8095)
(-2.38182e-13 -0.0353311 16.1641)
(-2.11547e-13 -0.0430701 16.5302)
(-1.64524e-13 -0.0662692 17.0879)
(-1.63411e-13 -0.0984072 17.9022)
(-1.47126e-13 -0.12106 18.9087)
(-1.3129e-13 -0.120774 20.0353)
(-1.22365e-13 -0.103875 21.2406)
(-1.21781e-13 -0.0862757 22.4978)
(-1.3223e-13 -0.0776139 23.7808)
(-1.31332e-13 -0.0782744 25.0604)
(-1.42222e-13 -0.0843083 26.3082)
(-1.503e-13 -0.0918021 27.5017)
(-1.6484e-13 -0.0984622 28.6269)
(-1.63871e-13 -0.103486 29.6792)
(-1.65489e-13 -0.106951 30.6621)
(-1.62966e-13 -0.109283 31.5847)
(-1.52569e-13 -0.110938 32.4596)
(-1.41528e-13 -0.112253 33.3004)
(-1.32844e-13 -0.113401 34.1198)
(-1.1951e-13 -0.114411 34.9273)
(-1.10427e-13 -0.115201 35.7287)
(-1.04748e-13 -0.115605 36.5248)
(-1.01111e-13 -0.115405 37.3125)
(-9.86965e-14 -0.114357 38.085)
(-9.5835e-14 -0.112238 38.8334)
(-9.81968e-14 -0.108884 39.5474)
(-9.64327e-14 -0.104236 40.2172)
(-9.56118e-14 -0.0983587 40.834)
(-9.82285e-14 -0.0914502 41.3911)
(-9.89374e-14 -0.0838236 41.8846)
(-9.97383e-14 -0.075872 42.3133)
(-9.99742e-14 -0.0680222 42.6791)
(-1.03012e-13 -0.0606817 42.9868)
(-1.04186e-13 -0.054191 43.2433)
(-1.05995e-13 -0.0487849 43.4568)
(-1.08147e-13 -0.0445714 43.6367)
(-1.10453e-13 -0.0415278 43.792)
(-1.13058e-13 -0.039517 43.9308)
(-1.15024e-13 -0.0383189 44.06)
(-1.19765e-13 -0.0376714 44.185)
(-1.22275e-13 -0.0373134 44.3092)
(-1.24209e-13 -0.0370207 44.4345)
(-1.25459e-13 -0.03663 44.5616)
(-1.26354e-13 -0.0360479 44.6904)
(-1.2384e-13 -0.035247 44.8201)
(-1.22919e-13 -0.0342516 44.9498)
(-1.21201e-13 -0.0331206 45.0788)
(-1.18445e-13 -0.0319294 45.2064)
(-1.15399e-13 -0.0307563 45.3323)
(-1.11748e-13 -0.0296749 45.4563)
(-1.1005e-13 -0.028754 45.5787)
(-1.07366e-13 -0.0280644 45.6999)
(-1.04587e-13 -0.027691 45.8208)
(-1.03469e-13 -0.0277403 45.9426)
(-1.01685e-13 -0.0283336 46.0672)
(-1.00934e-13 -0.029579 46.1973)
(-9.96618e-14 -0.0315274 46.3359)
(-1.00025e-13 -0.0341398 46.4862)
(-1.00555e-13 -0.0373093 46.651)
(-1.00076e-13 -0.040957 46.8324)
(-9.97831e-14 -0.0451778 47.0324)
(-9.94903e-14 -0.0502987 47.254)
(-9.91481e-14 -0.0568072 47.503)
(-9.84446e-14 -0.064821 47.7858)
(-9.82608e-14 -0.0741267 48.1144)
(-9.78985e-14 -0.0825716 48.4793)
(-9.68579e-14 -0.089406 48.9122)
(-9.59763e-14 -0.0907043 49.2747)
(-9.46419e-14 -0.0811213 49.8895)
(-2.87084e-14 -0.610682 -15.4738)
(-3.66028e-14 -0.530132 -11.5072)
(-1.07936e-14 -0.443819 -7.8662)
(-2.5811e-14 -0.357277 -5.00491)
(-7.04703e-14 -0.247948 -2.57842)
(-1.1245e-13 -0.137648 -0.84283)
(3.81062e-13 -0.0573515 0.0012613)
(-2.39308e-15 -0.0346756 0.270858)
(-3.97011e-13 -0.0383429 0.374962)
(-3.23982e-13 -0.041566 0.580785)
(-2.01091e-13 -0.0623392 0.943727)
(-1.00216e-13 -0.0853882 1.50226)
(-2.13026e-14 -0.111861 2.20155)
(4.6641e-14 -0.132769 2.98763)
(1.47578e-14 -0.148725 3.81128)
(-9.45861e-15 -0.159589 4.64231)
(5.08638e-14 -0.16654 5.46449)
(3.73654e-14 -0.170739 6.26952)
(1.29292e-14 -0.173076 7.05417)
(5.25906e-14 -0.174308 7.81743)
(-2.01721e-14 -0.174946 8.55942)
(9.44669e-15 -0.175077 9.28064)
(-1.27891e-14 -0.174519 9.9809)
(-4.36779e-14 -0.172765 10.6582)
(-4.88072e-14 -0.169516 11.3083)
(-8.38676e-14 -0.16484 11.9275)
(-1.05998e-13 -0.157472 12.5102)
(-1.39295e-13 -0.147119 13.0437)
(-1.51537e-13 -0.138767 13.5288)
(-1.95705e-13 -0.131192 13.9826)
(-1.90839e-13 -0.114503 14.3805)
(-1.95529e-13 -0.106257 14.7171)
(-1.87756e-13 -0.143706 15.1088)
(-1.64707e-13 -0.217638 15.6175)
(-1.44314e-13 -0.27694 16.2861)
(-1.05226e-13 -0.315485 17.3618)
(-7.75772e-14 -0.362032 19.0258)
(-6.1543e-14 -0.416198 21.1233)
(-5.54867e-14 -0.458809 23.3421)
(-5.27929e-14 -0.479126 25.4428)
(-5.4416e-14 -0.477593 27.3113)
(-4.4375e-14 -0.459848 28.9211)
(-4.38531e-14 -0.432505 30.2902)
(-3.23054e-14 -0.401338 31.4541)
(-3.10431e-14 -0.370747 32.4526)
(-3.00252e-14 -0.34378 33.3245)
(-3.79687e-14 -0.322315 34.1057)
(-3.67663e-14 -0.30721 34.8285)
(-4.4383e-14 -0.298401 35.5199)
(-4.16601e-14 -0.294981 36.2004)
(-4.93405e-14 -0.295364 36.8824)
(-5.26478e-14 -0.297545 37.5694)
(-5.29578e-14 -0.299427 38.2575)
(-5.79114e-14 -0.299137 38.937)
(-5.5831e-14 -0.295256 39.5953)
(-5.44293e-14 -0.286924 40.2188)
(-5.76398e-14 -0.273857 40.795)
(-5.89541e-14 -0.256288 41.3135)
(-5.62717e-14 -0.234885 41.7669)
(-5.58192e-14 -0.210648 42.1506)
(-5.43445e-14 -0.184797 42.463)
(-5.53233e-14 -0.158656 42.7059)
(-5.51491e-14 -0.133527 42.8833)
(-5.18742e-14 -0.110574 43.0017)
(-5.11936e-14 -0.0907211 43.0695)
(-5.18468e-14 -0.0745816 43.0963)
(-5.28416e-14 -0.0624213 43.0922)
(-5.17676e-14 -0.0541625 43.0676)
(-5.63737e-14 -0.0494268 43.0319)
(-5.71445e-14 -0.0476115 42.9938)
(-5.63882e-14 -0.04799 42.9602)
(-5.79557e-14 -0.0498176 42.9362)
(-5.78354e-14 -0.0524232 42.9249)
(-5.80713e-14 -0.0552722 42.9278)
(-5.46e-14 -0.0579935 42.9451)
(-5.66296e-14 -0.0603747 42.9756)
(-5.60337e-14 -0.0623353 43.0178)
(-5.34265e-14 -0.0638902 43.0698)
(-5.42708e-14 -0.0651136 43.1297)
(-5.42363e-14 -0.0661103 43.196)
(-5.33215e-14 -0.0669991 43.2671)
(-5.53846e-14 -0.0679149 43.3421)
(-5.66502e-14 -0.0690292 43.4205)
(-5.58737e-14 -0.0705818 43.5019)
(-5.58465e-14 -0.0729046 43.5868)
(-5.66761e-14 -0.0764029 43.6765)
(-5.90835e-14 -0.0814702 43.7729)
(-6.00627e-14 -0.0883491 43.8789)
(-5.85867e-14 -0.0970138 43.9974)
(-5.86866e-14 -0.107212 44.1313)
(-5.83272e-14 -0.118745 44.2829)
(-5.82002e-14 -0.131942 44.4542)
(-5.78677e-14 -0.147889 44.6481)
(-5.98781e-14 -0.16827 44.8713)
(-6.07929e-14 -0.193681 45.1309)
(-6.19718e-14 -0.223757 45.4418)
(-6.37937e-14 -0.251996 45.7958)
(-6.56641e-14 -0.276097 46.2299)
(-6.70437e-14 -0.283708 46.5958)
(-6.82397e-14 -0.25932 47.2403)
(-2.74014e-14 -0.989128 -18.0827)
(-2.82447e-14 -0.905292 -14.1063)
(-2.49337e-14 -0.766221 -10.3761)
(9.75207e-15 -0.637306 -7.42483)
(-6.65314e-15 -0.486034 -4.8932)
(-7.75613e-14 -0.31364 -2.90984)
(-6.98954e-14 -0.147409 -1.52015)
(-1.87892e-13 -0.057426 -0.848069)
(-5.75989e-14 -0.0644901 -0.709841)
(-6.4298e-14 -0.0881144 -0.387787)
(-6.24567e-15 -0.142059 0.179831)
(1.08788e-13 -0.181722 0.894266)
(1.04761e-13 -0.222578 1.71129)
(1.19377e-13 -0.250045 2.57569)
(1.17142e-13 -0.268684 3.44629)
(-9.09689e-16 -0.279781 4.30205)
(1.78886e-14 -0.285988 5.13425)
(-5.04321e-14 -0.2892 5.93997)
(-4.56027e-14 -0.290542 6.71938)
(-8.45403e-14 -0.290848 7.47337)
(-1.13917e-13 -0.290658 8.20316)
(-6.32414e-14 -0.289929 8.90986)
(-3.05005e-14 -0.288226 9.59371)
(-4.53502e-14 -0.284653 10.2533)
(-4.19847e-14 -0.278775 10.8851)
(-7.27638e-14 -0.270509 11.485)
(-1.17942e-13 -0.257584 12.0467)
(-1.25722e-13 -0.240491 12.5635)
(-1.45595e-13 -0.227179 13.0379)
(-1.60446e-13 -0.211544 13.4627)
(-1.77204e-13 -0.186232 13.8377)
(-1.48201e-13 -0.180994 14.219)
(-1.39813e-13 -0.229285 14.5222)
(-1.264e-13 -0.31095 14.7443)
(-9.93106e-14 -0.456485 15.7204)
(-7.14381e-14 -0.693357 18.0713)
(-6.1537e-14 -0.907083 21.1833)
(-6.33414e-14 -1.00618 24.2036)
(-6.47892e-14 -0.997679 26.7347)
(-6.73774e-14 -0.927779 28.7356)
(-6.9879e-14 -0.835402 30.2988)
(-7.08056e-14 -0.742488 31.5356)
(-7.05925e-14 -0.65893 32.5383)
(-7.09219e-14 -0.588456 33.3763)
(-7.09392e-14 -0.5322 34.1016)
(-7.0751e-14 -0.490331 34.7543)
(-7.04493e-14 -0.462501 35.3668)
(-6.99189e-14 -0.44769 35.9651)
(-6.87874e-14 -0.443884 36.5675)
(-6.78125e-14 -0.447953 37.1834)
(-6.69631e-14 -0.455938 37.8128)
(-6.70847e-14 -0.463686 38.4478)
(-6.76421e-14 -0.467544 39.0753)
(-6.82229e-14 -0.464855 39.6809)
(-6.7649e-14 -0.454115 40.2505)
(-7.10431e-14 -0.434894 40.7723)
(-7.3559e-14 -0.407618 41.2369)
(-7.0865e-14 -0.373347 41.6376)
(-7.04466e-14 -0.333596 41.97)
(-6.80625e-14 -0.290185 42.232)
(-6.87026e-14 -0.245116 42.4241)
(-6.91317e-14 -0.200447 42.5487)
(-6.93368e-14 -0.158152 42.6107)
(-6.85947e-14 -0.119996 42.6171)
(-7.04651e-14 -0.0874059 42.5766)
(-7.14101e-14 -0.0613803 42.4996)
(-7.00329e-14 -0.0424239 42.3975)
(-7.00372e-14 -0.0305246 42.2823)
(-6.96013e-14 -0.0251753 42.1653)
(-6.94595e-14 -0.0254462 42.0569)
(-6.93434e-14 -0.0301053 41.965)
(-6.98887e-14 -0.0377762 41.8947)
(-6.79473e-14 -0.0471067 41.8484)
(-6.59096e-14 -0.0569184 41.8255)
(-6.64068e-14 -0.0663083 41.8238)
(-6.62932e-14 -0.0746891 41.8395)
(-6.58164e-14 -0.0817732 41.8686)
(-6.53295e-14 -0.0875176 41.9073)
(-6.50578e-14 -0.0920515 41.9523)
(-6.49679e-14 -0.0956064 42.0011)
(-6.51442e-14 -0.0984662 42.0521)
(-6.47515e-14 -0.100949 42.1041)
(-6.60693e-14 -0.103427 42.157)
(-6.62499e-14 -0.106372 42.211)
(-6.70717e-14 -0.110402 42.2672)
(-6.75019e-14 -0.11626 42.3273)
(-6.77163e-14 -0.124685 42.3939)
(-6.82073e-14 -0.136179 42.4707)
(-6.86575e-14 -0.150782 42.5615)
(-7.17895e-14 -0.168101 42.67)
(-7.36899e-14 -0.187767 42.7991)
(-7.55299e-14 -0.210282 42.9515)
(-7.89462e-14 -0.237545 43.1309)
(-8.14203e-14 -0.272716 43.3458)
(-8.33213e-14 -0.317294 43.6063)
(-8.46473e-14 -0.37116 43.9312)
(-8.62275e-14 -0.423042 44.3112)
(-8.64351e-14 -0.468876 44.7843)
(-8.65312e-14 -0.486129 45.187)
(-8.55849e-14 -0.449123 45.8778)
(-2.94202e-14 -1.38352 -20.0781)
(-2.32712e-14 -1.2854 -16.0363)
(-3.00258e-14 -1.10038 -12.2197)
(-4.33691e-14 -0.926493 -9.17288)
(-3.0036e-14 -0.734393 -6.54258)
(2.9081e-14 -0.512651 -4.416)
(-6.98541e-14 -0.290001 -2.79516)
(-2.04158e-13 -0.143647 -1.72293)
(-1.28013e-13 -0.12253 -1.10675)
(-1.11717e-13 -0.146921 -0.658901)
(2.50225e-14 -0.229043 -0.12714)
(2.14839e-13 -0.28406 0.657461)
(9.66011e-14 -0.335695 1.51672)
(1.30289e-13 -0.367505 2.4085)
(6.0515e-14 -0.38768 3.29542)
(-3.61233e-14 -0.398484 4.16015)
(-9.78553e-14 -0.403688 4.99613)
(-5.7943e-14 -0.405685 5.80162)
(-1.02425e-13 -0.405746 6.57719)
(-1.07143e-13 -0.404764 7.32395)
(-9.60818e-14 -0.403336 8.04337)
(-2.90229e-14 -0.401348 8.73684)
(-8.88143e-15 -0.398196 9.40531)
(-2.36127e-15 -0.392649 10.0485)
(-1.45562e-14 -0.383918 10.6625)
(-3.4029e-14 -0.371736 11.2419)
(-6.33351e-14 -0.354032 11.7861)
(-9.16311e-14 -0.331429 12.2955)
(-1.11799e-13 -0.310115 12.7477)
(-1.25959e-13 -0.288106 13.136)
(-1.2239e-13 -0.265235 13.564)
(-8.86193e-14 -0.238885 13.9371)
(-6.88569e-14 -0.259086 13.8679)
(-6.33957e-14 -0.463083 14.3293)
(-8.29617e-14 -0.946156 16.892)
(-6.20601e-14 -1.41116 20.6679)
(-7.64964e-14 -1.60615 24.1533)
(-7.62125e-14 -1.56482 26.8312)
(-6.03632e-14 -1.41304 28.8001)
(-6.59146e-14 -1.23854 30.2836)
(-6.64896e-14 -1.07898 31.4562)
(-5.54724e-14 -0.94425 32.4267)
(-5.43203e-14 -0.834106 33.2595)
(-6.48984e-14 -0.746293 33.9947)
(-6.79626e-14 -0.679144 34.6607)
(-7.04794e-14 -0.631727 35.2806)
(-6.67825e-14 -0.603052 35.8738)
(-6.53136e-14 -0.591091 36.4544)
(-6.49268e-14 -0.592162 37.0299)
(-7.25214e-14 -0.601083 37.6)
(-7.38748e-14 -0.612026 38.1592)
(-8.27203e-14 -0.61963 38.6997)
(-8.31843e-14 -0.619819 39.2139)
(-8.20162e-14 -0.610098 39.6963)
(-8.44113e-14 -0.589403 40.143)
(-8.40766e-14 -0.557777 40.5502)
(-8.94815e-14 -0.516066 40.9142)
(-8.68237e-14 -0.465711 41.2302)
(-8.77456e-14 -0.408638 41.4929)
(-8.46025e-14 -0.347155 41.6977)
(-8.49674e-14 -0.28385 41.8414)
(-8.31888e-14 -0.221449 41.9232)
(-8.36491e-14 -0.162649 41.9453)
(-8.32507e-14 -0.109949 41.9133)
(-8.32833e-14 -0.0654849 41.836)
(-8.02813e-14 -0.0308747 41.7247)
(-8.25384e-14 -0.00706978 41.5925)
(-8.61892e-14 0.00577217 41.4533)
(-8.69438e-14 0.00835983 41.3198)
(-8.73825e-14 0.00223169 41.2023)
(-8.48137e-14 -0.0104299 41.1078)
(-8.51082e-14 -0.0271201 41.0394)
(-8.27917e-14 -0.0453934 40.9969)
(-8.44991e-14 -0.0631989 40.9774)
(-8.73109e-14 -0.0790882 40.9768)
(-8.64247e-14 -0.0922683 40.9904)
(-8.70239e-14 -0.102527 41.0137)
(-8.45576e-14 -0.110082 41.0428)
(-8.656e-14 -0.11542 41.0748)
(-8.91149e-14 -0.119146 41.1077)
(-9.02591e-14 -0.121886 41.1402)
(-9.06359e-14 -0.124249 41.1719)
(-9.03027e-14 -0.126856 41.203)
(-9.20164e-14 -0.130417 41.2345)
(-9.25256e-14 -0.135815 41.2678)
(-9.43682e-14 -0.144111 41.3055)
(-9.55894e-14 -0.156391 41.3514)
(-9.63684e-14 -0.173429 41.4104)
(-9.72075e-14 -0.195327 41.4881)
(-9.96295e-14 -0.22149 41.5897)
(-9.87959e-14 -0.251307 41.7192)
(-9.91901e-14 -0.285562 41.8804)
(-9.83915e-14 -0.327464 42.0782)
(-9.59544e-14 -0.38236 42.3239)
(-9.24902e-14 -0.452846 42.6296)
(-8.70853e-14 -0.5379 43.0148)
(-8.14413e-14 -0.618332 43.4621)
(-7.60316e-14 -0.688472 44.0055)
(-7.20269e-14 -0.707844 44.4665)
(-7.04538e-14 -0.651107 45.1996)
(-2.3436e-14 -1.78067 -21.5941)
(-2.65263e-14 -1.67201 -17.5679)
(-4.81654e-14 -1.44473 -13.6604)
(-5.70759e-14 -1.22666 -10.5288)
(-8.8421e-14 -0.996723 -7.81551)
(-5.45027e-14 -0.730712 -5.57929)
(4.96738e-14 -0.458669 -3.80679)
(-7.49814e-14 -0.262784 -2.51263)
(-1.33e-13 -0.209285 -1.61891)
(-1.32021e-13 -0.219601 -0.92549)
(5.98784e-14 -0.315555 -0.301136)
(2.23478e-13 -0.389782 0.499323)
(4.01428e-14 -0.451846 1.3927)
(5.71886e-15 -0.487316 2.31135)
(-4.28697e-14 -0.508294 3.21665)
(-1.36297e-13 -0.518089 4.09335)
(-1.31326e-13 -0.521613 4.93642)
(-1.08667e-13 -0.521731 5.74498)
(-9.42867e-14 -0.519868 6.5198)
(-6.5374e-14 -0.516996 7.26205)
(-4.30974e-14 -0.513789 7.97349)
(-9.54528e-15 -0.510105 8.65605)
(-1.70185e-14 -0.505237 9.31191)
(-2.88452e-14 -0.49742 9.94139)
(-6.21387e-14 -0.485341 10.5387)
(-8.5346e-14 -0.469556 11.1004)
(-1.1457e-13 -0.448501 11.6375)
(-1.19869e-13 -0.418278 12.1369)
(-1.37177e-13 -0.386316 12.544)
(-1.45971e-13 -0.372331 12.9432)
(-1.468e-13 -0.339874 13.4581)
(-1.47734e-13 -0.246693 13.569)
(-1.46365e-13 -0.317281 13.3292)
(-1.09346e-13 -0.902476 15.1631)
(-9.8545e-14 -1.70819 19.049)
(-7.7132e-14 -2.15132 22.7726)
(-6.0187e-14 -2.17071 25.4798)
(-5.09014e-14 -1.97542 27.3677)
(-4.81039e-14 -1.72893 28.7875)
(-4.68767e-14 -1.50071 29.9631)
(-4.87608e-14 -1.3079 31.0001)
(-5.17741e-14 -1.14924 31.9405)
(-6.55488e-14 -1.0201 32.7998)
(-7.2284e-14 -0.917098 33.5849)
(-7.69408e-14 -0.838552 34.3021)
(-8.05918e-14 -0.78348 34.958)
(-8.38951e-14 -0.750261 35.5581)
(-8.75167e-14 -0.735604 36.1053)
(-8.94043e-14 -0.734378 36.6001)
(-9.63556e-14 -0.740368 37.0427)
(-9.90459e-14 -0.747483 37.4362)
(-1.02703e-13 -0.750733 37.7886)
(-9.77208e-14 -0.746586 38.1118)
(-9.39364e-14 -0.732788 38.419)
(-9.1621e-14 -0.707989 38.7215)
(-8.51261e-14 -0.67148 39.0255)
(-8.41032e-14 -0.623157 39.3309)
(-8.1643e-14 -0.563648 39.6312)
(-8.39192e-14 -0.494461 39.9155)
(-8.38751e-14 -0.418026 40.1703)
(-8.83438e-14 -0.33759 40.3828)
(-8.63763e-14 -0.256956 40.5427)
(-8.61281e-14 -0.180158 40.6443)
(-8.66993e-14 -0.111102 40.6873)
(-8.62927e-14 -0.0532184 40.6765)
(-9.14802e-14 -0.00912764 40.621)
(-9.10739e-14 0.0196798 40.5327)
(-9.42236e-14 0.0330855 40.4237)
(-9.33427e-14 0.032415 40.3052)
(-9.37123e-14 0.0202532 40.186)
(-9.13103e-14 2.34861e-06 40.0726)
(-8.94652e-14 -0.0247048 39.9694)
(-8.33902e-14 -0.0505665 39.8796)
(-8.13343e-14 -0.0750019 39.8057)
(-8.04177e-14 -0.0963143 39.7495)
(-8.0506e-14 -0.113657 39.7124)
(-8.15192e-14 -0.126881 39.695)
(-7.68713e-14 -0.136335 39.6968)
(-7.62819e-14 -0.14268 39.7162)
(-7.44837e-14 -0.146729 39.7509)
(-7.43982e-14 -0.149341 39.7982)
(-7.94194e-14 -0.151373 39.8549)
(-7.98643e-14 -0.153717 39.9184)
(-8.12316e-14 -0.157402 39.9865)
(-8.33352e-14 -0.163725 40.0582)
(-8.33786e-14 -0.174296 40.1345)
(-8.24391e-14 -0.190829 40.2182)
(-8.07741e-14 -0.214626 40.3146)
(-7.83537e-14 -0.245941 40.4302)
(-7.34465e-14 -0.283865 40.5707)
(-6.76999e-14 -0.327395 40.7396)
(-6.1975e-14 -0.377669 40.9385)
(-5.71304e-14 -0.439403 41.1685)
(-5.08733e-14 -0.51985 41.4342)
(-4.47486e-14 -0.621377 41.7382)
(-3.96273e-14 -0.740465 42.094)
(-3.61165e-14 -0.848327 42.4855)
(-3.33073e-14 -0.941655 42.9759)
(-3.26754e-14 -0.953996 43.3884)
(-3.05854e-14 -0.868974 44.1852)
(-1.95523e-14 -2.19215 -22.8053)
(-1.26966e-14 -2.05921 -18.7957)
(-2.71463e-14 -1.79744 -14.8217)
(-4.39402e-14 -1.53399 -11.609)
(-7.72129e-14 -1.26706 -8.82511)
(-7.43726e-14 -0.959939 -6.50218)
(-3.43518e-14 -0.644322 -4.61865)
(-4.40229e-14 -0.405787 -3.17415)
(-1.14108e-13 -0.321332 -2.09399)
(-1.42482e-13 -0.311409 -1.21795)
(6.13922e-14 -0.411542 -0.470265)
(5.2396e-14 -0.499915 0.375117)
(-3.38499e-14 -0.572115 1.30576)
(-7.38499e-14 -0.610094 2.252)
(-8.06292e-14 -0.630698 3.17614)
(-8.95244e-14 -0.638621 4.06569)
(-8.51163e-14 -0.639827 4.91708)
(-7.18759e-14 -0.637493 5.72997)
(-5.96207e-14 -0.633131 6.50522)
(-2.96894e-14 -0.627803 7.24417)
(-4.15283e-14 -0.622311 7.94901)
(-9.39498e-14 -0.616585 8.62262)
(-1.17414e-13 -0.609758 9.26853)
(-8.27805e-14 -0.599211 9.8863)
(-1.28459e-13 -0.58356 10.4686)
(-1.34613e-13 -0.565406 11.0206)
(-1.34943e-13 -0.540749 11.5575)
(-1.54584e-13 -0.49832 12.029)
(-1.54408e-13 -0.462288 12.3993)
(-1.76502e-13 -0.466281 12.883)
(-1.67192e-13 -0.381626 13.3651)
(-1.87221e-13 -0.233418 13.0812)
(-1.57328e-13 -0.558582 13.489)
(-1.10354e-13 -1.5764 16.6666)
(-7.10801e-14 -2.45173 20.4324)
(-4.41474e-14 -2.71676 23.0996)
(-3.27182e-14 -2.57006 24.7824)
(-3.10372e-14 -2.28745 25.9901)
(-3.47947e-14 -2.00582 27.0409)
(-3.65711e-14 -1.76381 28.0577)
(-5.16512e-14 -1.56226 29.0634)
(-6.78403e-14 -1.39367 30.0442)
(-7.26121e-14 -1.25197 30.9776)
(-8.43232e-14 -1.13419 31.8433)
(-8.80548e-14 -1.03949 32.6248)
(-9.05569e-14 -0.967488 33.3097)
(-9.21395e-14 -0.916839 33.8889)
(-9.22988e-14 -0.884549 34.3583)
(-9.09023e-14 -0.866305 34.7211)
(-8.59046e-14 -0.857379 34.9898)
(-7.82934e-14 -0.853493 35.1865)
(-6.8377e-14 -0.85113 35.3402)
(-5.87045e-14 -0.847304 35.4818)
(-5.05819e-14 -0.839115 35.6384)
(-4.45415e-14 -0.823492 35.8301)
(-4.06898e-14 -0.797317 36.0674)
(-3.92081e-14 -0.757891 36.3517)
(-3.84743e-14 -0.703533 36.6761)
(-4.34935e-14 -0.634103 37.0269)
(-4.64299e-14 -0.551282 37.3864)
(-4.98017e-14 -0.458541 37.7344)
(-4.97958e-14 -0.360802 38.0513)
(-5.28838e-14 -0.263869 38.3198)
(-5.54651e-14 -0.173704 38.5271)
(-5.93558e-14 -0.0956756 38.6658)
(-6.20592e-14 -0.0338776 38.7335)
(-6.5182e-14 0.00936556 38.7322)
(-6.83646e-14 0.0336958 38.6668)
(-6.5144e-14 0.0405709 38.545)
(-6.30247e-14 0.0328045 38.3765)
(-5.41643e-14 0.0139357 38.1729)
(-4.69507e-14 -0.0123876 37.948)
(-3.97188e-14 -0.0428631 37.7168)
(-3.47139e-14 -0.0747694 37.4948)
(-2.50747e-14 -0.106014 37.2967)
(-2.01162e-14 -0.135074 37.1351)
(-1.68327e-14 -0.160906 37.0196)
(-1.20224e-14 -0.182874 36.9557)
(-1.10343e-14 -0.200707 36.9452)
(-1.16585e-14 -0.21447 36.9862)
(-1.33808e-14 -0.224541 37.0737)
(-1.26708e-14 -0.231603 37.2005)
(-1.32988e-14 -0.236688 37.3581)
(-9.97493e-15 -0.241294 37.5372)
(-1.18262e-14 -0.247536 37.7289)
(-1.56832e-14 -0.258161 37.9259)
(-1.47964e-14 -0.276151 38.123)
(-1.40604e-14 -0.303807 38.3178)
(-1.33683e-14 -0.341654 38.5105)
(-1.37441e-14 -0.38815 38.7023)
(-1.35561e-14 -0.441086 38.8927)
(-1.36769e-14 -0.500518 39.0777)
(-1.84884e-14 -0.570657 39.2468)
(-2.3975e-14 -0.659343 39.3862)
(-2.94969e-14 -0.770256 39.4795)
(-3.61676e-14 -0.904868 39.5402)
(-4.17306e-14 -1.03633 39.5812)
(-4.46334e-14 -1.16808 39.7662)
(-4.48156e-14 -1.22855 39.904)
(-3.90561e-14 -1.15548 40.8481)
(-2.7254e-14 -2.64393 -23.9528)
(-2.8013e-14 -2.45048 -19.7828)
(-2.39552e-14 -2.15587 -15.7681)
(-4.47817e-14 -1.84803 -12.4819)
(-6.59765e-14 -1.54443 -9.63533)
(-8.75855e-14 -1.1982 -7.24113)
(-8.59159e-14 -0.841922 -5.27225)
(-9.47351e-14 -0.564532 -3.71854)
(-8.84217e-14 -0.451625 -2.50462)
(-4.72238e-14 -0.420135 -1.49248)
(5.24064e-14 -0.518237 -0.633127)
(-3.41908e-14 -0.615789 0.276741)
(-5.13478e-14 -0.696276 1.24366)
(-6.22022e-14 -0.735592 2.21611)
(-7.49201e-14 -0.754939 3.15857)
(-8.97829e-14 -0.760331 4.06099)
(-7.20078e-14 -0.758635 4.92093)
(-3.7699e-14 -0.753258 5.73849)
(-7.56157e-14 -0.745819 6.51469)
(-9.41315e-14 -0.737508 7.25118)
(-1.50436e-13 -0.729316 7.95081)
(-1.72714e-13 -0.721296 8.61763)
(-1.2476e-13 -0.71222 9.25601)
(-1.03961e-13 -0.698485 9.8637)
(-9.54968e-14 -0.679726 10.4353)
(-9.35114e-14 -0.660297 10.9869)
(-1.10949e-13 -0.62896 11.5192)
(-1.49122e-13 -0.572646 11.9491)
(-1.35809e-13 -0.546853 12.3328)
(-1.27939e-13 -0.554498 12.9081)
(-1.28107e-13 -0.384439 13.1685)
(-1.29451e-13 -0.276412 12.762)
(-1.15545e-13 -0.995689 14.2734)
(-8.4198e-14 -2.25648 17.7155)
(-5.82031e-14 -3.00016 20.4395)
(-2.64964e-14 -3.0728 21.9361)
(-2.21291e-14 -2.82978 22.8145)
(-2.66979e-14 -2.52883 23.5564)
(-3.37762e-14 -2.2602 24.3517)
(-3.69463e-14 -2.03518 25.2302)
(-5.36108e-14 -1.84393 26.1639)
(-5.84066e-14 -1.67638 27.1125)
(-7.24632e-14 -1.52683 28.0375)
(-7.40186e-14 -1.3935 28.9046)
(-7.31727e-14 -1.27686 29.6848)
(-7.19738e-14 -1.17798 30.3551)
(-7.12061e-14 -1.09746 30.9011)
(-6.62252e-14 -1.03494 31.3207)
(-5.82673e-14 -0.989329 31.6256)
(-4.12509e-14 -0.959044 31.8398)
(-2.37205e-14 -0.94213 31.9953)
(-5.61109e-15 -0.935968 32.1252)
(-1.52401e-16 -0.936939 32.2576)
(2.46237e-15 -0.940345 32.412)
(3.29504e-15 -0.94075 32.5997)
(3.67721e-15 -0.932624 32.8252)
(1.29883e-15 -0.911057 33.089)
(2.84877e-15 -0.872393 33.3889)
(-3.21688e-15 -0.814702 33.7201)
(-7.18972e-15 -0.738104 34.0749)
(-1.16047e-14 -0.644888 34.4415)
(-1.57516e-14 -0.539399 34.8042)
(-2.06588e-14 -0.4276 35.1443)
(-2.10899e-14 -0.31635 35.4411)
(-2.40215e-14 -0.212489 35.6751)
(-2.28379e-14 -0.121919 35.8295)
(-2.57984e-14 -0.0489102 35.8927)
(-2.88749e-14 0.00422593 35.8598)
(-2.24964e-14 0.03706 35.7333)
(-1.85467e-14 0.0506626 35.5231)
(-8.44319e-15 0.0470916 35.2452)
(-4.44937e-15 0.0289189 34.9205)
(-6.24618e-17 -0.00110008 34.5726)
(1.69713e-15 -0.0401948 34.225)
(3.04389e-15 -0.0856341 33.8997)
(7.79922e-15 -0.134744 33.6154)
(1.03883e-14 -0.184946 33.3865)
(8.00147e-15 -0.233849 33.2228)
(1.35363e-15 -0.279369 33.13)
(-5.66605e-15 -0.319848 33.1094)
(-7.73094e-15 -0.354134 33.159)
(-1.30436e-14 -0.381645 33.2737)
(-1.8942e-14 -0.402448 33.4452)
(-1.76332e-14 -0.417439 33.6626)
(-2.00892e-14 -0.428586 33.9122)
(-2.23767e-14 -0.439038 34.1777)
(-2.52802e-14 -0.452758 34.442)
(-2.96915e-14 -0.47343 34.6887)
(-3.37675e-14 -0.502964 34.9056)
(-4.14446e-14 -0.540547 35.0866)
(-4.84765e-14 -0.583214 35.2301)
(-5.85827e-14 -0.628349 35.3333)
(-7.02271e-14 -0.676263 35.3827)
(-7.86503e-14 -0.733559 35.3552)
(-8.46175e-14 -0.809467 35.225)
(-8.21094e-14 -0.924135 35.0152)
(-7.4616e-14 -1.07685 34.76)
(-6.27063e-14 -1.27384 34.7199)
(-5.05999e-14 -1.4966 34.6148)
(-4.08597e-14 -1.55118 35.6638)
(-2.51257e-14 -3.07397 -24.8522)
(-3.90918e-14 -2.85094 -20.6049)
(-3.2697e-14 -2.51871 -16.5356)
(-4.09666e-14 -2.16716 -13.1875)
(-5.31829e-14 -1.82707 -10.2857)
(-4.43508e-14 -1.44284 -7.83228)
(-6.57e-14 -1.0478 -5.7966)
(-8.65292e-14 -0.734129 -4.16117)
(-1.73552e-14 -0.594743 -2.84753)
(4.4409e-15 -0.54226 -1.7308)
(-5.18695e-14 -0.635443 -0.774002)
(-1.82122e-14 -0.737856 0.20088)
(-4.80561e-14 -0.824099 1.19892)
(-6.61582e-14 -0.863734 2.19626)
(-8.39504e-14 -0.88097 3.15586)
(-4.58703e-14 -0.883171 4.07039)
(-5.71857e-14 -0.878017 4.93852)
(-1.09363e-13 -0.869069 5.76076)
(-1.55991e-13 -0.85805 6.53835)
(-1.58636e-13 -0.846314 7.27334)
(-1.40998e-13 -0.83511 7.96937)
(-1.26618e-13 -0.824597 8.63169)
(-6.38796e-14 -0.812936 9.26459)
(-5.5716e-14 -0.795837 9.86439)
(-7.86173e-14 -0.774962 10.4317)
(-8.57461e-14 -0.753963 10.9881)
(-9.92021e-14 -0.711942 11.504)
(-9.87982e-14 -0.646658 11.9028)
(-1.18058e-13 -0.640711 12.3517)
(-1.27741e-13 -0.618823 12.9317)
(-1.40338e-13 -0.373955 12.9016)
(-1.45927e-13 -0.426086 12.8309)
(-1.17808e-13 -1.50655 15.0858)
(-7.70857e-14 -2.7905 17.9425)
(-4.58531e-14 -3.33438 19.5794)
(-2.27026e-14 -3.27087 20.3093)
(-2.17535e-14 -2.99724 20.788)
(-2.96122e-14 -2.7169 21.3274)
(-3.42022e-14 -2.47946 21.9913)
(-3.19752e-14 -2.28009 22.7524)
(-3.75931e-14 -2.10513 23.5669)
(-4.09057e-14 -1.94449 24.397)
(-4.65618e-14 -1.793 25.2123)
(-4.09766e-14 -1.64938 25.9877)
(-3.63297e-14 -1.5149 26.7023)
(-3.41842e-14 -1.39233 27.3407)
(-3.23111e-14 -1.28497 27.8959)
(-3.08872e-14 -1.19592 28.3709)
(-2.06999e-14 -1.12743 28.7784)
(-7.74473e-15 -1.08024 29.1364)
(-2.80607e-15 -1.05306 29.4622)
(8.28928e-15 -1.04233 29.7677)
(1.13623e-14 -1.04272 30.0575)
(1.4739e-14 -1.04786 30.3308)
(1.66734e-14 -1.05144 30.585)
(1.93629e-14 -1.04782 30.8192)
(1.44262e-14 -1.03241 31.0355)
(1.73631e-14 -1.00174 31.2396)
(1.48751e-14 -0.953511 31.4384)
(1.40015e-14 -0.886711 31.6387)
(1.05042e-14 -0.80181 31.8441)
(7.67029e-15 -0.70095 32.054)
(4.84035e-15 -0.587981 32.2616)
(2.545e-15 -0.468229 32.4552)
(4.44458e-16 -0.347985 32.6188)
(-3.58384e-16 -0.233791 32.7353)
(-3.84627e-15 -0.131692 32.7894)
(-7.56414e-15 -0.0466129 32.7706)
(-7.30338e-15 0.0179999 32.6752)
(-8.00627e-15 0.0602787 32.5073)
(-7.53765e-15 0.0798326 32.2781)
(-1.20354e-14 0.077552 32.0034)
(-1.75009e-14 0.0553893 31.7017)
(-2.54307e-14 0.0161382 31.3911)
(-3.17289e-14 -0.0368062 31.088)
(-4.15354e-14 -0.0997181 30.8052)
(-4.94941e-14 -0.168825 30.5528)
(-5.56639e-14 -0.240563 30.3381)
(-6.33513e-14 -0.311765 30.1665)
(-6.99435e-14 -0.379748 30.0419)
(-7.91386e-14 -0.442309 29.9672)
(-8.73416e-14 -0.497667 29.944)
(-8.73025e-14 -0.544428 29.9723)
(-8.99458e-14 -0.581689 30.0492)
(-8.91322e-14 -0.609359 30.1686)
(-9.20242e-14 -0.628636 30.3195)
(-9.60105e-14 -0.642345 30.4864)
(-1.00613e-13 -0.65468 30.6522)
(-1.06287e-13 -0.670018 30.8024)
(-1.09969e-13 -0.690938 30.9302)
(-1.14656e-13 -0.716259 31.0364)
(-1.18279e-13 -0.741267 31.1239)
(-1.17895e-13 -0.760867 31.188)
(-1.11855e-13 -0.779553 31.2193)
(-9.69005e-14 -0.814684 31.2065)
(-7.4635e-14 -0.90856 31.189)
(-4.99383e-14 -1.08977 31.1754)
(-2.93651e-14 -1.35114 31.3791)
(-1.40305e-14 -1.73064 31.4494)
(-9.9699e-15 -1.9371 32.3647)
(-2.48362e-14 -3.50806 -25.564)
(-3.98854e-14 -3.25316 -21.2729)
(-4.03398e-14 -2.88581 -17.154)
(-5.03322e-14 -2.49011 -13.7513)
(-6.46566e-14 -2.11368 -10.8022)
(-4.46351e-14 -1.69218 -8.29949)
(-5.60495e-14 -1.25969 -6.21147)
(-6.34629e-14 -0.911618 -4.51484)
(-4.85175e-14 -0.747407 -3.12616)
(5.01059e-15 -0.674724 -1.92869)
(-4.36757e-14 -0.761239 -0.893441)
(-2.48526e-14 -0.86557 0.13937)
(-5.4149e-14 -0.955177 1.16782)
(-6.71765e-14 -0.99428 2.18765)
(-8.24257e-14 -1.00865 3.16241)
(-9.21491e-14 -1.00712 4.08783)
(-9.24763e-14 -0.998043 4.96356)
(-1.48881e-13 -0.985072 5.79043)
(-1.84651e-13 -0.970046 6.56992)
(-1.25614e-13 -0.954525 7.3045)
(-1.00767e-13 -0.940077 7.99866)
(-9.43665e-14 -0.926873 8.65856)
(-6.00296e-14 -0.91232 9.28773)
(-1.11606e-13 -0.892098 9.88293)
(-1.00569e-13 -0.869979 10.4527)
(-9.11415e-14 -0.845475 11.0123)
(-8.17523e-14 -0.790862 11.5039)
(-1.37879e-13 -0.72561 11.9034)
(-1.58945e-13 -0.734974 12.4264)
(-1.60514e-13 -0.655529 12.9028)
(-1.97259e-13 -0.382463 12.6951)
(-1.67151e-13 -0.666626 13.1779)
(-1.01869e-13 -1.97992 15.5818)
(-6.71183e-14 -3.16106 17.6768)
(-3.94389e-14 -3.53018 18.6511)
(-2.01243e-14 -3.39536 19.1185)
(-2.98463e-14 -3.1269 19.5644)
(-3.09167e-14 -2.87394 20.1284)
(-2.37151e-14 -2.6611 20.7939)
(-9.13591e-15 -2.47814 21.5131)
(-1.66254e-15 -2.31257 22.249)
(7.8258e-15 -2.15611 22.9794)
(1.11424e-15 -2.00466 23.6922)
(1.1315e-15 -1.85733 24.3808)
(-3.10636e-16 -1.71582 25.0413)
(-1.00021e-15 -1.58367 25.6721)
(3.99278e-16 -1.46548 26.2741)
(4.1338e-15 -1.36567 26.8494)
(9.4758e-15 -1.28728 27.3997)
(1.4845e-14 -1.23091 27.9237)
(1.94823e-14 -1.19433 28.4156)
(2.18319e-14 -1.17294 28.8658)
(2.2998e-14 -1.1609 29.2645)
(2.24557e-14 -1.15228 29.6041)
(1.97769e-14 -1.1419 29.8815)
(1.71734e-14 -1.12557 30.0988)
(7.64891e-15 -1.10006 30.262)
(4.97555e-15 -1.06283 30.3799)
(-3.77472e-15 -1.01201 30.4628)
(-8.04165e-15 -0.946368 30.5215)
(-1.41344e-14 -0.865541 30.5655)
(-1.6353e-14 -0.770228 30.6024)
(-1.63607e-14 -0.662419 30.6366)
(-1.52797e-14 -0.54546 30.6689)
(-1.7984e-14 -0.423952 30.696)
(-1.7659e-14 -0.303434 30.7121)
(-2.13948e-14 -0.189898 30.7096)
(-2.72987e-14 -0.0892136 30.6814)
(-3.06155e-14 -0.00653633 30.6227)
(-3.61862e-14 0.0542107 30.5319)
(-3.96003e-14 0.0907221 30.4104)
(-4.73587e-14 0.102501 30.2624)
(-5.65784e-14 0.0908064 30.0931)
(-6.81678e-14 0.0583583 29.908)
(-8.52538e-14 0.0088484 29.7121)
(-9.34216e-14 -0.0536127 29.51)
(-9.57472e-14 -0.124984 29.3062)
(-1.01853e-13 -0.201621 29.1051)
(-1.01976e-13 -0.280424 28.912)
(-1.0376e-13 -0.358822 28.7323)
(-1.07861e-13 -0.434654 28.5718)
(-1.1208e-13 -0.505985 28.4365)
(-1.14443e-13 -0.570932 28.3317)
(-1.11423e-13 -0.627589 28.262)
(-1.13801e-13 -0.674247 28.2301)
(-1.17272e-13 -0.710043 28.236)
(-1.18796e-13 -0.735948 28.2769)
(-1.19362e-13 -0.755507 28.348)
(-1.18378e-13 -0.774226 28.4448)
(-1.15351e-13 -0.796952 28.5653)