/*--------------------------------*- C++ -*----------------------------------*\
| =========                 |                                                 |
| \\      /  F ield         | OpenFOAM: The Open Source CFD Toolbox           |
|  \\    /   O peration     | Version:  4.1                                   |
|   \\  /    A nd           | Web:      www.OpenFOAM.org                      |
|    \\/     M anipulation  |                                                 |
\*---------------------------------------------------------------------------*/
FoamFile
{
    version     2.0;
    format      ascii;
    class       volScalarField;
    location    "1600";
    object      p;
}
// * * * * * * * * * * * * * * * * * * * * * * * * * * * * * * * * * * * * * //

dimensions      [0 2 -2 0 0 0 0];

internalField   nonuniform List<scalar> 
26785
(
-75.4988
-70.4221
-67.3647
-65.5469
-63.7829
-62.134
-60.6413
-59.2311
-58.0189
-57.0017
-56.2678
-56.173
-56.6734
-58.8741
-63.3102
-69.1706
-75.9898
-83.5021
-91.5776
-100.227
-109.556
-119.687
-130.682
-142.485
-154.911
-167.686
-180.508
-193.083
-205.141
-216.403
-226.543
-235.17
-241.881
-246.325
-248.333
-247.981
-245.555
-241.481
-235.729
-227.131
-213.899
-193.917
-168.187
-140.356
-113.269
-88.2265
-65.5565
-45.1457
-26.7231
-9.98761
5.34482
19.5229
32.7437
45.1302
56.6995
67.3405
76.8299
84.9468
91.5726
97.3606
101.378
103.103
103.624
103.841
104.3
104.66
104.581
103.978
103.16
102.625
102.629
102.98
103.29
103.293
102.88
101.993
100.564
98.5367
95.9257
92.8376
89.4572
85.9976
82.6247
79.376
76.1135
72.5234
68.1418
62.3666
54.4521
43.649
29.4974
12.2262
-6.78254
-25.1228
-39.3634
-46.2638
-44.1008
-34.6571
-19.1938
-8.90763
-75.483
-70.4135
-67.3647
-65.5481
-63.7853
-62.1385
-60.6473
-59.2369
-58.0237
-57.0032
-56.2609
-56.162
-56.6476
-58.8411
-63.2912
-69.1627
-75.9906
-83.51
-91.5909
-100.245
-109.577
-119.713
-130.715
-142.527
-154.964
-167.749
-180.58
-193.163
-205.228
-216.499
-226.648
-235.286
-242.004
-246.45
-248.452
-248.089
-245.656
-241.596
-235.902
-227.4
-214.307
-194.386
-168.585
-140.653
-113.491
-88.4014
-65.7063
-45.2834
-26.8568
-10.1226
5.20467
19.3753
32.5888
44.9714
56.5443
67.1999
76.7146
84.8516
91.4589
97.1682
101.199
103.138
103.636
103.824
104.264
104.567
104.479
103.935
103.156
102.617
102.621
102.986
103.31
103.321
102.91
102.018
100.576
98.5281
95.8887
92.7684
89.3575
85.8762
82.4963
79.2564
76.0134
72.4452
68.0791
62.3049
54.3629
43.489
29.2164
11.7581
-7.49479
-26.1396
-40.6904
-47.718
-45.4316
-35.5114
-19.586
-8.88164
-75.4699
-70.4013
-67.3681
-65.5535
-63.7919
-62.1488
-60.6603
-59.2495
-58.0342
-57.0068
-56.2463
-56.1396
-56.596
-58.7738
-63.2516
-69.1493
-76.0006
-83.5365
-91.6268
-100.286
-109.623
-119.767
-130.782
-142.611
-155.066
-167.87
-180.717
-193.313
-205.391
-216.676
-226.841
-235.495
-242.227
-246.679
-248.672
-248.291
-245.839
-241.778
-236.175
-227.874
-215.07
-195.293
-169.37
-141.249
-113.941
-88.7619
-66.0169
-45.5688
-27.1322
-10.3985
4.9206
19.0783
32.2782
44.653
56.2313
66.9112
76.4651
84.6213
91.2032
96.9145
101.026
103.092
103.622
103.822
104.223
104.485
104.397
103.886
103.123
102.577
102.597
102.996
103.346
103.368
102.957
102.054
100.585
98.4938
95.7964
92.6098
89.1353
85.6081
82.2133
78.9923
75.7917
72.2723
67.9424
62.1755
54.1874
43.1924
28.7205
10.949
-8.7277
-27.9294
-43.0917
-50.401
-47.9162
-37.0925
-20.2483
-8.87005
-75.4559
-70.3766
-67.3685
-65.5589
-63.8004
-62.1633
-60.6789
-59.2678
-58.0495
-57.0125
-56.2272
-56.1161
-56.5369
-58.6909
-63.2065
-69.1418
-76.0244
-83.5819
-91.6855
-100.352
-109.697
-119.853
-130.886
-142.739
-155.221
-168.051
-180.92
-193.534
-205.628
-216.931
-227.116
-235.792
-242.541
-246.999
-248.983
-248.578
-246.099
-242.019
-236.484
-228.389
-215.935
-196.415
-170.409
-142.085
-114.602
-89.3072
-66.493
-46.0062
-27.5512
-10.8139
4.49731
18.6394
31.822
44.1867
55.7717
66.4826
76.0862
84.269
90.8264
96.6191
100.867
102.961
103.577
103.829
104.186
104.414
104.3
103.788
103.02
102.486
102.557
103.012
103.393
103.428
103.017
102.095
100.586
98.4304
95.648
92.3644
88.7967
85.2027
81.7872
78.5947
75.4561
72.0064
67.7261
61.9665
53.9169
42.7762
28.0869
9.95318
-10.2693
-30.268
-46.418
-54.2544
-51.5779
-39.4206
-21.1508
-8.92725
-75.4472
-70.3503
-67.3716
-65.5672
-63.8122
-62.1826
-60.7036
-59.2917
-58.0694
-57.0215
-56.2077
-56.096
-56.4741
-58.5898
-63.1532
-69.141
-76.0675
-83.6531
-91.7706
-100.444
-109.796
-119.965
-131.022
-142.907
-155.425
-168.29
-181.189
-193.826
-205.939
-217.263
-227.472
-236.172
-242.942
-247.407
-249.379
-248.945
-246.427
-242.313
-236.83
-228.943
-216.855
-197.653
-171.605
-143.091
-115.434
-90.0167
-67.1247
-46.5908
-28.1105
-11.3654
3.93944
18.0651
31.2282
43.5811
55.1736
65.9205
75.5857
83.8184
90.3575
96.2637
100.663
102.785
103.503
103.816
104.133
104.336
104.187
103.65
102.863
102.356
102.507
103.032
103.444
103.491
103.076
102.128
100.567
98.3313
95.4448
92.0434
88.3637
84.6917
81.2557
78.1012
75.0355
71.6554
67.4001
61.5968
53.4308
42.1269
27.2735
8.85599
-11.896
-32.8023
-50.341
-59.0967
-56.4264
-42.5369
-22.3362
-9.03327
-75.4155
-70.32
-67.3775
-65.5785
-63.8278
-62.207
-60.7343
-59.3212
-58.094
-57.0344
-56.1886
-56.0769
-56.4061
-58.4746
-63.1026
-69.1575
-76.1344
-83.7481
-91.8774
-100.556
-109.914
-120.101
-131.188
-143.115
-155.68
-168.588
-181.523
-194.187
-206.323
-217.669
-227.905
-236.632
-243.425
-247.899
-249.856
-249.387
-246.823
-242.663
-237.204
-229.509
-217.77
-198.905
-172.859
-144.198
-116.391
-90.8638
-67.8963
-47.3126
-28.8028
-12.0459
3.25453
17.3637
30.5061
42.846
54.4461
65.2318
74.9696
83.2737
89.8277
95.8683
100.38
102.559
103.388
103.768
104.058
104.238
104.044
103.466
102.661
102.192
102.45
103.053
103.489
103.542
103.114
102.131
100.511
98.1888
95.1905
91.6625
87.8644
84.115
80.6682
77.5658
74.5794
71.2522
66.9708
61.0437
52.6877
41.1934
26.2387
7.67562
-13.4831
-35.2218
-54.4589
-64.585
-62.2738
-46.3686
-23.8138
-9.14772
-75.3534
-70.282
-67.3825
-65.5897
-63.8447
-62.2345
-60.7693
-59.3551
-58.1232
-57.053
-56.172
-56.0586
-56.3336
-58.3521
-63.0618
-69.1941
-76.2253
-83.8672
-92.0065
-100.687
-110.053
-120.259
-131.384
-143.362
-155.983
-168.944
-181.919
-194.612
-206.77
-218.14
-228.404
-237.163
-243.983
-248.469
-250.41
-249.9
-247.283
-243.069
-237.615
-230.086
-218.671
-200.123
-174.109
-145.349
-117.434
-91.8212
-68.7893
-48.1584
-29.6174
-12.8461
2.45204
16.5453
29.6661
41.9916
53.5986
64.4234
74.2466
82.6327
89.2576
95.4423
100.024
102.281
103.23
103.678
103.956
104.112
103.869
103.242
102.434
102.038
102.424
103.084
103.515
103.556
103.11
102.093
100.415
98.0032
94.8901
91.2328
87.3161
83.4952
80.0513
77.019
74.1251
70.8491
66.5143
60.4094
51.8021
40.0749
25.0416
6.44342
-14.9901
-37.3319
-58.3496
-70.2454
-68.6695
-50.6608
-25.5058
-9.22387
-75.2883
-70.2455
-67.3917
-65.6037
-63.8643
-62.2651
-60.8079
-59.3929
-58.1573
-57.0789
-56.1594
-56.0415
-56.259
-58.2314
-63.0402
-69.2565
-76.3433
-84.0113
-92.1573
-100.838
-110.21
-120.44
-131.609
-143.648
-156.334
-169.353
-182.372
-195.095
-207.274
-218.667
-228.962
-237.757
-244.609
-249.11
-251.036
-250.482
-247.805
-243.531
-238.065
-230.669
-219.549
-201.271
-175.306
-146.5
-118.528
-92.8633
-69.7845
-49.1132
-30.5421
-13.7549
1.54252
15.6204
28.7188
41.0285
52.6404
63.5002
73.4082
81.8948
88.6719
94.9655
99.6021
101.957
103.027
103.545
103.821
103.954
103.66
102.976
102.188
101.935
102.434
103.099
103.502
103.536
103.075
102.021
100.281
97.7815
94.5566
90.7712
86.7352
82.8449
79.4151
76.473
73.6926
70.4768
66.0754
59.7691
50.8989
38.9401
23.8465
5.27539
-16.3742
-39.0761
-61.7355
-75.7266
-75.1053
-55.0415
-27.2617
-9.23035
-75.2183
-70.202
-67.4005
-65.619
-63.8862
-62.2984
-60.8495
-59.4341
-58.1961
-57.1126
-56.1517
-56.0254
-56.1854
-58.1237
-63.0461
-69.3487
-76.4893
-84.1799
-92.3289
-101.007
-110.386
-120.644
-131.864
-143.971
-156.73
-169.812
-182.878
-195.629
-207.828
-219.243
-229.57
-238.404
-245.294
-249.815
-251.728
-251.128
-248.386
-244.046
-238.557
-231.269
-220.403
-202.33
-176.418
-147.62
-119.646
-93.9674
-70.8636
-50.1621
-31.5639
-14.7606
0.537181
14.5999
27.675
39.9673
51.5814
62.4721
72.4608
81.0583
88.0506
94.4331
99.1229
101.591
102.781
103.367
103.648
103.758
103.411
102.668
101.918
101.833
102.424
103.089
103.478
103.496
103.012
101.919
100.121
97.5421
94.2094
90.293
86.1299
82.1668
78.7609
75.929
73.2786
70.1205
65.6346
59.1272
50.0309
37.892
22.7811
4.29803
-17.5406
-40.4121
-64.3843
-80.7372
-81.0719
-59.0551
-28.8766
-9.15567
-75.1504
-70.1577
-67.4104
-65.6354
-63.9103
-62.3343
-60.8941
-59.4786
-58.2397
-57.1546
-56.1494
-56.0121
-56.115
-58.0427
-63.0863
-69.4731
-76.6635
-84.3713
-92.5188
-101.192
-110.579
-120.868
-132.147
-144.331
-157.169
-170.318
-183.431
-196.209
-208.426
-219.861
-230.221
-239.097
-246.031
-250.58
-252.481
-251.833
-249.023
-244.614
-239.091
-231.894
-221.23
-203.284
-177.423
-148.686
-120.766
-95.1143
-72.0096
-51.2901
-32.6698
-15.8512
-0.552571
13.4951
26.5459
38.8187
50.4315
61.3457
71.4146
80.1512
87.3735
93.8428
98.5944
101.182
102.49
103.143
103.433
103.522
103.123
102.328
101.62
101.699
102.383
103.055
103.435
103.436
102.931
101.801
99.9501
97.2944
93.8533
89.799
85.5
81.4647
78.0981
75.397
72.883
69.7619
65.1643
58.4638
49.1896
36.9375
21.8844
3.57278
-18.3915
-41.1489
-65.7645
-84.745
-85.9542
-62.2063
-30.1507
-9.01904
-75.0608
-70.1156
-67.4242
-65.6541
-63.937
-62.3729
-60.9416
-59.5268
-58.2883
-57.2051
-56.1537
-56.0053
-56.0501
-58.003
-63.1648
-69.6304
-76.8637
-84.5827
-92.7245
-101.392
-110.788
-121.115
-132.46
-144.728
-157.65
-170.869
-184.028
-196.83
-209.061
-220.515
-230.908
-239.83
-246.814
-251.396
-253.291
-252.594
-249.713
-245.232
-239.668
-232.555
-222.027
-204.121
-178.307
-149.683
-121.873
-96.288
-73.2074
-52.4836
-33.8471
-17.015
-1.71547
12.317
25.3423
37.5937
49.2021
60.1334
70.2738
79.188
86.6418
93.1985
98.0208
100.73
102.153
102.87
103.17
103.242
102.798
101.964
101.32
101.558
102.327
103.009
103.376
103.353
102.83
101.668
99.7672
97.0372
93.4866
89.2906
84.8544
80.7567
77.4497
74.8936
72.5049
69.3842
64.6499
57.7764
48.3714
36.0741
21.1755
3.09148
-18.8638
-40.954
-65.1071
-86.8514
-88.7158
-63.9304
-30.9272
-8.86491
-74.9372
-70.0686
-67.437
-65.6723
-63.9648
-62.4134
-60.992
-59.5787
-58.342
-57.2639
-56.1663
-56.0089
-55.9969
-58.0167
-63.2836
-69.819
-77.0868
-84.811
-92.9439
-101.604
-111.013
-121.384
-132.803
-145.161
-158.171
-171.459
-184.663
-197.486
-209.727
-221.197
-231.623
-240.595
-247.635
-252.26
-254.151
-253.406
-250.452
-245.899
-240.284
-233.268
-222.792
-204.831
-179.063
-150.603
-122.955
-97.4756
-74.4437
-53.7298
-35.0841
-18.2409
-2.94065
11.0763
24.0749
36.3031
47.9053
58.861
69.0697
78.1677
85.8503
92.5025
97.4023
100.233
101.77
102.547
102.856
102.915
102.438
101.585
101.023
101.41
102.253
102.944
103.296
103.247
102.703
101.518
99.5715
96.7692
93.1132
88.7799
84.2149
80.0711
76.8416
74.4302
72.136
68.9727
64.0927
57.0797
47.5874
35.3221
20.6741
2.80713
-18.8754
-39.8326
-62.9775
-86.9804
-88.4384
-63.729
-31.1449
-8.77714
-74.8112
-70.0242
-67.4506
-65.6896
-63.9926
-62.4546
-61.0445
-59.6342
-58.4008
-57.3304
-56.1896
-56.0242
-55.9697
-58.0922
-63.4435
-70.0363
-77.3297
-85.0537
-93.1752
-101.83
-111.255
-121.676
-133.175
-145.628
-158.727
-172.086
-185.333
-198.173
-210.42
-221.902
-232.36
-241.385
-248.488
-253.164
-255.058
-254.264
-251.236
-246.611
-240.929
-234.028
-223.525
-205.408
-179.691
-151.444
-124.006
-98.6667
-75.7071
-55.0175
-36.3699
-19.5183
-4.21777
9.78357
22.7544
34.9585
46.5493
57.5312
67.831
77.106
84.9993
91.7555
96.7381
99.6876
101.339
102.17
102.485
102.538
102.045
101.197
100.732
101.251
102.153
102.852
103.189
103.119
102.556
101.348
99.3619
96.4934
92.7383
88.2828
83.6091
79.4396
76.2982
74.0126
71.7646
68.5216
63.5067
56.3939
46.8591
34.7226
20.3865
2.72006
-18.2637
-38.1125
-61.0011
-85.1696
-84.9682
-61.4547
-30.8348
-8.83015
-74.6826
-69.9779
-67.4642
-65.7061
-64.0197
-62.4955
-61.098
-59.6927
-58.4646
-57.4039
-56.2274
-56.0468
-55.9854
-58.2338
-63.6438
-70.2794
-77.5898
-85.309
-93.4175
-102.068
-111.515
-121.992
-133.576
-146.127
-159.317
-172.745
-186.032
-198.885
-211.134
-222.625
-233.115
-242.194
-249.366
-254.103
-256.004
-255.163
-252.062
-247.366
-241.601
-234.798
-224.214
-205.849
-180.197
-152.208
-125.02
-99.8532
-76.9879
-56.3365
-37.6948
-20.8377
-5.53712
8.44874
21.3911
33.5704
45.1591
56.1622
66.5558
76.0022
84.0923
90.959
96.0258
99.0917
100.858
101.735
102.054
102.108
101.62
100.804
100.448
101.081
102.028
102.731
103.055
102.968
102.39
101.163
99.141
96.2134
92.3699
87.8089
83.0563
78.8897
75.8394
73.6402
71.3833
68.0401
62.919
55.7473
46.2208
34.3043
20.2789
2.89845
-16.9558
-35.8723
-58.7063
-80.1102
-79.059
-57.808
-30.2913
-9.31469
-74.5557
-69.931
-67.4772
-65.7216
-64.0461
-62.5354
-61.1517
-59.7533
-58.533
-57.4837
-56.2846
-56.0551
-56.0527
-58.4423
-63.8827
-70.5454
-77.8648
-85.5752
-93.6704
-102.319
-111.794
-122.332
-134.006
-146.657
-159.936
-173.431
-186.756
-199.619
-211.867
-223.362
-233.881
-243.016
-250.263
-255.07
-256.985
-256.098
-252.923
-248.16
-242.306
-235.556
-224.844
-206.157
-180.591
-152.9
-125.997
-101.029
-78.2779
-57.6782
-39.05
-22.1904
-6.88968
7.08141
19.9963
32.149
43.7356
54.7746
65.2599
74.8597
83.1348
90.1144
95.2614
98.442
100.325
101.236
101.559
101.624
101.165
100.408
100.168
100.896
101.874
102.579
102.892
102.792
102.203
100.961
98.9118
95.9358
92.0164
87.3642
82.5546
78.417
75.4508
73.2886
70.976
67.5299
62.338
55.1434
45.6767
34.0235
20.2652
3.3661
-15.0837
-33.0742
-54.8568
-72.7389
-71.7555
-53.0279
-29.6005
-10.1283
-74.4157
-69.8892
-67.4917
-65.7367
-64.0719
-62.5739
-61.2044
-59.8153
-58.6056
-57.5694
-56.371
-55.9665
-56.1851
-58.7136
-64.1562
-70.8315
-78.1528
-85.8513
-93.9336
-102.585
-112.092
-122.698
-134.464
-147.213
-160.58
-174.14
-187.501
-200.372
-212.614
-224.109
-234.655
-243.847
-251.175
-256.063
-257.997
-257.066
-253.817
-248.987
-243.049
-236.297
-225.405
-206.34
-180.885
-153.526
-126.936
-102.19
-79.5705
-59.0352
-40.4281
-23.5687
-8.26718
5.69108
18.5781
30.71
42.2879
53.3677
63.9461
73.6879
82.1333
89.2199
94.4381
97.7361
99.7358
100.666
100.997
101.084
100.68
100.01
99.8887
100.692
101.689
102.395
102.7
102.591
101.993
100.741
98.6733
95.665
91.69
86.9639
82.1002
77.9797
75.0673
72.9028
70.5109
66.9678
61.723
54.525
45.1724
33.8055
20.312
4.12085
-12.8684
-30.0248
-50.2324
-64.854
-63.6214
-47.8398
-28.5308
-10.5077
-74.2465
-69.8465
-67.5059
-65.7513
-64.0972
-62.6109
-61.2556
-59.8778
-58.6824
-57.6619
-56.4974
-55.7745
-56.3915
-59.0346
-64.4582
-71.135
-78.4518
-86.136
-94.2072
-102.866
-112.411
-123.088
-134.947
-147.793
-161.246
-174.869
-188.266
-201.142
-213.375
-224.865
-235.434
-244.683
-252.096
-257.076
-259.036
-258.063
-254.739
-249.838
-243.835
-237.015
-225.878
-206.41
-181.095
-154.094
-127.838
-103.331
-80.8602
-60.4015
-41.8227
-24.9658
-9.66207
4.28608
17.1508
29.2566
40.8265
51.9537
62.6216
72.494
81.0896
88.2662
93.5491
96.9716
99.0831
100.015
100.367
100.489
100.166
99.6088
99.6076
100.468
101.475
102.179
102.478
102.363
101.76
100.5
98.4246
95.4016
91.3969
86.6224
81.7104
77.5752
74.6626
72.4527
69.9668
66.3365
61.0522
53.8742
44.6893
33.6235
20.4574
5.12671
-10.5536
-26.8277
-45.0179
-56.8548
-55.5665
-42.6494
-26.9195
-10.2778
-74.0791
-69.8057
-67.5181
-65.7642
-64.1219
-62.6462
-61.3046
-59.9401
-58.763
-57.7696
-56.6775
-55.6275
-56.6284
-59.3851
-64.7828
-71.453
-78.7598
-86.4285
-94.4916
-103.163
-112.753
-123.504
-135.454
-148.395
-161.93
-175.616
-189.048
-201.928
-214.148
-225.629
-236.215
-245.52
-253.023
-258.106
-260.099
-259.086
-255.686
-250.706
-244.674
-237.713
-226.223
-206.376
-181.234
-154.612
-128.705
-104.452
-82.1428
-61.7717
-43.2282
-26.3761
-11.0677
2.8749
15.7165
27.7914
39.3603
50.5381
61.292
71.2754
79.994
87.2393
92.5903
96.1441
98.356
99.2771
99.6752
99.8424
99.6218
99.201
99.3204
100.224
101.232
101.932
102.228
102.11
101.502
100.24
98.1657
95.1465
91.1401
86.3468
81.3986
77.2243
74.2604
71.9605
69.3645
65.6543
60.3464
53.2229
44.2453
33.4886
20.7391
6.34834
-8.19953
-23.5281
-39.6077
-49.2166
-48.0075
-37.6122
-24.9053
-9.70566
-73.9158
-69.7655
-67.5284
-65.7752
-64.1453
-62.6793
-61.3512
-60.0019
-58.8468
-57.8921
-56.8955
-55.6563
-56.8748
-59.7529
-65.1258
-71.7824
-79.0747
-86.7279
-94.7875
-103.478
-113.118
-123.944
-135.984
-149.015
-162.63
-176.378
-189.844
-202.727
-214.932
-226.398
-236.998
-246.356
-253.952
-259.151
-261.182
-260.133
-256.656
-251.573
-245.58
-238.393
-226.41
-206.245
-181.316
-155.087
-129.537
-105.55
-83.4148
-63.1418
-44.6403
-27.7947
-12.4784
1.45926
14.2708
26.3186
37.8955
49.1243
59.9526
70.0197
78.83
86.1302
91.5618
95.2481
97.5421
98.4592
98.9328
99.1482
99.0485
98.7835
99.0238
99.9584
100.961
101.657
101.952
101.832
101.221
99.9608
97.8969
94.9
90.9212
86.142
81.1723
76.9352
73.8725
71.4429
68.7225
64.9382
59.6239
52.5887
43.8418
33.408
21.1654
7.72509
-5.82667
-20.113
-34.1472
-42.0528
-41.036
-32.831
-22.6538
-8.94227
-73.7572
-69.7253
-67.5362
-65.7841
-64.167
-62.7096
-61.395
-60.0628
-58.9369
-58.0174
-57.143
-55.8285
-57.1365
-60.1341
-65.4836
-72.1203
-79.3945
-87.0338
-95.0955
-103.813
-113.507
-124.408
-136.534
-149.651
-163.344
-177.152
-190.655
-203.54
-215.727
-227.173
-237.779
-247.189
-254.88
-260.208
-262.285
-261.205
-257.646
-252.422
-246.511
-239.045
-226.437
-206.031
-181.352
-155.524
-130.337
-106.624
-84.6737
-64.5084
-46.0556
-29.2183
-13.8973
0.0288778
12.815
24.8473
36.4369
47.71
58.5911
68.7125
77.5887
84.9413
90.4656
94.2773
96.6333
97.5858
98.1516
98.4134
98.4465
98.3524
98.7142
99.6732
100.666
101.355
101.652
101.533
100.921
99.6654
97.6207
94.6631
90.7399
86.0096
81.0392
76.7224
73.5172
70.9211
68.06
64.2039
58.9021
51.987
43.4852
33.3946
21.726
9.20142
-3.4441
-16.6308
-28.8127
-35.4581
-34.7132
-28.3705
-20.2689
-8.05051
-73.5962
-69.6892
-67.5424
-65.7905
-64.1859
-62.7366
-61.4362
-60.1219
-59.0328
-58.1435
-57.4077
-56.083
-57.4155
-60.5269
-65.8525
-72.4636
-79.7174
-87.3458
-95.4165
-104.168
-113.92
-124.896
-137.104
-150.302
-164.069
-177.938
-191.477
-204.365
-216.531
-227.951
-238.557
-248.014
-255.802
-261.273
-263.404
-262.299
-258.651
-253.264
-247.363
-239.639
-226.322
-205.752
-181.356
-155.93
-131.107
-107.674
-85.9175
-65.8689
-47.4721
-30.6528
-15.3385
-1.42243
11.3531
23.3813
34.9846
46.2895
57.2002
67.3513
76.2763
83.6826
89.3044
93.2286
95.6367
96.6826
97.3366
97.646
97.8184
97.9046
98.3888
99.3691
100.35
101.033
101.333
101.216
100.605
99.3592
97.3416
94.4377
90.5949
85.9471
81.0026
76.5998
73.2171
70.422
67.4014
63.4707
58.1976
51.4282
43.1825
33.459
22.4014
10.7323
-1.06721
-13.1467
-23.726
-29.4546
-29.048
-24.2463
-17.8359
-7.08892
-73.4175
-69.6545
-67.547
-65.7944
-64.2013
-62.7601
-61.4749
-60.1805
-59.1279
-58.2791
-57.6815
-56.3926
-57.7122
-60.9306
-66.2292
-72.8096
-80.0417
-87.6637
-95.7514
-104.545
-114.359
-125.408
-137.693
-150.966
-164.804
-178.733
-192.309
-205.201
-217.345
-228.734
-239.331
-248.829
-256.715
-262.342
-264.538
-263.418
-259.661
-254.127
-248.084
-240.131
-226.088
-205.429
-181.336
-156.31
-131.848
-108.7
-87.1441
-67.2233
-48.8978
-32.1131
-16.8112
-2.89316
9.88498
21.9183
33.5372
44.8633
55.7846
65.9472
74.9081
82.3668
88.0825
92.1058
94.573
95.7589
96.4906
96.8553
97.1687
97.4386
98.0454
99.0477
100.018
100.696
101
100.887
100.281
99.0494
97.0663
94.2276
90.4848
85.9494
81.0614
76.5795
72.9954
69.9733
66.7732
62.7594
57.5243
50.9186
42.9409
33.608
23.1694
12.2883
1.29263
-9.71472
-18.9555
-24.0144
-23.977
-20.4387
-15.4156
-6.09911
-73.2458
-69.6216
-67.5491
-65.7954
-64.2124
-62.7801
-61.5108
-60.2395
-59.219
-58.4305
-57.9659
-56.7428
-58.0271
-61.3436
-66.6114
-73.1562
-80.3663
-87.9873
-96.1004
-104.943
-114.823
-125.943
-138.299
-151.642
-165.546
-179.533
-193.149
-206.047
-218.168
-229.521
-240.101
-249.631
-257.613
-263.412
-265.685
-264.564
-260.667
-255.033
-248.731
-240.481
-225.767
-205.081
-181.3
-156.667
-132.563
-109.699
-88.3552
-68.5806
-50.3471
-33.609
-18.3125
-4.38514
8.40466
20.4565
32.0977
43.4374
54.355
64.5152
73.4998
81.0057
86.8073
90.9207
93.4658
94.8169
95.6213
96.0523
96.5045
96.9554
97.6832
98.711
99.6748
100.35
100.66
100.554
99.9567
98.7446
96.8027
94.0381
90.409
86.0092
81.2092
76.6698
72.8765
69.605
66.2051
62.0944
56.8963
50.4617
42.7641
33.8429
24.011
13.8483
3.61279
-6.39188
-14.5353
-19.0965
-19.4253
-16.9225
-13.0462
-5.10802
-73.0847
-69.59
-67.5484
-65.7924
-64.2185
-62.7969
-61.5447
-60.2964
-59.3085
-58.6018
-58.2599
-57.1289
-58.362
-61.7643
-66.9968
-73.5025
-80.6908
-88.3165
-96.4638
-105.363
-115.313
-126.502
-138.924
-152.329
-166.294
-180.339
-193.994
-206.9
-218.998
-230.31
-240.864
-250.418
-258.489
-264.473
-266.843
-265.736
-261.66
-255.939
-249.387
-240.666
-225.384
-204.724
-181.26
-157.004
-133.25
-110.679
-89.5611
-69.9535
-51.826
-35.1327
-19.8417
-5.90448
6.91002
18.9988
30.6688
42.0163
52.9198
63.0673
72.0647
79.6103
85.489
89.6882
92.3333
93.8657
94.7367
95.2485
95.8353
96.4587
97.3038
98.3621
99.3251
100.001
100.32
100.225
99.6401
98.4534
96.559
93.875
90.3678
86.1186
81.4348
76.8709
72.8808
69.3471
65.7292
61.5036
56.33
50.0604
42.6499
34.1563
24.9106
15.4045
5.8823
-3.20834
-10.4675
-14.657
-15.3297
-13.6765
-10.7552
-4.13501
-72.9323
-69.559
-67.5444
-65.7848
-64.2197
-62.8105
-61.5782
-60.3477
-59.4002
-58.793
-58.5459
-57.5542
-58.7198
-62.1906
-67.3837
-73.8475
-81.0158
-88.6519
-96.8412
-105.805
-115.827
-127.084
-139.565
-153.025
-167.046
-181.146
-194.843
-207.76
-219.836
-231.102
-241.62
-251.184
-259.334
-265.517
-268.014
-266.927
-262.662
-256.73
-250.075
-240.7
-224.96
-204.366
-181.208
-157.322
-133.916
-111.647
-90.7763
-71.3453
-53.3246
-36.6798
-21.4014
-7.45158
5.40599
17.5466
29.2493
40.6005
51.4845
61.6123
70.6133
78.191
84.1386
88.4237
91.1908
92.9142
93.8365
94.4572
95.1716
95.9553
96.9114
98.0055
98.9751
99.6574
99.9879
99.9069
99.3397
98.1837
96.3426
93.744
90.3623
86.2708
81.7238
77.174
73.0203
69.2284
65.3789
61.0196
55.848
49.7225
42.5929
34.5306
25.8495
16.9567
8.10916
-0.15708
-6.71437
-10.6398
-11.6277
-10.6765
-8.56485
-3.194
-72.786
-69.5305
-67.5368
-65.7717
-64.2159
-62.8213
-61.6103
-60.3941
-59.4956
-58.9987
-58.8183
-58.0105
-59.1096
-62.619
-67.7711
-74.1912
-81.3411
-88.9936
-97.2323
-106.266
-116.364
-127.687
-140.222
-153.73
-167.801
-181.953
-195.694
-208.624
-220.679
-231.896
-242.369
-251.926
-260.138
-266.525
-269.206
-268.12
-263.695
-257.428
-250.723
-240.615
-224.508
-204
-181.137
-157.614
-134.571
-112.618
-91.9977
-72.7455
-54.8359
-38.2486
-22.9894
-9.01823
3.89847
16.099
27.8364
39.19
50.0524
60.1562
69.1536
76.7571
82.7678
87.1433
90.052
91.9605
92.9304
93.6959
94.5241
95.4529
96.5122
97.6469
98.6309
99.3258
99.6717
99.6082
99.0632
97.9431
96.1598
93.6498
90.3942
86.4609
82.0623
77.5625
73.2937
69.2704
65.1883
60.6789
55.482
49.4678
42.5933
34.9441
26.8002
18.4927
10.2923
2.76174
-3.23423
-6.98497
-8.26703
-7.90845
-6.48669
-2.2937
-72.6334
-69.5036
-67.5251
-65.7528
-64.2077
-62.8313
-61.6385
-60.4385
-59.5941
-59.2119
-59.1061
-58.4766
-59.526
-63.0441
-68.1554
-74.5333
-81.6678
-89.3415
-97.6359
-106.746
-116.922
-128.31
-140.894
-154.442
-168.555
-182.758
-196.543
-209.491
-221.526
-232.69
-243.107
-252.643
-260.889
-267.476
-270.427
-269.338
-264.651
-258.154
-251.266
-240.42
-224.014
-203.6
-181.041
-157.893
-135.216
-113.583
-93.2162
-74.1474
-56.3563
-39.8353
-24.5971
-10.5935
2.39144
14.6554
26.4286
37.7847
48.6256
58.7032
67.6924
75.3171
81.3878
85.8616
88.9254
90.9974
92.0491
92.9772
93.9016
94.9594
96.1135
97.2926
98.2989
99.0129
99.3783
99.3363
98.8178
97.7377
96.0162
93.5966
90.4655
86.6864
82.4392
78.0168
73.6857
69.4797
65.1857
60.5212
55.2743
49.3331
42.6712
35.3891
27.7329
19.9725
12.3853
5.49989
-0.0336318
-3.67421
-5.24116
-5.3856
-4.50513
-1.43815
-72.4916
-69.4779
-67.508
-65.7275
-64.1971
-62.8409
-61.6608
-60.4837
-59.6939
-59.4217
-59.4285
-58.9341
-59.9501
-63.4611
-68.5325
-74.8708
-81.995
-89.6958
-98.0511
-107.242
-117.499
-128.952
-141.58
-155.16
-169.31
-183.559
-197.389
-210.358
-222.375
-233.483
-243.835
-253.333
-261.577
-268.339
-271.651
-270.625
-265.468
-258.937
-251.658
-240.094
-223.453
-203.167
-180.926
-158.156
-135.847
-114.536
-94.4278
-75.5476
-57.8813
-41.4328
-26.2127
-12.1683
0.887866
13.2158
25.025
36.3847
47.2053
57.2564
66.2348
73.8786
80.0084
84.5891
87.813
90.0238
91.2162
92.3011
93.3098
94.4809
95.7223
96.9488
97.9844
98.7241
99.1139
99.0975
98.6097
97.5733
95.9159
93.5874
90.5783
86.9471
82.8482
78.5196
74.1729
69.844
65.3829
60.5802
55.2728
49.3731
42.8759
35.8952
28.6485
21.3653
14.3334
8.00236
2.84153
-0.736012
-2.57424
-3.12318
-2.5918
-0.627556
-72.3636
-69.4524
-67.4852
-65.6956
-64.1863
-62.8485
-61.6779
-60.531
-59.7926
-59.6175
-59.7724
-59.375
-60.3696
-63.8656
-68.8991
-75.2007
-82.3199
-90.0549
-98.4779
-107.753
-118.092
-129.608
-142.277
-155.884
-170.063
-184.353
-198.228
-211.222
-223.224
-234.272
-244.55
-253.995
-262.198
-269.096
-272.806
-271.911
-266.247
-259.72
-251.857
-239.638
-222.832
-202.711
-180.797
-158.405
-136.464
-115.478
-95.6306
-76.9419
-59.406
-43.0325
-27.8257
-13.7365
-0.609952
11.7803
23.6251
34.99
45.7925
55.8181
64.7851
72.4475
78.6375
83.3315
86.7133
89.0477
90.4383
91.6607
92.7511
94.0221
95.3446
96.6209
97.6921
98.4634
98.8829
98.8965
98.4436
97.454
95.8626
93.625
90.7342
87.2439
83.287
79.0597
74.732
70.3371
65.7674
60.8681
55.5163
49.6491
43.283
36.5413
29.6202
22.7317
16.177
10.2968
5.41304
1.87078
-0.204117
-1.06133
-0.748529
0.15611
-72.2472
-69.4256
-67.4542
-65.6601
-64.1757
-62.8524
-61.6916
-60.5798
-59.8888
-59.794
-60.1108
-59.794
-60.7762
-64.2533
-69.252
-75.5207
-82.6398
-90.4154
-98.9131
-108.277
-118.699
-130.278
-142.984
-156.612
-170.813
-185.139
-199.057
-212.08
-224.07
-235.053
-245.25
-254.627
-262.753
-269.752
-273.796
-273.006
-267.069
-260.391
-251.839
-239.08
-222.175
-202.243
-180.658
-158.644
-137.07
-116.408
-96.8217
-78.3269
-60.9254
-44.6264
-29.4287
-15.2944
-2.10065
10.349
22.2289
33.6005
44.3875
54.3897
63.3463
71.0283
77.2805
82.0914
85.6248
88.0847
89.7097
91.0459
92.2265
93.5864
94.985
96.3128
97.4251
98.2337
98.688
98.7364
98.3224
97.3827
95.8585
93.7108
90.9345
87.578
83.756
79.6321
75.3459
70.93
66.3081
61.366
56.0108
50.1997
43.9649
37.432
30.7822
24.2302
18.073
12.5402
7.85592
4.33001
2.05175
0.916696
0.959034
0.920684
-72.142
-69.3985
-67.412
-65.6241
-64.1654
-62.8524
-61.7033
-60.6287
-59.9814
-59.9515
-60.4252
-60.1883
-61.1645
-64.6208
-69.5881
-75.8283
-82.9523
-90.7739
-99.3525
-108.811
-119.319
-130.958
-143.699
-157.342
-171.559
-185.915
-199.872
-212.927
-224.909
-235.824
-245.933
-255.225
-263.238
-270.343
-274.614
-273.727
-267.89
-260.856
-251.614
-238.438
-221.496
-201.77
-180.516
-158.876
-137.667
-117.326
-97.9989
-79.7009
-62.4359
-46.2087
-31.017
-16.8398
-3.58384
8.92161
20.8359
32.2163
42.9905
52.9722
61.9207
69.624
75.9409
80.8696
84.5492
87.1503
89.0167
90.4447
91.7373
93.1766
94.647
96.0276
97.1853
98.0364
98.5306
98.6186
98.2477
97.3605
95.9045
93.8452
91.1792
87.9498
84.2561
80.2354
76.0053
71.6001
66.9703
62.0341
56.7234
51.0116
44.94
38.6282
32.245
26.0133
20.1862
14.9173
10.38
6.83837
4.35181
2.88637
2.48539
1.65631
-72.0377
-69.3692
-67.3606
-65.589
-64.1545
-62.8489
-61.7136
-60.6763
-60.0696
-60.093
-60.714
-60.5566
-61.5312
-64.9657
-69.9049
-76.1209
-83.2544
-91.1271
-99.7916
-109.351
-119.949
-131.649
-144.419
-158.074
-172.299
-186.677
-200.67
-213.76
-225.737
-236.582
-246.597
-255.778
-263.649
-270.919
-275.386
-274.13
-268.578
-261.065
-251.22
-237.74
-220.808
-201.3
-180.376
-159.105
-138.255
-118.231
-99.1626
-81.064
-63.935
-47.7757
-32.5884
-18.3721
-5.05973
7.49785
19.4461
30.8371
41.6017
51.5663
60.5096
68.2367
74.6205
79.6667
83.4897
86.2501
88.3443
89.8593
91.2886
92.7951
94.3331
95.767
96.974
97.8719
98.4109
98.5431
98.2193
97.3872
96.0001
94.0275
91.4675
88.3589
84.7874
80.8694
76.7057
72.3338
67.727
62.8319
57.6033
52.0293
46.1568
40.0954
34.0012
28.0949
22.5587
17.4925
13.0531
9.44624
6.71155
4.84191
3.87909
2.35873
-71.9455
-69.3318
-67.3046
-65.5554
-64.1423
-62.8425
-61.7225
-60.7219
-60.1531
-60.2219
-60.981
-60.8987
-61.8745
-65.2863
-70.2004
-76.3964
-83.5434
-91.4714
-100.226
-109.89
-120.584
-132.35
-145.148
-158.806
-173.032
-187.424
-201.449
-214.575
-226.55
-237.323
-247.238
-256.275
-264.003
-271.485
-276.166
-274.359
-268.937
-261.016
-250.69
-237.002
-220.118
-200.837
-180.241
-159.333
-138.835
-119.124
-100.316
-82.4171
-65.4211
-49.3253
-34.1422
-19.8916
-6.52881
6.07756
18.0595
29.4628
40.2209
50.1721
59.1136
66.8674
73.3202
78.4825
82.4487
85.3803
87.6782
89.3096
90.8796
92.4431
94.0448
95.5326
96.7915
97.7402
98.3283
98.5091
98.2361
97.4616
96.1438
94.2561
91.7977
88.8039
85.3492
81.5332
77.4439
73.1223
68.561
63.7308
58.6073
53.1936
47.5401
41.7464
35.9567
30.367
25.0924
20.1814
15.7881
12.0661
9.04175
6.72764
5.20089
3.03
-71.8681
-69.2818
-67.2473
-65.523
-64.1281
-62.8334
-61.7302
-60.7654
-60.232
-60.3407
-61.228
-61.2148
-62.1936
-65.5818
-70.4734
-76.653
-83.8171
-91.8034
-100.652
-110.424
-121.218
-133.055
-145.885
-159.54
-173.757
-188.154
-202.204
-215.367
-227.343
-238.044
-247.849
-256.719
-264.32
-271.889
-276.714
-274.395
-268.92
-260.729
-250.061
-236.241
-219.433
-200.387
-180.114
-159.56
-139.408
-120.01
-101.463
-83.7619
-66.8938
-50.857
-35.6787
-21.3992
-7.99152
4.66069
16.6761
28.0933
38.8478
48.7894
57.733
65.5164
72.0398
77.3168
81.428
84.5357
87.0113
88.804
90.4987
92.1212
93.7829
95.3246
96.6377
97.6404
98.2815
98.5148
98.296
97.5814
96.3333
94.5286
92.1677
89.2829
85.9397
82.2247
78.2163
73.9587
69.4601
64.7118
59.7075
54.4636
49.0328
43.5064
38.0189
32.7173
27.6629
22.8654
18.4744
14.603
11.2671
8.50258
6.45996
3.66999
-71.8032
-69.2199
-67.1911
-65.4915
-64.1115
-62.8214
-61.7367
-60.8068
-60.3063
-60.4512
-61.4546
-61.5056
-62.4883
-65.852
-70.723
-76.8895
-84.0734
-92.1205
-101.065
-110.948
-121.846
-133.759
-146.624
-160.278
-174.477
-188.866
-202.932
-216.131
-228.11
-238.741
-248.43
-257.109
-264.58
-272.041
-276.938
-274.208
-268.625
-260.258
-249.362
-235.469
-218.761