/*--------------------------------*- C++ -*----------------------------------*\
| =========                 |                                                 |
| \\      /  F ield         | OpenFOAM: The Open Source CFD Toolbox           |
|  \\    /   O peration     | Version:  4.1                                   |
|   \\  /    A nd           | Web:      www.OpenFOAM.org                      |
|    \\/     M anipulation  |                                                 |
\*---------------------------------------------------------------------------*/
FoamFile
{
    version     2.0;
    format      ascii;
    class       surfaceScalarField;
    location    "1600";
    object      phi;
}
// * * * * * * * * * * * * * * * * * * * * * * * * * * * * * * * * * * * * * //

dimensions      [0 3 -1 0 0 0 0];

internalField   nonuniform List<scalar> 
52920
(
1734.83
21.2259
1717.79
17.0438
1696.88
20.9143
1668.72
28.1596
1631.92
36.8006
1583.62
48.3141
1521.54
62.0805
1446.55
74.9903
1362.96
83.6011
1284.67
78.2924
1234.91
49.7681
1230.89
4.02534
1300.53
-69.6287
1434.79
-134.254
1593.8
-159.008
1768.87
-175.066
1959.97
-191.092
2169.55
-209.575
2400.2
-230.644
2653.78
-253.582
2931.17
-277.382
3231.87
-300.697
3553.84
-321.971
3893.67
-339.834
4247.23
-353.55
4610.35
-363.122
4979.32
-368.971
5350.84
-371.514
5721.55
-370.705
6087.5
-365.957
6444.09
-356.579
6786.48
-342.392
7110.69
-324.209
7415.53
-304.842
7705.13
-289.594
7988.79
-283.661
8273.37
-284.578
8544.87
-271.498
8751.24
-206.367
8812.57
-61.3324
8662.14
150.43
8312.91
349.23
7845.23
467.68
7333.38
511.849
6821.14
512.243
6327.78
493.358
5858.62
469.162
5412.28
446.341
4984.58
427.707
4570.29
414.287
4163.92
406.375
3760
403.914
3353.55
406.456
2940.93
412.616
2521.37
419.56
2099.58
421.8
1685.48
414.098
1295.73
389.748
909.841
385.891
403.414
506.426
-146.988
550.404
-203.057
56.0706
-52.6871
-150.364
44.6074
-97.2929
287.104
-242.494
557.571
-270.467
789.873
-232.3
1010.77
-220.9
1213.88
-203.101
1380.38
-166.502
1515.92
-135.539
1640.9
-124.978
1778
-137.1
1945.56
-167.564
2155.78
-210.213
2414.18
-258.405
2720.13
-305.949
3067.68
-347.545
3447.53
-379.854
3849.82
-402.288
4267.12
-417.302
4697.35
-430.227
5145.59
-448.242
5624.14
-478.544
6151.17
-527.035
6749.39
-598.223
7444.31
-694.919
8259.23
-814.915
9202.99
-943.766
10257.2
-1054.2
11370.5
-1113.29
12462.3
-1091.82
13438.9
-976.586
14202.2
-763.31
14671.8
-469.632
14821.7
-149.904
14692.5
129.224
14409.3
283.245
14078.8
330.511
285.735
1730.79
43.9636
1712.93
34.9057
1691.25
42.5957
1662.41
57.006
1625.09
74.1239
1576.38
97.0352
1513.76
124.705
1437.65
151.102
1352.54
168.711
1274.22
156.619
1229.33
94.6744
1233.58
-0.221525
1303.17
-139.207
1418.3
-249.382
1542.63
-283.33
1680.42
-312.848
1842.57
-353.244
2035.06
-402.058
2258.21
-453.784
2509.89
-505.262
2787.74
-555.227
3089.36
-602.313
3411.83
-644.441
3751.46
-679.464
4104.1
-706.193
4465.7
-724.714
4832.59
-735.858
5201.47
-740.397
5568.93
-738.162
5930.88
-727.906
6282.51
-708.202
6618.84
-678.719
6935.63
-641.005
7230.87
-600.076
7506.83
-565.553
7771.72
-548.551
8037.32
-550.18
8304.39
-538.566
8534.91
-436.88
8641.32
-167.741
8530.41
261.341
8198.37
681.269
7729.04
937.004
7206.02
1034.87
6680.18
1038.09
6174.42
999.119
5695.45
948.13
5242.22
899.568
4810.46
859.475
4394.7
830.041
3989.18
811.9
3588.12
804.97
3186.13
808.454
2778.93
819.81
2364.64
833.85
1946.03
840.415
1529.25
830.881
1122.21
796.784
693.79
814.311
215.84
984.376
-191.375
957.62
-561.42
426.116
-510.157
-201.62
-265.692
-341.755
-72.2339
-435.949
195.586
-538.287
505.213
-541.925
782.665
-498.351
1012.25
-432.685
1195.39
-349.637
1345.24
-285.393
1486.07
-265.803
1643.62
-294.647
1837.58
-361.528
2078.81
-451.442
2369.62
-549.214
2706.15
-642.475
3080.45
-721.847
3482.6
-782
3902.92
-822.607
4334.55
-848.937
4776.06
-871.731
5233.08
-905.269
5718.17
-963.627
6249.13
-1058
6847.37
-1196.46
7535.72
-1383.27
8333.56
-1612.76
9245.55
-1855.76
10250.1
-2058.73
11294.9
-2158.16
12301.9
-2098.75
13183.7
-1858.39
13852.3
-1431.97
14236.7
-854
14316.7
-229.924
14134.2
311.769
13819.6
597.818
13488.6
661.528
562.959
1715.73
70.0495
1694.4
56.2375
1669.11
67.8855
1636.84
89.2802
1596.48
114.489
1544.88
148.635
1478.88
190.711
1399.23
230.756
1313.28
254.667
1239.49
230.413
1197.39
136.782
1178.8
18.3788
1189.35
-149.751
1232.99
-293.009
1303.62
-353.96
1420.95
-430.167
1586.34
-518.635
1787.57
-603.283
2013.17
-679.385
2257.85
-749.93
2520.73
-818.111
2802.32
-883.9
3102.36
-944.476
3419.12
-996.22
3749.68
-1036.75
4090.58
-1065.61
4438.25
-1083.53
4789.11
-1091.26
5139.19
-1088.24
5483.71
-1072.43
5817.18
-1041.67
6134.12
-995.653
6430
-936.887
6702.58
-872.662
6953.54
-816.503
7189.79
-784.803
7423.48
-783.873
7665.33
-780.409
7903.39
-674.947
8073.32
-337.666
8060.88
273.783
7816.95
925.197
7406.76
1347.2
6917.1
1524.53
6407.81
1547.39
5909.19
1497.74
5432.79
1424.53
4980.52
1351.84
4549.83
1290.17
4136.27
1243.6
3734.57
1213.6
3339.12
1200.42
2944.34
1203.24
2545.41
1218.74
2139.35
1239.91
1727.13
1252.63
1313.49
1244.53
911.008
1199.26
479.017
1246.3
16.9503
1446.44
-285.076
1259.65
-531.818
672.858
-587.545
-145.888
-442.567
-486.733
-263.759
-614.755
-1.58323
-800.462
306.866
-850.372
604.198
-795.684
852.4
-680.885
1046.55
-543.784
1205.84
-444.679
1357.73
-417.696
1528.56
-465.474
1736.98
-569.95
1991.21
-705.671
2291.19
-849.199
2632.58
-983.864
3008.38
-1097.64
3409.76
-1183.38
3827.34
-1240.18
4253.42
-1275.02
4684.85
-1303.16
5124.98
-1345.39
5583.34
-1421.99
6073.85
-1548.51
6613.63
-1736.23
7224.4
-1994.03
7933
-2321.36
8760.14
-2682.9
9700.33
-2998.91
10708.6
-3166.45
11701.6
-3091.73
12579.9
-2736.65
13240
-2092.12
13591
-1205.01
13599.1
-237.965
13311.1
599.724
12893.3
1015.63
12494.8
1060.02
867.884
1692.11
99.6888
1666.94
81.4064
1637.52
97.3136
1601.21
125.595
1556.65
159.054
1500.04
205.249
1428.64
262.116
1346.06
313.343
1262.21
338.521
1191.1
301.53
1137.2
190.689
1076.91
78.6792
1034.79
-107.621
1055.83
-314.048
1145.37
-443.486
1299.62
-584.412
1490.93
-709.942
1698.45
-810.802
1915.21
-896.135
2142.25
-976.969
2383.31
-1059.17
2641.74
-1142.34
2919.02
-1221.75
3214.22
-1291.42
3524.47
-1346.99
3845.78
-1386.92
4173.75
-1411.5
4503.88
-1421.38
4831.35
-1415.71
5150.73
-1391.81
5456.11
-1347.05
5741.97
-1281.51
6004.19
-1199.1
6241.26
-1109.73
6455.48
-1030.73
6653.58
-982.893
6846.76
-977.059
7048.68
-982.326
7262.25
-888.512
7447.24
-522.657
7492.35
228.676
7320.24
1097.31
6972.31
1695.12
6528.69
1968.15
6050.93
2025.15
5573.15
1975.52
5110.55
1887.13
4667.93
1794.45
4244.95
1713.16
3838.65
1649.9
3444.75
1607.5
3058.13
1587.04
2673.26
1588.11
2284.89
1607.11
1889.19
1635.61
1485.44
1656.38
1078.99
1650.98
692.583
1585.67
278.578
1660.31
-150.841
1875.86
-369.389
1478.2
-436.077
739.547
-511.395
-70.5676
-482.73
-515.396
-350.538
-746.946
-134.441
-1016.56
155.514
-1140.33
454.907
-1095.08
708.092
-934.068
902.541
-738.232
1060.08
-602.221
1209.1
-566.71
1373.35
-629.722
1568.96
-765.563
1803.06
-939.766
2077.83
-1123.97
2392.84
-1298.87
2743.28
-1448.08
3119.43
-1559.54
3508.57
-1629.32
3898.52
-1664.97
4281.56
-1686.2
4656.84
-1720.67
5029.85
-1795
5410.26
-1928.92
5813.4
-2139.38
6269.15
-2449.78
6827.4
-2879.61
7538.44
-3393.94
8419.24
-3879.71
9435.54
-4182.75
10501.1
-4157.3
11502.5
-3738.02
12310
-2899.62
12782.8
-1677.82
12832.6
-287.785
12483
949.291
11955.2
1543.47
11451.7
1563.56
1230.01
1660.8
132.732
1631.93
110.279
1598.58
130.671
1558.39
165.787
1509.32
208.133
1447.33
267.241
1371.57
337.874
1288.25
396.675
1205.77
421.003
1130.63
376.678
1060.98
260.348
979.568
160.095
931.32
-59.3629
970.51
-353.23
1090.81
-563.785
1264.22
-757.819
1458.56
-904.274
1660.64
-1012.88
1868.85
-1104.34
2086.15
-1194.27
2316.99
-1290
2565.25
-1390.6
2832.69
-1489.19
3118.14
-1576.86
3417.92
-1646.77
3726.92
-1695.91
4039.67
-1724.25
4350.9
-1732.61
4655.38
-1720.19
4947.52
-1683.94
5221.47
-1621
5471.97
-1532.01
5695.36
-1422.49
5890.9
-1305.27
6061.8
-1201.62
6215
-1136.09
6360.96
-1123.02
6513.99
-1135.36
6685.54
-1060.05
6854.57
-691.687
6921.3
161.949
6793.53
1225.08
6493.16
1995.49
6091.66
2369.65
5648.12
2468.68
5196.87
2426.77
4754.51
2329.49
4327.67
2221.3
3917.74
2123.1
3523.21
2044.42
3140.84
1989.87
2766.08
1961.8
2393.51
1960.68
2017.54
1983.09
1633.51
2019.64
1238.74
2051.15
840.929
2048.8
464.129
1962.47
63.5616
2060.88
-317.637
2257.06
-495.991
1656.55
-536.604
780.161
-589.646
-17.5245
-565.827
-539.214
-442.974
-869.798
-249.685
-1209.85
16.5371
-1406.55
309.227
-1387.77
558.294
-1183.13
736.967
-916.906
870.618
-735.872
986.168
-682.26
1106.81
-750.358
1255.87
-914.624
1449.82
-1133.72
1696.59
-1370.74
1994.29
-1596.57
2330.82
-1784.6
2687.54
-1916.27
3044.2
-1985.97
3383.23
-2004
3693.28
-1996.25
3971.32
-1998.72
4222.19
-2045.87
4457.82
-2164.55
4702.73
-2384.3
5003.87
-2750.92
5425.4
-3301.14
6018.61
-3987.15
6800.65
-4661.75
7756.95
-5139.05
8833.51
-5233.86
9940.35
-4844.85
10942.7
-3901.95
11641.8
-2376.93
11864.1
-510.13
11555.9
1257.51
10979
2120.36
10397.1
2145.53
1643.83
1609.41
170.362
1577.28
142.411
1541.05
166.907
1498.35
208.494
1446.68
259.812
1382.53
331.392
1306.6
413.807
1224.91
478.371
1141.72
504.2
1058.23
460.178
974.396
344.185
887.495
247.005
853.041
-24.8944
912.115
-412.296
1049.97
-701.635
1230.71
-938.555
1426.86
-1100.42
1628.85
-1214.86
1835.54
-1311.03
2049.94
-1408.66
2276.86
-1516.92
2520.67
-1634.41
2783.22
-1751.74
3062.85
-1856.49
3354.96
-1938.88
3653.53
-1994.48
3952.46
-2023.18
4246.29
-2026.45
4529.91
-2003.8
4797.92
-1951.95
5044.6
-1867.68
5264.69
-1752.1
5454.45
-1612.25
5613.23
-1464.05
5744.54
-1332.93
5855.4
-1246.95
5955.83
-1223.46
6060.29
-1239.81
6184.83
-1184.6
6321.19
-828.041
6383.25
99.8871
6274.9
1333.43
6004.96
2265.43
5636.82
2737.8
5224.94
2880.56
4801.37
2850.35
4382.23
2748.63
3974.83
2628.7
3581.65
2516.27
3202.34
2423.74
2834.5
2357.71
2474.1
2322.2
2115.8
2318.98
1753.58
2345.3
1381.92
2391.31
995.992
2437.08
605.713
2439.08
221.214
2346.96
-179.088
2461.18
-491.373
2569.34
-627.858
1793.04
-662.883
815.185
-695.114
14.7075
-665.762
-568.565
-547.812
-987.747
-365.475
-1392.18
-120.685
-1651.34
154.465
-1662.91
382.788
-1411.46
519.144
-1053.26
590.581
-807.307
631.745
-723.423
691.467
-810.079
816.457
-1039.61
1020.06
-1337.31
1291.85
-1642.54
1610.97
-1915.7
1953.18
-2126.81
2295.36
-2258.45
2617.46
-2308.06
2903.35
-2289.89
3142.86
-2235.76
3334.76
-2190.61
3488.96
-2200.07
3629.25
-2304.83
3797.26
-2552.31
4044.73
-2998.39
4407.97
-3664.38
4893.15
-4472.33
5499.85
-5268.45
6248.83
-5888.04
7157.89
-6142.92
8206.7
-5893.66
9294.99
-4990.24
10190.9
-3272.85
10641
-960.224
10460.4
1438.07
9905.12
2675.68
9296.52
2754.13
2083.66
1561.3
212.517
1524.13
179.584
1482.42
208.62
1434.12
256.799
1377.42
316.515
1310.57
398.251
1235.18
489.197
1154.77
558.785
1068.67
590.307
976.004
552.847
881.936
438.261
795.917
333.031
777.813
-6.77657
852.995
-487.471
1005.03
-853.669
1194.02
-1127.54
1394.36
-1300.76
1597.22
-1417.72
1801.96
-1515.77
2012.42
-1619.11
2234.27
-1738.77
2472.45
-1872.58
2728.85
-2008.14
3001.33
-2128.97
3284.59
-2222.13
3572.02
-2281.91
3857.36
-2308.52
4135.33
-2304.42
4401.17
-2269.64
4649.75
-2200.52
4875.3
-2093.24
5072.3
-1949.09
5236.46
-1776.41
5366.57
-1594.17
5465.93
-1432.29
5541.44
-1322.46
5603
-1285.01
5665.3
-1302.11
5746.55
-1265.85
5845.22
-926.703
5886.51
58.5903
5778.52
1441.42
5524.41
2519.54
5181.1
3081.11
4797.11
3264.55
4400.51
3246.95
4005.71
3143.44
3619.78
3014.63
3245.76
2890.29
2884.06
2785.44
2532.96
2708.82
2188.79
2666.37
1846.16
2661.61
1498.62
2692.84
1139.52
2750.41
761.959
2814.64
370.064
2830.97
-32.399
2749.43
-417.066
2845.85
-653.636
2805.91
-752.814
1892.22
-790.687
853.059
-810.446
34.4676
-775.293
-603.718
-663.439
-1099.6
-487.377
-1568.25
-260.132
-1878.58
-18.5704
-1904.48
162.364
-1592.39
220.917
-1111.81
193.496
-779.884
173.676
-703.603
254.808
-891.209
449.941
-1234.75
716.447
-1603.82
1022.46
-1948.55
1345.87
-2239.11
1669.78
-2450.72
1980.77
-2569.45
2266.25
-2593.54
2513.3
-2536.94
2711.74
-2434.21
2860.97
-2339.84
2976.45
-2315.55
3094.52
-2422.9
3266.97
-2724.75
3530.56
-3261.99
3876.87
-4010.68
4267.77
-4863.23
4686.46
-5687.14
5173.4
-6374.98
5804.96
-6774.48
6639.44
-6728.14
7644.41
-5995.2
8597.96
-4226.41
9219.51
-1581.77
9190.28
1467.29
8704.33
3161.63
8120.3
3338.16
2517.04
1511.46
257.688
1470.6
220.447
1424.18
255.048
1370.22
310.761
1307.84
378.904
1237.4
468.688
1161.24
565.365
1079.9
640.135
988.913
681.294
888.041
653.726
788.706
537.604
706.418
415.328
701.898
-2.24049
791.851
-577.417
960.53
-1022.34
1159.01
-1326.01
1361.97
-1503.71
1562.48
-1618.22
1761.79
-1715.09
1965.21
-1822.53
2179.45
-1953.01
2410.04
-2103.17
2658.87
-2256.97
2923.25
-2393.34
3197.12
-2496
3473.44
-2558.23
3745.94
-2581.01
4009.73
-2568.21
4260.51
-2520.42
4493.41
-2433.42
4702.59
-2302.41
4882.05
-2128.55
5026.78
-1921.14
5134.74
-1702.12
5208.73
-1506.28
5255.43
-1369.16
5284.84
-1314.41
5312.21
-1329.47
5356.56
-1310.2
5418.13
-988.271
5429.2
47.5158
5307.96
1562.67
5058.71
2768.78
4733.59
3406.24
4374.18
3623.95
4003.45
3617.68
3633.22
3513.67
3269.8
3378.05
2916.38
3243.7
2573.85
3127.98
2240.93
3041.74
1914.19
2993.1
1588.1
2987.7
1255.67
3025.28
909.186
3096.89
540.945
3182.88
146.146
3225.77
-276.809
3172.38
-630.951
3199.99
-794.868
2969.83
-870.301
1967.65
-915.629
898.387
-930.052
48.892
-892.649
-641.12
-787.812
-1204.44
-621.136
-1734.92
-412.635
-2087.08
-213.901
-2103.21
-109.242
-1697.05
-166.831
-1054.22
-266.128
-680.585
-212.754
-756.975
-2.46235
-1101.5
259.745
-1496.95
534.544
-1878.62
818.175
-2232.18
1105.25
-2526.18
1392.18
-2737.64
1674.34
-2851.6
1941.18
-2860.39
2175.84
-2771.6
2362.19
-2620.55
2496.37
-2474.02
2596.73
-2415.91
2708.94
-2535.11
2890.35
-2906.16
3164.27
-3535.91
3496.07
-4342.48
3828.21
-5195.38
4130.22
-5989.14
4428.7
-6673.47
4806.88
-7152.67
5367.58
-7288.84
6162.12
-6789.74
7025.63
-5089.92
7698.39
-2254.53
7779.25
1386.43
7377.05
3563.83
6855.94
3859.27
2913.73
1458.65
305.746
1414.5
264.604
1364.07
305.481
1305.6
369.232
1238.84
445.671
1165.47
542.058
1087.56
643.286
1002.95
724.746
905.603
778.644
798.313
761.02
697.82
638.104
617.919
495.236
625.749
-10.0556
735.343
-687.005
922.804
-1209.8
1127.12
-1530.33
1327.43
-1704.01
1521.13
-1811.92
1711.84
-1905.8
1906.19
-2016.88
2111.78
-2158.59
2334.55
-2325.93
2576.07
-2498.49
2832.72
-2649.99
3097.51
-2760.8
3363.01
-2823.72
3623.2
-2841.2
3873.83
-2818.84
4111.24
-2757.83
4330.89
-2653.07
4526.81
-2498.33
4692.49
-2294.23
4822.06
-2050.7
4912.51
-1792.58
4966.04
-1559.81
4989.11
-1392.23
4992
-1317.3
4990.89
-1328.37
5004.91
-1324.22
5031.88
-1015.24
5006.74
72.6576
4862.53
1706.88
4610.59
3020.73
4299.21
3717.62
3962.08
3961.08
3616.21
3963.56
3270.41
3859.47
2929.94
3718.52
2597.86
3575.78
2275.32
3450.52
1961.36
3355.7
1652.65
3301.81
1343.39
3296.97
1026.04
3342.63
692.081
3430.85
332.401
3542.56
-62.6062
3620.78
-485.108
3594.88
-796.282
3511.17
-914.544
3088.09
-984.156
2037.26
-1038.17
952.399
-1052.89
63.62
-1017.02
-676.996
-920.894
-1300.56
-767.098
-1888.72
-577.971
-2276.21
-415.931
-2265.25
-372.334
-1740.64
-461.144
-965.414
-486.652
-655.075
-355.932
-887.695
-140.72
-1316.71
97.0456
-1734.72
334.514
-2116.08
575.577
-2473.24
826.591
-2777.2
1091.19
-3002.24
1365.06
-3125.47
1631.65
-3126.98
1865.2
-3005.15
2042.23
-2797.58
2156.53
-2588.32
2231.21
-2490.6
2323.11
-2627.01
2494.63
-3077.67
2757.04
-3798.32
3062.24
-4647.68
3352.87
-5486
3597.26
-6233.53
3798.33
-6874.54
4005.65
-7359.99
4304.64
-7587.83
4805.24
-7290.33
5474.01
-5758.69
6106.55
-2887.07
6252.12
1240.87
5933.8
3882.15
5503.32
4289.75
3249.09
1403.94
356.176
1356.91
311.635
1302.9
359.495
1240.78
431.361
1170.96
515.496
1095.53
617.494
1015.06
723.761
925.173
814.633
820.675
883.149
709.381
872.32
609.766
737.726
528.263
576.75
553.043
-34.817
689.304
-823.26
890.27
-1410.76
1092.36
-1732.41
1284.6
-1896.25
1468.71
-1996.03
1649.76
-2086.85
1835.12
-2202.23
2032.97
-2356.43
2249.25
-2542.21
2484.65
-2733.9
2734.19
-2899.52
2989.92
-3016.53
3244.34
-3078.14
3492.1
-3088.95
3729.91
-3056.65
3954.93
-2982.85
4162.96
-2861.1
4347.86
-2683.23
4502.55
-2448.91
4620.18
-2168.33
4696.68
-1869.07
4733.6
-1596.74
4737.18
-1395.81
4718.25
-1298.36
4694.16
-1304.28
4683.74
-1313.79
4678.87
-1010.37
4613.52
138.009
4439.85
1880.55
4180.76
3279.82
3880.77
4017.6
3564.59
4277.27
3242.79
4285.36
2921.09
4181.17
2603.56
4036.06
2293
3886.33
1990.69
3752.83
1695.87
3650.53
1405.21
3592.47
1112.58
3589.59
809.964
3645.24
488.671
3752.14
138.124
3893.11
-253.407
4012.31
-654.195
3995.67
-919.628
3776.6
-1019.8
3188.26
-1096.47
2113.93
-1159.59
1015.53
-1179.17
83.1938
-1148.12
-708.046
-1062.94
-1385.74
-925.522
-2026.14
-760.658
-2441.07
-631.462
-2394.45
-608.683
-1763.42
-655.555
-918.542
-618.852
-691.777
-474.353
-1032.19
-294.577
-1496.48
-105.416
-1923.88
93.7675
-2315.27
305.442
-2684.92
537.922
-3009.68
795.31
-3259.63
1068.24
-3398.4
1333.19
-3391.92
1557.61
-3229.58
1713.79
-2953.76
1796.97
-2671.49
1839.96
-2533.6
1911.73
-2698.78
2070.04
-3235.98
2305.19
-4033.47
2561.36
-4903.84
2795.44
-5720.09
2988.77
-6426.86
3131.91
-7017.68
3239.12
-7467.19
3331.89
-7680.61
3479.9
-7438.35
3840.16
-6118.94
4371.82
-3418.73
4592.13
1020.55
4379.35
4094.93
4068.02
4601.08
3503.91
1332.12
408.298
1285.5
358.262
1232.17
412.826
1170.9
492.633
1101.93
584.478
1026.52
692.907
943.108
807.173
846.482
911.263
735.065
994.57
622.619
984.771
523.321
837.03
437.402
662.675
487.087
-84.4874
651.657
-987.826
854.756
-1613.86
1047.61
-1925.27
1229.38
-2078.01
1403.72
-2170.37
1576.01
-2259.13
1753.98
-2380.2
1946.07
-2548.52
2157.65
-2753.79
2387.91
-2964.15
2630.28
-3141.9
2876.23
-3262.47
3118.71
-3320.63
3353.49
-3323.73
3578.51
-3281.67
3791.8
-3196.14
3989.52
-3058.81
4165.25
-2858.96
4311.22
-2594.88
4419.52
-2276.64
4484.94
-1934.49
4508.36
-1620.16
4495.85
-1383.3
4459.02
-1261.53
4416.71
-1261.97
4387.12
-1284.21
4352.5
-975.749
4243.85
246.659
4036.99
2087.42
3769.14
3547.67
3479.93
4306.81
3184.11
4573.09
2885.78
4583.69
2587.66
4479.29
2292.68
4331.04
2003.35
4175.66
1720.97
4035.21
1444.92
3926.58
1171.84
3865.56
895.278
3866.15
606.879
3933.64
297.926
4061.1
-40.225
4231.26
-416.721
4388.81
-783.065
4362.02
-1014.55
4008.09
-1117.42
3291.14
-1207.59
2204.1
-1280.79
1088.72
-1308.84
111.247
-1285.74
-731.146
-1214.06
-1457.42
-1096.36
-2143.83
-958.84
-2578.59
-860.476
-2492.81
-846.041
-1777.86
-850.036
-914.547
-772.602
-769.21
-629.672
-1175.12
-474.319
-1651.84
-318.517
-2079.68
-151.917
-2481.87
37.473
-2874.31
257.435
-3229.64
506.431
-3508.63
771.234
-3663.21
1024.98
-3645.67
1231.09
-3435.68
1359.44
-3082.12
1410.16
-2722.2
1430.38
-2553.82
1496.36
-2764.76
1645.54
-3385.17
1842.58
-4230.51
2032.83
-5094.09
2192.25
-5879.51
2315.71
-6550.32
2391.95
-7093.92
2425.78
-7501.02
2390.01
-7644.84
2220.13
-7268.46
2127.99
-6026.8
2423.75
-3714.48
2777.14
667.16
2724.42
4147.66
2562.89
4762.62
3667.03
1267.41
467.616
1214.49
411.191
1157.77
469.543
1096.78
553.632
1030.39
650.868
956.546
766.759
870.048
893.676
766.203
1015.11
649.529
1111.25
538.619
1095.69
436.878
938.778
349.08
750.484
429.418
-164.809
614.585
-1172.99
809.284
-1808.55
990.228
-2106.21
1161.97
-2249.75
1327.86
-2336.26
1493.11
-2424.39
1665.76
-2552.85
1854.08
-2736.84
2062.22
-2961.92
2287.42
-3189.35
2521.77
-3376.25
2756.68
-3497.38
2986.18
-3550.12
3207.44
-3544.99
3419.75
-3493.97
3622.01
-3398.4
3810.61
-3247.42
3978.79
-3027.14
4117.99
-2734.07
4219.15
-2377.8
4275.82
-1991.16
4288.24
-1632.57
4262.42
-1357.48
4210.95
-1210.05
4154.61
-1205.63
4110.79
-1240.38
4047.36
-912.319
3892.65
401.366
3651.19
2328.88
3375.43
3823.44
3097.7
4584.54
2822.12
4848.67
2546.64
4859.17
2271.37
4754.56
1998.23
4604.18
1729.4
4444.49
1466.19
4298.42
1208.1
4184.67
951.749
4121.91
690.509
4127.4
415.769
4208.38
117.639
4359.23
-208.779
4557.68
-561.492
4741.52
-886.455
4686.98
-1094.76
4216.39
-1210.98
3407.36
-1317.35
2310.47
-1402.01
1173.39
-1441.55
150.784
-1429.42
-743.268
-1373.88
-1512.96
-1278.87
-2238.85
-1169.83
-2687.63
-1096.41
-2566.23
-1078.29
-1795.98
-1043.09
-949.74
-940.53
-871.773
-805.233
-1310.42
-670.776
-1786.29
-537.539
-2212.92
-393.174
-2626.23
-225.316
-3042.17
-23.7969
-3431.16
209.779
-3742.2
459.757
-3913.18
697.01
-3882.92
881.675
-3620.35
982.149
-3182.59
1006.64
-2746.69
1018.7
-2565.88
1091.01
-2837.07
1229.46
-3523.62
1380.93
-4381.98
1501.75
-5214.91
1582.65
-5960.41
1622.18
-6589.84
1608.54
-7080.29
1553.9
-7446.38
1430.5
-7521.44
1107.71
-6945.67
649.427
-5568.52
554.479
-3619.54
855.788
365.852
1009.06
3994.38
1014.46
4757.22
3744.5
1206.31
530.442
1147.71
469.787
1085.74
531.515
1022.74
616.634
957.673
715.942
884.623
839.813
794.34
983.962
683.931
1125.53
565.13
1230.05
457.346
1203.48
349.646
1046.48
267.935
832.201
379.374
-276.237
571.082
-1364.69
752.173
-1989.64
921.891
-2275.92
1085.02
-2412.88
1243.86
-2495.09
1403.67
-2584.2
1572.7
-2721.88
1758.6
-2922.73
1963.68
-3167
2183.17
-3408.84
2408.25
-3601.33
2630.95
-3720.09
2846.75
-3765.91
3054.34
-3752.59
3254.31
-3693.93
3446.36
-3590.45
3627.05
-3428.1
3789.15
-3189.23
3923.24
-2868.17
4019.07
-2473.63
4068.84
-2040.93
4072.16
-1635.88
4035.18
-1320.5
3971.7
-1146.57
3905.03
-1138.95
3850.09
-1185.43
3757.08
-819.31
3555.08
603.373
3280.32
2603.63
2999.44
4104.33
2734.7
4849.27
2479.37
5104.01
2226
5112.54
1972.6
5007.97
1720.23
4856.55
1470.8
4693.93
1225.6
4543.62
984.282
4425.99
743.638
4362.55
496.729
4374.31
234.815
4470.29
-48.9298
4642.98
-359.539
4868.29
-687.699
5069.68
-974.561
4973.84
-1167.37
4409.2
-1301.71
3541.7
-1425.77
2434.52
-1523.26
1270.88
-1576.87
204.395
-1578.36
-741.777
-1541.44
-1549.88
-1471.44
-2308.84
-1390.61
-2768.46
-1335.41
-2621.42
-1305.13
-1826.26
-1236.46
-1018.41
-1119.99
-988.245
-995.7
-1434.71
-881.227
-1900.77
-768.916
-2325.23
-643.344
-2751.8
-492.564
-3192.95
-310.432
-3613.29
-97.7014
-3954.93
133.116
-4144
351.921
-4101.73
516.242
-3784.67
594.508
-3260.86
604.732
-2756.92
621.878
-2583.02
701.136
-2916.33
818.011
-3640.49
917.944
-4481.92
973.021
-5269.99
980.875
-5968.26
935.696
-6544.66
825.001
-6969.59
659.157
-7280.54
420.438
-7282.72
53.9552
-6579.19
-398.115
-5116.45
-775.319
-3242.33
-871.008
461.541
-688.572
3811.94
-541.207
4609.85
3817.34
1145.54
595.534
1083.18
532.147
1017.02
597.68
951.417
682.243
885.639
781.726
810.806
914.65
715.405
1079.37
600.179
1240.76
483.244
1346.99
378.127
1308.6
261.68
1162.94
194.974
898.918
333.459
-414.709
519.005
-1550.23
685.969
-2156.6
845.934
-2435.89
1001.33
-2568.27
1153.89
-2647.65
1309.3
-2739.6
1475.83
-2888.4
1659.94
-3106.85
1861.75
-3368.8
2074.61
-3621.7
2289.44
-3816.15
2499.35
-3930
2701.39
-3967.94
2895.68
-3946.88
3083.97
-3882.22
3266.73
-3773.22
3440.63
-3602
3597.95
-3346.55
3728.35
-2998.57
3820.27
-2565.55
3864.49
-2085.15
3860.01
-1631.4
3813.32
-1273.82
3739.87
-1073.12
3666.08
-1065.17
3600.81
-1120.16
3475.77
-694.269
3226.93
852.216
2922.87
2907.7
2641.11
4386.09
2391.18
5099.2
2155.95
5339.24
1923.73
5344.76
1690.95
5240.74
1458.02
5089.48
1226.55
4925.4
997.867
4772.3
771.946
4651.91
545.761
4588.74
312.478
4607.59
62.6689
4720.1
-207.721
4913.37
-502.972
5163.54
-803.131
5369.84
-1050.99
5221.7
-1234.35
4592.55
-1390.82
3698.18
-1532.95
2576.65
-1644.22
1382.15
-1714.01
274.177
-1731.3
-724.482
-1715.04
-1566.14
-1671.7
-2352.18
-1618
-2822.16
-1575.47
-2663.95
-1529.21
-1872.53
-1433.95
-1113.67
-1311.43
-1110.76
-1199.61
-1546.53
-1103.45
-1996.92
-1010
-2418.67
-902.737
-2859.07
-770.129
-3325.55
-606.645
-3776.77
-414.207
-4147.37
-204.539
-4353.67
-4.7679
-4301.5
143.94
-3933.38
212.002
-3328.92
223.945
-2768.86
252.497
-2611.58
327.281
-2991.11
408.545
-3721.75
453.955
-4527.32
448.851
-5264.88
390.981
-5910.39
269.391
-6423.07
74.1449
-6774.35
-205.8
-7000.6
-592.112
-6896.41
-1026.83
-6144.47
-1404.69
-4738.59
-2004.6
-2642.42
-2301.84
758.781
-2062.96
3573.06
-1823.68
4370.57
3865.49
1085.5
661.731
1020.76
596.896
951.761
666.678
883.805
750.201
815.343
850.192
735.455
994.541
633.729
1181.1
516.54
1357.95
405.235
1458.3
299.78
1414.06
171.548
1291.17
127.855
942.618
288.843
-575.69
460.392
-1721.78
614.359
-2310.56
765.19
-2586.72
912.824
-2715.9
1059.26
-2794.08
1210.79
-2891.13
1375.45
-3053.06
1557.98
-3289.38
1756.08
-3566.9
1961.7
-3827.32
2165.98
-4020.44
2363.37
-4127.39
2552.3
-4156.86
2734.06
-4128.64
2911.48
-4059.64
3085.8
-3947.53
3253.85
-3770.05
3407.43
-3500.12
3535.26
-3126.39
3624.39
-2654.68
3663.98
-2124.74
3652.47
-1619.89
3596.75
-1218.09
3514.81
-991.179
3436.44
-986.788
3360.08
-1043.81
3199.5
-533.686
2905.34
1146.38
2578
3235.04
2300.47
4663.63
2067
5332.67
1851.44
5554.8
1639.12
5557.08
1425.49
5454.38
1210.38
5304.58
995.184
5140.6
781.337
4986.15
569.248
4864
356.374
4801.61
136.148
4827.82
-98.8728
4955.12
-356.485
5170.98
-638.973
5446.02
-904.686
5635.56
-1113.28
5430.3
-1298.54
4777.8
-1480.61
3880.25
-1638.59
2734.63
-1764.01
1507.58
-1851.26
361.425
-1886.44
-689.293
-1892.3
-1560.29
-1876.53
-2367.94
-1848.8
-2849.89
-1815.6
-2697.16
-1753.64
-1934.48
-1638.85
-1228.46
-1515.14
-1234.47
-1415.43
-1646.24
-1335.06
-2077.29
-1258.05
-2495.68
-1168.43
-2948.69
-1055.73
-3438.25
-914.229
-3918.27
-743.572
-4318.03
-553.059
-4544.18
-367.663
-4486.9
-224.803
-4076.24
-150.948
-3402.77
-123.351
-2796.45
-87.169
-2647.76
-32.4892
-3045.79
4.79526
-3759.04
-2.78018
-4519.75
-63.0673
-5204.6
-181.628
-5791.83
-369.955
-6234.74
-636.387
-6507.92
-1011.17
-6625.82
-1511.91
-6395.66
-2065.6
-5590.78
-2609.22
-4194.97
-3179.25
-2072.39
-3370.11
949.638
-3120.36
3323.31
-2881.31
4131.51
3882.13
1014.2
723.932
953.824
657.276
887.298
733.208
819.312
818.192
746.771
922.74
658.848
1082.47
550.664
1289.29
435.275
1473.34
331.93
1561.65
219.781
1526.21
66.9582
1444
57.4682
952.12
244.937
-763.148
398.222
-1875.06
540.13
-2452.47
681.443
-2728.02
820.674
-2855.13
960.774
-2934.18
1108.68
-3039.03
1271.78
-3216.16
1452.69
-3470.29
1646.82
-3761.02
1845.17
-4025.67
2039.52
-4214.79
2225.48
-4313.34
2402.48
-4333.86
2572.68
-4298.85
2739.91
-4226.87
2906.3
-4113.92
3069.08
-3932.83
3219.67
-3650.71
3345.86
-3252.59
3433.17
-2741.99
3468.77
-2160.33
3450.65
-1601.77
3385.95
-1153.39
3296.71
-901.936
3215.21
-905.283
3123.86
-952.463
2923.25
-333.073
2588.31
1481.32
2245.59
3577.76
1977.51
4931.71
1761.65
5548.52
1564.9
5751.55
1371.02
5750.96
1174.84
5650.57
975.772
5503.64
775
5341.38
574.168
5186.98
374.357
5063.82
174.414
5001.55
-32.187
5034.42
-255.116
5178.05
-503.538
5419.41
-762.58
5705.07
-981.609
5854.59
-1163.93
5612.62
-1368.17
4982.04
-1573.18
4085.26
-1742.34
2903.79
-1881.82
1647.05
-1986.78
466.391
-2041.61
-634.463
-2070.09
-1531.81
-2082.22
-2355.81
-2079.63
-2852.49
-2054.9
-2721.88
-1980.65
-2008.73
-1852.91
-1356.2
-1730.55
-1356.83
-1641.29
-1735.5
-1573.83
-2144.75
-1511.02
-2558.49
-1438.56
-3021.15
-1347.14
-3529.68
-1230.31
-4035.09
-1084.81
-4463.53
-915.173
-4713.82
-740.283
-4661.79
-592.115
-4224.4
-496.385
-3498.5
-444.648
-2848.19
-407.866
-2684.54
-383.373
-3070.29
-392.233
-3750.18
-449.298
-4462.68
-560.726
-5093.17
-734.737
-5617.82
-978.566
-5990.92
-1300.42
-6186.06
-1736.47
-6189.77
-2292.61
-5839.53
-2890.18
-4993.2
-3474.52
-3610.64
-3995.78
-1551.12
-4143.07
1096.93
-3944.06
3124.3
-3741.92
3929.37
3866.77
946.83
792.989
885.506
718.602
822.318
796.398
756.165
884.348
678.707
1000.2
581.068
1180.11
468.077
1402.28
358.514
1582.91
263.23
1656.94
132.461
1656.99
-45.5537
1622.02
-8.5198
915.093
197.02
-968.684
334.505
-2012.54
465.008
-2582.97
595.831
-2858.85
725.793
-2985.09
859.21
-3067.6
1003.56
-3183.38
1165.2
-3377.8
1344.42
-3649.51
1534.62
-3951.22
1726.41
-4217.47
1912.22
-4400.59
2088.42
-4489.54
2254.95
-4500.39
2414.47
-4458.37
2571.78
-4384.18
2730.25
-4272.38
2887.86
-4090.44
3035.93
-3798.79
3161.35
-3378
3247.75
-2828.39
3280
-2192.58
3255.48
-1577.25
3181.78
-1079.68
3086.21
-806.358
3001.98
-821.06
2891.81
-842.282
2646.75
-88.0126
2274.89
1853.18
1926
3926.65
1672.05
5185.66
1474.23
5746.35
1295.08
5930.71
1117.95
5928.09
937.401
5831.12
752.489
5688.56
564.219
5529.65
374.549
5376.65
186.179
5252.19
-1.75633
5189.49
-195.775
5228.44
-407.007
5389.29
-637.599
5650
-856.059
5923.53
-1034.34
6032.87
-1221.24
5799.52
-1453.55
5214.35
-1668.71
4300.42
-1844.3
3079.38
-1996.77
1799.52
-2118.41
588.033
-2194.07
-558.806
-2244.68
-1481.2
-2284.46
-2316.03
-2306.69
-2830.25
-2291.81
-2736.76
-2210.77
-2089.77
-2076.05
-1490.92
-1956.12
-1476.76
-1875.02
-1816.6
-1817.5
-2202.27
-1766.75
-2609.24
-1710.71
-3077.19
-1641.25
-3599.14
-1551.05
-4125.3
-1433.59
-4580.98
-1287.63
-4859.79
-1123.82
-4825.59
-966.863
-4381.37
-844.489
-3620.88
-767.6
-2925.08
-730.787
-2721.35
-733.916
-3067.16
-783.927
-3700.17
-884.988
-4361.62
-1042.19
-4935.96
-1264.42
-5395.59
-1554.24
-5701.09
-1918.07
-5822.23
-2385.94
-5721.9
-2950.49
-5274.98
-3547.51
-4396.19
-4128.29
-3029.85
-4597.46
-1081.95
-4732.73
1232.2
-4590.03
2981.6
-4415.08
3754.42
3825.12
884.187
865.959
819.975
782.817
758.399
857.979
693.337
949.413
609.626
1083.92
502.269
1287.47
387.95
1516.6
287.916
1682.95
197.268
1747.59
46.048
1808.21
-108.913
1776.99
-28.0872
834.281
148.124
-1144.89
271.336
-2135.75
390.157
-2701.79
509.315
-2978
629.166
-3104.94
755.538
-3193.96
896.278
-3324.12
1056.35
-3537.87
1233.75
-3826.9
1420.42
-4137.89
1606.91
-4403.95
1786.05
-4579.74
1954.44
-4657.92
2111.92
-4657.87
2261.32
-4607.77
2408.51
-4531.36
2558.52
-4422.4
2710.63
-4242.55
2856.45
-3944.6
2981.92
-3503.47
3068.48
-2914.95
3098.22
-2222.32
3067.5
-1546.52
2985.01
-997.193
2883.87
-705.218
2796.86
-734.053
2665.22
-710.632
2371.68
205.524
1964.69
2260.18
1619.77
4271.57
1383.65
5421.78
1203.52
5926.48
1040.42
6093.8
878.263
6090.26
711.503
5997.88
538.843
5861.22
361.137
5707.36
181.302
5556.49
2.64658
5430.85
-173.489
5365.63
-353.857
5408.81
-547.254
5582.68
-743.262
5846.01
-920.831
6101.09
-1093.51
6205.55
-1311.57
6017.58
-1557.73
5460.51
-1765.53
4508.22
-1944.6
3258.45
-2107.17
1962.09
-2243.34
724.204
-2340.61
-461.538
-2411.81
-1410.01
-2478.36
-2249.48
-2525.51
-2783.1