/*--------------------------------*- C++ -*----------------------------------*\
| =========                 |                                                 |
| \\      /  F ield         | OpenFOAM: The Open Source CFD Toolbox           |
|  \\    /   O peration     | Version:  4.1                                   |
|   \\  /    A nd           | Web:      www.OpenFOAM.org                      |
|    \\/     M anipulation  |                                                 |
\*---------------------------------------------------------------------------*/
FoamFile
{
    version     2.0;
    format      ascii;
    class       volVectorField;
    location    "1600";
    object      U;
}
// * * * * * * * * * * * * * * * * * * * * * * * * * * * * * * * * * * * * * //

dimensions      [0 1 -1 0 0 0 0];

internalField   nonuniform List<vector> 
26785
(
(-2.53138e-16 0.0355357 14.2832)
(-3.61817e-16 0.031724 13.563)
(-1.94689e-16 0.0315085 12.9085)
(-2.23347e-16 0.0327048 12.2843)
(-8.44326e-16 0.0345178 11.6372)
(-1.64252e-15 0.0374096 10.9552)
(-4.19264e-15 0.0410838 10.2302)
(-4.40787e-15 0.0443316 9.45923)
(-3.87718e-15 0.0456136 8.65239)
(-1.94831e-15 0.0413446 7.87302)
(-5.81929e-15 0.029836 7.24269)
(-4.1391e-15 0.0159917 6.84975)
(-3.69191e-15 -0.00556408 6.80544)
(-3.29846e-15 -0.026783 7.1513)
(-3.13786e-15 -0.0394652 7.72001)
(-2.66621e-15 -0.0490838 8.37251)
(-1.78093e-15 -0.0564922 9.08262)
(-1.00398e-15 -0.062286 9.85261)
(-2.11723e-16 -0.0673914 10.6876)
(1.25396e-15 -0.0726174 11.5915)
(-1.41312e-15 -0.0782904 12.5654)
(-3.95851e-16 -0.0841867 13.6061)
(-1.01953e-15 -0.089739 14.7041)
(-3.02978e-15 -0.0943377 15.844)
(4.54634e-16 -0.0975947 17.0062)
(-1.511e-15 -0.0994228 18.1711)
(-8.2553e-16 -0.0999297 19.3217)
(-8.23889e-16 -0.0992537 20.4444)
(1.26033e-15 -0.097393 21.5278)
(1.44955e-15 -0.0941684 22.5602)
(2.3734e-15 -0.0893691 23.5283)
(6.15499e-16 -0.0829606 24.4176)
(3.81552e-15 -0.0752923 25.2157)
(1.32719e-15 -0.0675278 25.9168)
(5.22175e-15 -0.0617089 26.5291)
(3.62107e-15 -0.0593529 27.0823)
(4.12106e-15 -0.0584033 27.618)
(3.85403e-15 -0.0503448 28.1372)
(3.61559e-15 -0.0232525 28.5384)
(3.93716e-15 0.0284624 28.6027)
(3.12934e-15 0.0984885 28.0721)
(3.97556e-15 0.162112 26.8641)
(3.466e-15 0.199688 25.1793)
(5.09667e-15 0.2131 23.3039)
(4.82215e-15 0.211896 21.4312)
(5.58318e-15 0.203977 19.6499)
(3.93333e-15 0.194002 17.987)
(3.57882e-15 0.184294 16.4405)
(3.72513e-15 0.175873 14.9967)
(2.87684e-15 0.169133 13.6381)
(3.3421e-15 0.164191 12.3472)
(4.92856e-15 0.161028 11.1071)
(5.36885e-15 0.15949 9.90257)
(5.07387e-15 0.15911 8.72061)
(3.92907e-15 0.158948 7.5536)
(5.37195e-15 0.157173 6.402)
(-6.42642e-15 0.15221 5.2816)
(-9.9635e-15 0.139643 4.22064)
(-4.08349e-15 0.126401 3.24006)
(-2.88228e-14 0.166532 2.36142)
(-5.66704e-14 0.2009 0.896439)
(-8.10581e-14 0.0806722 0.0900141)
(-1.03925e-13 0.0376311 0.497035)
(-1.35655e-13 -0.0234736 0.650107)
(-6.92749e-14 -0.13106 0.776399)
(-4.86457e-14 -0.140603 1.3111)
(-4.39283e-14 -0.0943497 1.79724)
(-3.95075e-14 -0.0681956 2.27039)
(-4.48578e-14 -0.0558435 2.74095)
(-4.54893e-14 -0.0426829 3.11475)
(-5.95038e-14 -0.0325952 3.37169)
(-5.87438e-14 -0.0294325 3.562)
(-5.35497e-14 -0.0333453 3.75789)
(-4.47626e-14 -0.0428407 4.01142)
(-3.67885e-14 -0.0563759 4.34756)
(-2.50885e-14 -0.072341 4.77569)
(-1.4711e-14 -0.0888689 5.29593)
(-9.09329e-15 -0.103898 5.89922)
(-5.33948e-15 -0.115844 6.56787)
(-3.62593e-15 -0.124148 7.27995)
(-2.26019e-15 -0.129467 8.01567)
(-5.70772e-15 -0.133593 8.76358)
(-4.96126e-15 -0.139074 9.52508)
(-4.40844e-15 -0.148525 10.3161)
(-5.35197e-15 -0.164123 11.1654)
(-6.12971e-15 -0.187576 12.1107)
(-5.60578e-15 -0.220179 13.1964)
(-5.03818e-15 -0.261802 14.4678)
(-5.49376e-15 -0.308127 15.954)
(-4.91938e-15 -0.349803 17.6441)
(-4.72851e-15 -0.37431 19.4689)
(-4.60435e-15 -0.369673 21.3022)
(-4.6807e-15 -0.329446 22.9867)
(-4.63219e-15 -0.250938 24.3526)
(-4.73836e-15 -0.141021 25.2491)
(-3.62329e-15 -0.0204328 25.5768)
(-3.00611e-15 0.0832346 25.3783)
(-2.43966e-15 0.141122 24.7343)
(-1.91628e-15 0.161424 24.1188)
(-1.3639e-15 0.144399 23.0352)
(2.33446e-17 0.0961647 14.2544)
(-6.82993e-16 0.0873826 13.5275)
(-2.12711e-15 0.0886608 12.8684)
(-1.9024e-15 0.0936867 12.2403)
(-1.56561e-15 0.100114 11.5905)
(-8.77459e-16 0.109453 10.9073)
(-2.48626e-15 0.120842 10.182)
(1.99848e-15 0.130915 9.40866)
(-7.29149e-16 0.135843 8.59455)
(-6.02538e-15 0.12508 7.80725)
(-5.07641e-15 0.090402 7.18579)
(-3.30827e-15 0.0408325 6.84105)
(-1.16956e-15 -0.0349615 6.8477)
(1.16118e-15 -0.0981343 7.1522)
(2.54291e-15 -0.124921 7.56459)
(6.90834e-16 -0.140085 8.01575)
(3.8769e-15 -0.154489 8.55827)
(5.50881e-15 -0.172311 9.22886)
(3.98492e-15 -0.193371 10.025)
(2.98908e-15 -0.216003 10.927)
(6.28376e-15 -0.238624 11.9155)
(6.06052e-15 -0.259747 12.9745)
(5.92562e-15 -0.277861 14.0889)
(2.63561e-15 -0.291679 15.2413)
(2.61294e-15 -0.300586 16.4121)
(3.99557e-15 -0.304735 17.5826)
(1.66008e-15 -0.304725 18.7362)
(2.05399e-15 -0.301137 19.8597)
(2.00731e-15 -0.294062 20.9419)
(3.67788e-15 -0.283012 21.9707)
(4.473e-16 -0.267396 22.9322)
(1.55763e-15 -0.247171 23.8114)
(7.15766e-16 -0.223301 24.5957)
(2.39756e-16 -0.198706 25.2781)
(2.20785e-15 -0.178754 25.8624)
(1.35432e-15 -0.168975 26.3707)
(1.09028e-15 -0.167643 26.8458)
(8.32111e-16 -0.153006 27.3226)
(9.12488e-16 -0.0836214 27.7628)
(1.22368e-15 0.0705207 27.9711)
(1.85967e-15 0.295704 27.6064)
(-3.17026e-16 0.503557 26.4933)
(2.16741e-15 0.624407 24.8269)
(1.11307e-15 0.6642 22.9279)
(3.00951e-15 0.65573 21.0186)
(4.20049e-15 0.626032 19.2029)
(4.25275e-15 0.590719 17.5133)
(3.59003e-15 0.557255 15.9493)
(2.53286e-15 0.528689 14.4966)
(3.62391e-15 0.506014 13.1367)
(1.45632e-15 0.489393 11.8509)
(-1.98799e-15 0.478629 10.6211)
(1.41065e-16 0.4732 9.43082)
(-6.71073e-15 0.471721 8.26544)
(-2.42411e-15 0.471512 7.11517)
(2.89421e-15 0.467281 5.97731)
(-5.4182e-15 0.45418 4.86348)
(-1.44035e-14 0.422343 3.79522)
(4.24218e-16 0.412374 2.76616)
(-2.07997e-14 0.531048 1.71305)
(-6.14185e-14 0.57029 0.452094)
(-1.13889e-13 0.265234 0.108604)
(-6.02393e-14 0.0860989 -0.161337)
(-1.16908e-14 -0.104841 0.147764)
(-7.90862e-14 -0.244842 0.133059)
(-5.86829e-14 -0.278445 0.467721)
(-4.10302e-14 -0.2188 1.11122)
(-4.43525e-14 -0.182111 1.73877)
(-6.79139e-14 -0.160316 2.27684)
(-5.36302e-14 -0.128181 2.69893)
(-2.74512e-14 -0.101856 2.99174)
(-2.59196e-14 -0.0977383 3.21228)
(-1.53286e-14 -0.117259 3.44515)
(-4.98393e-15 -0.15412 3.74914)
(1.44025e-14 -0.201078 4.14817)
(2.00744e-14 -0.251509 4.64539)
(2.57152e-14 -0.299675 5.23329)
(2.81986e-14 -0.340618 5.897)
(2.31371e-14 -0.371242 6.61614)
(2.18161e-14 -0.391195 7.36863)
(1.99446e-14 -0.403229 8.13588)
(1.69368e-14 -0.413106 8.90796)
(1.41358e-14 -0.428572 9.68776)
(1.7327e-14 -0.457365 10.4923)
(1.62596e-14 -0.505728 11.3506)
(1.33738e-14 -0.578185 12.2991)
(1.16482e-14 -0.677079 13.3787)
(1.00336e-14 -0.798914 14.6287)
(1.00782e-14 -0.927182 16.0707)
(9.13063e-15 -1.0328 17.6869)
(7.97816e-15 -1.08182 19.4051)
(6.58405e-15 -1.04548 21.0998)
(4.73109e-15 -0.9121 22.6222)
(4.24751e-15 -0.67862 23.8179)
(2.99454e-15 -0.365579 24.5555)
(1.41147e-15 -0.028394 24.7538)
(1.58276e-15 0.261674 24.4574)
(1.53244e-15 0.419299 23.7496)
(1.62187e-15 0.46621 23.1088)
(2.28453e-15 0.417508 22.0635)
(-4.49623e-16 0.162396 14.1452)
(-4.33961e-16 0.148053 13.3953)
(4.03466e-16 0.14928 12.7142)
(-8.1673e-16 0.157003 12.0654)
(2.41778e-15 0.16718 11.3985)
(1.69638e-15 0.182276 10.7029)
(2.50128e-16 0.201218 9.96507)
(4.70509e-15 0.218587 9.17458)
(2.44618e-15 0.226765 8.34785)
(1.24733e-15 0.205694 7.5769)
(1.30332e-15 0.14225 7.00495)
(2.27867e-15 0.0610151 6.64795)
(3.14136e-15 -0.0473249 6.41624)
(4.46837e-15 -0.128239 6.31829)
(6.28017e-15 -0.160641 6.37647)
(6.90559e-15 -0.19523 6.66997)
(5.6494e-15 -0.240369 7.23432)
(6.18197e-15 -0.288182 7.99256)
(2.25432e-15 -0.332489 8.85521)
(3.31905e-15 -0.372388 9.77386)
(6.77219e-16 -0.408895 10.7344)
(2.61692e-15 -0.442064 11.7371)
(6.06768e-15 -0.470558 12.7816)
(4.47745e-15 -0.492588 13.8617)
(7.04035e-16 -0.507102 14.9648)
(3.88416e-15 -0.514189 16.0752)
(2.87396e-15 -0.514631 17.1775)
(1.57102e-16 -0.509179 18.2574)
(4.86671e-16 -0.49778 19.3012)
(5.1068e-16 -0.479457 20.2944)
(4.44089e-16 -0.453151 21.22)
(-2.11579e-15 -0.418826 22.0609)
(-4.30688e-16 -0.37809 22.803)
(-8.31188e-16 -0.33543 23.4392)
(-1.49044e-15 -0.29902 23.9724)
(-1.33824e-15 -0.278499 24.4216)
(-1.59469e-15 -0.276106 24.8247)
(-1.71721e-15 -0.265812 25.2253)
(-1.86297e-15 -0.181548 25.6414)
(-1.73924e-15 0.0451255 25.9887)
(-1.02846e-15 0.41972 25.9544)
(-1.87894e-17 0.789778 25.1851)
(9.62598e-16 1.01558 23.7634)
(1.74364e-15 1.09727 22.0105)
(2.31311e-15 1.09029 20.1809)
(3.29296e-15 1.04302 18.4067)
(3.87329e-15 0.983941 16.7396)
(4.55062e-15 0.926867 15.1897)
(4.32075e-15 0.877554 13.7491)
(4.61947e-15 0.837999 12.4031)
(3.3196e-15 0.808666 11.1346)
(1.92883e-15 0.789379 9.92608)
(1.54111e-15 0.779434 8.76059)
(-2.2488e-15 0.776751 7.62248)
(-3.55442e-15 0.777197 6.49968)
(-9.75297e-15 0.772398 5.38643)
(-1.05001e-14 0.754676 4.28971)
(-2.71781e-15 0.711631 3.22795)
(7.27487e-15 0.724075 2.20727)
(-2.00002e-15 0.873313 1.10641)
(-6.50366e-14 0.820293 -0.000574838)
(-1.00579e-13 0.45212 -0.033184)
(-8.93284e-14 0.0638351 -0.540366)
(-8.90378e-14 -0.236835 -0.448271)
(-1.01696e-13 -0.344441 -0.315351)
(-5.89723e-14 -0.444439 0.0412703)
(-3.83515e-14 -0.440312 0.642577)
(-6.1248e-14 -0.392579 1.3094)
(-2.73767e-14 -0.325301 1.89962)
(-3.32522e-15 -0.245784 2.35984)
(4.69633e-15 -0.189704 2.67786)
(2.39889e-15 -0.181283 2.91975)
(2.00606e-14 -0.21685 3.17959)
(3.8453e-14 -0.282236 3.51651)
(3.62423e-14 -0.363326 3.94841)
(3.33253e-14 -0.447855 4.47178)
(2.82186e-14 -0.526319 5.07618)
(2.33123e-14 -0.591393 5.748)
(1.96318e-14 -0.638939 6.46966)
(1.73404e-14 -0.668908 7.22082)
(1.66507e-14 -0.685965 7.98244)
(1.71383e-14 -0.699557 8.7421)
(1.39297e-14 -0.722311 9.4989)
(1.44349e-14 -0.766668 10.2651)
(1.44052e-14 -0.842369 11.0637)
(1.39137e-14 -0.956099 11.9234)
(1.31911e-14 -1.11105 12.8783)
(1.23638e-14 -1.30185 13.9723)
(1.157e-14 -1.50288 15.2516)
(1.01257e-14 -1.66746 16.7333)
(1.01297e-14 -1.73937 18.3691)
(9.71734e-15 -1.67004 20.032)
(9.56704e-15 -1.44152 21.5541)
(8.73796e-15 -1.05039 22.7535)
(7.05825e-15 -0.53088 23.4679)
(4.71769e-15 0.023916 23.5891)
(3.59077e-15 0.495463 23.1417)
(2.36974e-15 0.734351 22.2564)
(1.59986e-15 0.776247 21.472)
(2.10112e-15 0.675017 20.3587)
(2.97469e-18 0.23014 13.9682)
(-1.78111e-15 0.21098 13.1947)
(-2.50778e-15 0.211888 12.4904)
(-1.03672e-15 0.221434 11.8194)
(8.27749e-16 0.234492 11.1328)
(2.17953e-15 0.255068 10.4159)
(6.27749e-15 0.281876 9.65054)
(4.91838e-15 0.305788 8.83709)
(1.94303e-15 0.313847 8.01691)
(1.87995e-15 0.279721 7.28414)
(1.2366e-15 0.195939 6.72201)
(1.89256e-15 0.110427 6.2246)
(2.67216e-15 -0.00776396 5.67306)
(5.06059e-15 -0.117459 5.32281)
(9.27028e-15 -0.191844 5.4247)
(7.68527e-15 -0.277323 5.9547)
(6.78234e-15 -0.357329 6.72695)
(4.48005e-15 -0.420819 7.5751)
(4.93129e-15 -0.471364 8.43107)
(1.72124e-15 -0.516321 9.2886)
(1.59257e-15 -0.560155 10.1636)
(1.59597e-15 -0.60304 11.0739)
(2.34349e-15 -0.64224 12.0293)
(9.33099e-16 -0.674262 13.0285)
(4.55454e-16 -0.696777 14.06)
(-1.81934e-16 -0.709232 15.1062)
(-5.48357e-16 -0.712212 16.1483)
(-2.81505e-16 -0.706423 17.168)
(-1.92163e-16 -0.691586 18.1483)
(1.12838e-16 -0.666265 19.0717)
(-1.69091e-15 -0.629069 19.9195)
(-2.56768e-15 -0.580216 20.6742)
(-1.58888e-15 -0.522244 21.3228)
(-2.19977e-15 -0.461437 21.8607)
(4.06439e-16 -0.408668 22.2943)
(-4.46157e-15 -0.37676 22.6439)
(8.36108e-16 -0.371288 22.9445)
(-5.06035e-16 -0.367439 23.2371)
(-3.07864e-15 -0.288258 23.5601)
(1.49499e-15 -0.0301619 23.9041)
(-1.13879e-15 0.460826 24.0335)
(-1.67973e-15 0.994278 23.5245)
(-2.565e-16 1.34407 22.3417)
(1.60136e-15 1.48735 20.7712)
(1.66585e-15 1.49634 19.0709)
(2.45959e-15 1.44074 17.3859)
(3.4403e-15 1.36329 15.7805)
(6.73691e-15 1.28539 14.2754)
(8.55209e-15 1.21645 12.8705)
(5.39793e-15 1.1601 11.5562)
(4.58453e-15 1.11758 10.3186)
(4.29079e-17 1.08908 9.14246)
(1.92373e-15 1.07402 8.01104)
(8.32661e-15 1.06992 6.90813)
(6.42959e-15 1.07153 5.81974)
(-2.07203e-15 1.06787 4.73768)
(-2.19264e-14 1.04817 3.66377)
(-2.38909e-15 0.991138 2.62255)
(1.11563e-14 1.02576 1.65138)
(8.72038e-15 1.18387 0.586191)
(-6.48135e-14 0.985057 -0.401726)
(-5.96416e-14 0.532623 -0.378957)
(-7.91653e-14 0.0542625 -0.696728)
(-6.70066e-14 -0.290767 -0.779737)
(-7.09125e-14 -0.451641 -0.606446)
(-6.04649e-14 -0.607386 -0.281326)
(-7.13293e-14 -0.643 0.282809)
(-6.82744e-14 -0.588715 0.949516)
(-1.09388e-14 -0.480615 1.56336)
(-6.48338e-15 -0.355128 2.04125)
(1.058e-14 -0.274637 2.36157)
(1.23255e-14 -0.26859 2.59971)
(3.7934e-14 -0.324097 2.85377)
(2.91592e-14 -0.41835 3.17608)
(1.82093e-14 -0.530438 3.57735)
(1.74074e-14 -0.644138 4.05576)
(8.88241e-15 -0.74869 4.6097)
(1.3223e-14 -0.835649 5.2334)
(1.36008e-14 -0.899396 5.91055)
(1.55758e-14 -0.938837 6.61579)
(1.7252e-14 -0.959267 7.32184)
(1.56691e-14 -0.973051 8.00736)
(1.46763e-14 -0.997349 8.66333)
(1.1677e-14 -1.04891 9.29498)
(9.51246e-15 -1.14023 9.91816)
(9.33555e-15 -1.28022 10.5549)
(9.87467e-15 -1.47745 11.242)
(9.03726e-15 -1.73523 12.0536)
(9.15422e-15 -2.02766 13.092)
(9.46695e-15 -2.2877 14.4258)
(1.08394e-14 -2.42424 16.0346)
(1.10563e-14 -2.3541 17.7935)
(1.15946e-14 -2.04515 19.5173)
(1.11284e-14 -1.4899 20.9846)
(1.04259e-14 -0.730856 21.9679)
(7.98355e-15 0.09516 22.2688)
(5.73187e-15 0.799603 21.81)
(2.03412e-15 1.13366 20.7656)
(-8.86732e-17 1.15052 19.7989)
(-4.93677e-16 0.958764 18.5226)
(-4.12517e-16 0.290971 13.7287)
(-6.21653e-16 0.267907 12.934)
(6.44037e-17 0.271167 12.2097)
(-3.13836e-17 0.284403 11.521)
(2.11583e-15 0.301869 10.8164)
(1.71427e-15 0.329242 10.0754)
(2.23493e-17 0.363764 9.28369)
(3.58758e-15 0.391489 8.46295)
(3.44199e-15 0.39656 7.66364)
(3.58298e-15 0.35231 6.94707)
(3.42766e-15 0.259434 6.34018)
(5.07908e-15 0.181594 5.72068)
(8.50092e-15 0.0479459 5.07015)
(6.50345e-15 -0.118358 4.75289)
(8.7499e-15 -0.256168 5.07089)
(6.0764e-15 -0.38379 5.76915)
(3.52356e-15 -0.478061 6.59149)
(1.67725e-15 -0.543994 7.42447)
(1.27644e-16 -0.596196 8.24419)
(5.4238e-17 -0.645737 9.06007)
(-1.38475e-15 -0.697578 9.89226)
(-2.51195e-15 -0.751061 10.7609)
(-1.14083e-15 -0.801837 11.6779)
(-2.13786e-15 -0.844507 12.642)
(-2.42302e-15 -0.875189 13.6388)
(-2.00733e-15 -0.89248 14.6466)
(4.26709e-17 -0.896743 15.6419)
(-2.2623e-15 -0.888787 16.6033)
(6.2702e-16 -0.868328 17.5121)
(5.77616e-16 -0.833699 18.3506)
(8.27431e-16 -0.783401 19.1009)
(1.03458e-15 -0.718146 19.7464)
(1.72047e-15 -0.641657 20.2761)
(1.92691e-15 -0.562224 20.6882)
(2.54657e-15 -0.493367 20.9929)
(4.21437e-16 -0.450692 21.2132)
(4.01149e-16 -0.442493 21.3832)
(3.92556e-16 -0.446068 21.5403)
(5.47864e-16 -0.378924 21.7295)
(3.8419e-16 -0.110556 21.9881)
(-1.65053e-16 0.466956 22.1582)
(-8.47165e-16 1.14883 21.8043)
(3.11159e-16 1.62327 20.7967)
(-2.71529e-17 1.83532 19.3854)
(1.30845e-15 1.86859 17.8179)
(2.01477e-15 1.81196 16.2385)
(2.93978e-15 1.7217 14.7153)
(4.18964e-15 1.62682 13.275)
(6.66081e-15 1.54059 11.9231)
(4.22989e-15 1.46865 10.655)
(5.03032e-15 1.41337 9.46049)
(-4.38339e-16 1.37567 8.3263)
(-1.59535e-15 1.35543 7.23669)
(4.48028e-15 1.35015 6.17499)
(6.83995e-15 1.35367 5.12545)
(1.14584e-14 1.3532 4.07767)
(-1.49871e-14 1.33232 3.0266)
(-1.0536e-14 1.25775 2.01629)
(-2.90943e-15 1.31029 1.05964)
(-5.3326e-15 1.47096 0.0432602)
(-8.18956e-14 1.11628 -0.793673)
(-4.66542e-14 0.552213 -0.825698)
(-6.51333e-14 0.0488798 -1.0273)
(-5.38904e-14 -0.320519 -1.09171)
(-6.92538e-14 -0.545608 -0.898704)
(-8.32485e-14 -0.755345 -0.578012)
(-5.13068e-14 -0.842478 -0.0480168)
(-4.97688e-14 -0.795502 0.602796)
(6.38636e-15 -0.651016 1.22923)
(-1.476e-14 -0.474014 1.69841)
(6.73722e-15 -0.364079 1.98179)
(2.46473e-14 -0.355933 2.16094)
(4.36192e-14 -0.424098 2.33601)
(2.27139e-14 -0.538389 2.56465)
(1.40535e-14 -0.674928 2.8767)
(3.84675e-15 -0.81682 3.28965)
(-1.94407e-15 -0.951201 3.8066)
(1.59109e-14 -1.06446 4.41047)
(2.01344e-14 -1.14574 5.06591)
(2.28114e-14 -1.19115 5.73033)
(1.90225e-14 -1.20661 6.36439)
(9.04781e-15 -1.20831 6.93911)
(1.04943e-14 -1.21897 7.44079)
(9.73133e-15 -1.26027 7.87273)
(9.4827e-15 -1.34789 8.25232)
(7.00913e-15 -1.49642 8.61127)
(6.35671e-15 -1.72943 9.01337)
(6.80259e-15 -2.06933 9.57103)
(8.14795e-15 -2.48915 10.4003)
(1.025e-14 -2.8925 11.5575)
(1.1613e-14 -3.14858 13.0357)
(1.17338e-14 -3.13458 14.7613)
(1.22e-14 -2.79652 16.609)
(1.22936e-14 -2.10862 18.3758)
(1.18901e-14 -1.09661 19.772)
(1.03867e-14 0.0651128 20.4814)
(7.29857e-15 1.09816 20.2424)
(4.25418e-15 1.58154 19.1767)
(2.47733e-15 1.58409 18.1009)
(-2.10867e-16 1.27379 16.6748)
(-7.01993e-16 0.365399 13.3257)
(1.03616e-16 0.331158 12.5156)
(1.46116e-15 0.332861 11.7835)
(1.7852e-15 0.347398 11.0913)
(3.00245e-15 0.368447 10.3836)
(9.15142e-16 0.402441 9.63846)
(1.48561e-15 0.443609 8.85055)
(6.22923e-15 0.473463 8.0518)
(1.00253e-14 0.476164 7.27708)
(4.70128e-15 0.426628 6.54941)
(8.88105e-16 0.329337 5.87758)
(5.51384e-15 0.256313 5.18174)
(8.05242e-15 0.0964381 4.56777)
(5.83514e-15 -0.137059 4.36801)
(5.37851e-15 -0.336028 4.84187)
(3.42765e-15 -0.494488 5.60759)
(2.19955e-15 -0.597963 6.44743)
(-4.7965e-16 -0.666215 7.2846)
(-4.40358e-15 -0.720142 8.10218)
(-3.97083e-15 -0.773433 8.90924)
(-4.23459e-15 -0.832214 9.72735)
(-6.21197e-15 -0.895516 10.5794)
(-6.3018e-15 -0.957319 11.4791)
(-4.49838e-15 -1.00991 12.4241)
(-1.50382e-15 -1.04747 13.3969)
(-1.04614e-15 -1.06764 14.3719)
(5.57335e-16 -1.07072 15.3228)
(2.13568e-15 -1.05792 16.2274)
(2.34929e-15 -1.0292 17.0678)
(3.05272e-15 -0.982766 17.8277)
(1.71962e-15 -0.917037 18.4904)
(3.38865e-15 -0.833226 19.0402)
(1.94002e-15 -0.736299 19.4662)
(2.39624e-15 -0.636766 19.7667)
(1.06552e-15 -0.550917 19.9534)
(-2.9427e-16 -0.496667 20.0509)
(-2.62878e-17 -0.484297 20.0925)
(-1.81753e-16 -0.494455 20.1145)
(-1.0154e-17 -0.444677 20.1633)
(-2.37576e-16 -0.183204 20.3023)
(2.39175e-15 0.455007 20.4327)
(1.50433e-15 1.26932 20.1439)
(9.1835e-16 1.86413 19.2438)
(2.18593e-15 2.14627 17.954)
(1.21392e-15 2.20764 16.5053)
(1.69176e-15 2.15469 15.0319)
(2.12462e-15 2.05612 13.5989)
(2.30484e-15 1.94786 12.2341)
(3.66336e-15 1.8469 10.9464)
(3.20642e-15 1.76098 9.73497)
(3.84427e-15 1.69383 8.5926)
(3.75991e-16 1.64743 7.50802)
(-2.65865e-15 1.62244 6.46625)
(-6.98214e-16 1.61666 5.45016)
(3.20512e-15 1.62334 4.44225)
(1.25034e-14 1.62869 3.42927)
(-7.45504e-15 1.60616 2.39984)
(-1.37164e-14 1.51981 1.41699)
(-1.81926e-14 1.58984 0.399114)
(-2.61624e-14 1.72212 -0.556578)
(-7.78728e-14 1.22094 -1.15671)
(-2.98957e-14 0.561864 -1.2351)
(-3.39346e-14 0.0496131 -1.36078)
(-2.68425e-14 -0.350061 -1.39079)
(-4.77387e-14 -0.637241 -1.19433)
(-3.48685e-14 -0.895938 -0.872821)
(-5.9511e-14 -1.03397 -0.367091)
(-3.4228e-14 -1.00042 0.254131)
(1.30533e-14 -0.815598 0.861924)
(-9.78946e-15 -0.57782 1.28367)
(4.35781e-14 -0.429435 1.46558)
(3.87441e-14 -0.409767 1.48979)
(2.65488e-14 -0.484312 1.50889)
(1.16675e-14 -0.624854 1.65003)
(1.03994e-14 -0.803073 1.96099)
(3.96638e-15 -0.990856 2.42706)
(1.45158e-14 -1.16459 3.00627)
(2.67055e-14 -1.30282 3.64813)
(2.51629e-14 -1.39176 4.30186)
(1.66984e-14 -1.42837 4.9234)
(1.11394e-14 -1.42192 5.47762)
(1.0558e-14 -1.39379 5.93927)
(8.09492e-15 -1.37333 6.29729)
(1.51468e-14 -1.38873 6.56047)
(9.65908e-15 -1.46248 6.76122)
(3.52526e-15 -1.62085 6.96221)
(3.08422e-15 -1.90316 7.26023)
(4.00495e-15 -2.33633 7.75113)
(6.64734e-15 -2.87587 8.46292)
(9.08147e-15 -3.40654 9.37494)
(1.0792e-14 -3.79087 10.5016)
(1.1348e-14 -3.88541 11.8767)
(1.31183e-14 -3.60621 13.5237)
(1.44023e-14 -2.87883 15.342)
(1.24381e-14 -1.6624 17.0169)
(1.02884e-14 -0.146283 18.1641)
(7.74815e-15 1.31689 18.3177)
(4.79087e-15 2.02599 17.374)
(1.5753e-15 2.04475 16.2908)
(-1.56522e-15 1.60675 14.7892)
(-4.23852e-16 0.427718 12.9532)
(-2.6501e-16 0.387471 12.1175)
(-2.32351e-16 0.390398 11.3603)
(5.82801e-16 0.407388 10.6423)
(1.49921e-15 0.432226 9.90984)
(1.57587e-15 0.472024 9.15051)
(6.03079e-16 0.5184 8.37192)
(4.0362e-15 0.5502 7.60185)
(3.23664e-15 0.553476 6.84298)
(-2.91634e-15 0.503573 6.0887)
(-1.1007e-15 0.403637 5.3617)
(5.21502e-15 0.328232 4.6293)
(3.84616e-15 0.132153 4.08615)
(5.42704e-15 -0.173774 4.00059)
(3.73515e-15 -0.429792 4.59263)
(1.50581e-15 -0.612918 5.41942)
(-2.3535e-15 -0.722432 6.29234)
(-4.54006e-15 -0.79071 7.14371)
(-6.75632e-15 -0.844363 7.95957)
(-8.9346e-15 -0.900072 8.75367)
(-7.69923e-15 -0.965182 9.55263)
(-7.89169e-15 -1.03812 10.3832)
(-5.30089e-15 -1.11076 11.2606)
(-1.93993e-15 -1.17267 12.1813)
(4.0937e-16 -1.21595 13.1252)
(2.11099e-15 -1.23738 14.0638)
(2.81409e-15 -1.23747 14.9698)
(6.19805e-15 -1.21807 15.8216)
(2.30572e-15 -1.17951 16.6031)
(3.80392e-15 -1.11983 17.2998)
(2.33982e-15 -1.03721 17.8957)
(3.63202e-15 -0.933209 18.3746)
(4.24803e-15 -0.813936 18.7245)
(4.40092e-15 -0.692196 18.9416)
(4.85163e-15 -0.587338 19.0365)
(3.1203e-15 -0.519646 19.0342)
(4.05899e-15 -0.501212 18.9678)
(3.7797e-15 -0.515833 18.874)
(3.7105e-15 -0.483274 18.8001)
(2.23288e-15 -0.235106 18.8201)
(4.30369e-15 0.445956 18.8712)
(1.46044e-15 1.37511 18.5813)
(3.61637e-15 2.07996 17.7322)
(4.56987e-16 2.42757 16.529)
(8.14379e-16 2.51662 15.1822)
(1.15676e-15 2.46945 13.8097)
(1.45246e-15 2.3656 12.4684)
(2.29008e-15 2.2469 11.1843)
(4.37953e-15 2.13358 9.96751)
(8.17895e-15 2.03537 8.81956)
(1.3746e-14 1.95748 7.73565)
(1.60714e-14 1.90318 6.70608)
(6.36629e-15 1.87423 5.71638)
(-8.27704e-16 1.86903 4.74871)
(-4.44323e-16 1.88064 3.78381)
(9.7071e-15 1.89498 2.80441)
(-2.14672e-15 1.8754 1.79535)
(-5.50643e-15 1.7918 0.792832)
(-3.50661e-14 1.86995 -0.312571)
(-4.86399e-14 1.91046 -1.11086)
(-6.82273e-14 1.29239 -1.48427)
(-1.78414e-14 0.573532 -1.59724)
(-8.53676e-16 0.0469447 -1.68905)
(-3.34787e-15 -0.384847 -1.68806)
(-2.15812e-14 -0.726971 -1.49349)
(-1.56018e-14 -1.03371 -1.17775)
(-4.68169e-14 -1.21478 -0.690181)
(-3.57094e-14 -1.19606 -0.114248)
(8.38718e-15 -0.961028 0.429313)
(-1.30173e-15 -0.635781 0.755138)
(6.27407e-14 -0.424541 0.75481)
(2.04814e-14 -0.397689 0.561239)
(1.23512e-14 -0.518186 0.537261)
(-1.40837e-14 -0.731525 0.812412)
(-2.5926e-14 -0.97362 1.2804)
(-5.04222e-15 -1.20459 1.85294)
(2.95883e-14 -1.40124 2.47266)
(3.04393e-14 -1.54449 3.0998)
(1.69717e-14 -1.62396 3.7039)
(8.93159e-15 -1.63942 4.26059)
(7.29206e-15 -1.60244 4.74608)
(-1.29619e-15 -1.53785 5.13709)
(-4.79343e-16 -1.48156 5.42088)
(3.98888e-15 -1.47113 5.60976)
(4.52213e-15 -1.54131 5.7534)
(2.37893e-15 -1.7304 5.94443)
(4.31637e-16 -2.07541 6.28584)
(9.55163e-16 -2.57892 6.80942)
(5.02581e-15 -3.17451 7.44198)
(7.82353e-15 -3.75832 8.10436)
(1.02025e-14 -4.22825 8.82138)
(1.17545e-14 -4.45101 9.69304)
(1.3841e-14 -4.31437 10.8851)
(1.36454e-14 -3.66967 12.4536)
(1.40032e-14 -2.35512 14.1091)
(1.20752e-14 -0.54433 15.4921)
(9.8834e-15 1.4072 16.0545)
(4.19365e-15 2.41748 15.3164)
(1.47966e-15 2.49001 14.3099)
(-2.38994e-15 1.93269 12.8257)
(-4.86804e-16 0.493802 12.5606)
(2.17736e-17 0.447767 11.7119)
(-4.76928e-16 0.451181 10.9388)
(4.33458e-16 0.470189 10.1976)
(2.43527e-15 0.497801 9.43667)
(1.91308e-15 0.540924 8.65749)
(1.97119e-15 0.589745 7.88224)
(7.70392e-16 0.623094 7.13001)
(-1.3665e-15 0.62978 6.37091)
(-2.35225e-15 0.5827 5.58384)
(-6.04234e-16 0.478983 4.82206)
(-1.73988e-16 0.395561 4.09285)
(2.6376e-15 0.156492 3.61324)
(4.85481e-15 -0.225793 3.61908)
(3.16583e-16 -0.536518 4.33722)
(-3.61536e-15 -0.73913 5.2391)
(-5.32945e-15 -0.850679 6.14321)
(-8.75099e-15 -0.916064 6.99456)
(-1.07575e-14 -0.967591 7.79169)
(-8.43014e-15 -1.02479 8.55772)
(-6.05516e-15 -1.09596 9.32551)
(-3.71013e-15 -1.1786 10.1257)
(-4.02596e-16 -1.26211 10.9749)
(1.21266e-15 -1.33303 11.868)
(4.60162e-15 -1.38125 12.7813)
(4.89087e-15 -1.40285 13.6839)
(6.09156e-15 -1.39883 14.5479)
(2.85894e-15 -1.3719 15.353)
(4.98208e-15 -1.32279 16.0855)
(4.76427e-15 -1.24927 16.7325)
(5.6457e-15 -1.14901 17.2784)
(6.83802e-15 -1.02374 17.7062)
(7.79875e-15 -0.880542 18.0014)
(8.75755e-15 -0.734537 18.1575)
(9.81691e-15 -0.608392 18.1832)
(7.23806e-15 -0.524875 18.1027)
(8.39742e-15 -0.498039 17.949)
(9.5227e-15 -0.515178 17.7608)
(1.00191e-14 -0.499013 17.5869)
(7.48708e-15 -0.267534 17.5027)
(8.32478e-15 0.447298 17.4578)
(4.89326e-15 1.47808 17.1204)
(5.14193e-15 2.28061 16.2796)
(1.47113e-15 2.68538 15.1362)
(7.28856e-16 2.79873 13.8771)
(6.81999e-16 2.7575 12.5996)
(8.68787e-16 2.65024 11.3491)
(1.30364e-15 2.52341 10.1477)
(4.19805e-15 2.3998 9.00534)
(1.1802e-14 2.29092 7.92496)
(1.6345e-14 2.20352 6.90343)
(2.37109e-14 2.14232 5.9322)
(1.6207e-14 2.11047 4.99699)
(3.74924e-15 2.10725 4.07904)
(-2.03008e-15 2.12593 3.15736)
(6.80366e-15 2.15224 2.21051)
(-7.15185e-15 2.1459 1.22555)
(-1.38037e-16 2.07887 0.17828)
(-4.43721e-14 2.12988 -0.985821)
(-5.17861e-14 2.03649 -1.56486)
(-5.62127e-14 1.33862 -1.78006)
(-2.2045e-14 0.590709 -1.9286)
(-3.05555e-14 0.0417132 -2.00623)
(-3.86769e-14 -0.423434 -1.98894)
(-3.18632e-14 -0.814506 -1.80009)
(-2.96133e-14 -1.1675 -1.49586)
(-3.43458e-14 -1.38515 -1.03274)
(-2.96164e-14 -1.37077 -0.511289)
(2.09046e-15 -1.07321 -0.0732679)
(-5.70688e-15 -0.622947 0.0939507)
(4.51092e-14 -0.350387 -0.131943)
(-7.86279e-15 -0.399454 -0.358308)
(-1.82469e-14 -0.628079 -0.0887805)
(-3.84091e-14 -0.906578 0.388824)
(-4.22024e-14 -1.17791 0.913226)
(-4.21565e-16 -1.42161 1.46386)
(2.57096e-14 -1.62092 2.01942)
(1.90979e-14 -1.76016 2.57038)
(7.06622e-15 -1.83034 3.11025)
(4.51492e-15 -1.82971 3.62586)
(-1.50685e-15 -1.76737 4.08978)
(-7.88047e-15 -1.66904 4.46619)
(-7.24409e-15 -1.57809 4.731)
(-3.78457e-15 -1.54558 4.89443)
(-2.89803e-16 -1.62304 5.01878)
(-2.06232e-15 -1.85738 5.21938)
(-3.27687e-15 -2.26639 5.59629)
(-5.88026e-16 -2.81417 6.13376)
(4.20653e-15 -3.41654 6.71047)
(8.54419e-15 -3.99149 7.22463)
(1.14126e-14 -4.48544 7.68219)
(1.17357e-14 -4.8032 8.15724)
(9.32078e-15 -4.83088 8.85988)
(5.07031e-15 -4.35471 9.99701)
(3.12197e-15 -3.04747 11.3673)
(7.02896e-15 -1.05035 12.7089)
(6.49933e-15 1.37541 13.5513)
(4.58268e-15 2.73156 13.0211)
(8.64181e-16 2.88552 12.1409)
(-2.87786e-15 2.22676 10.7585)
(-2.65394e-16 0.559858 12.1431)
(9.59805e-16 0.508394 11.2839)
(-2.89131e-16 0.511936 10.4999)
(1.75762e-15 0.533037 9.74291)
(3.19835e-15 0.563529 8.96343)
(9.65838e-16 0.608999 8.173)
(3.32122e-15 0.658906 7.40081)
(3.935e-15 0.694159 6.65344)
(1.92337e-15 0.706368 5.87773)
(1.99669e-15 0.663098 5.05677)
(1.46808e-15 0.55232 4.28382)
(9.42908e-16 0.457481 3.58334)
(5.80713e-15 0.172137 3.12615)
(3.7937e-15 -0.294181 3.24913)
(-3.49818e-15 -0.658289 4.12285)
(-6.9779e-15 -0.872515 5.08749)
(-7.70474e-15 -0.980255 5.9945)
(-7.37769e-15 -1.03958 6.82053)
(-8.84595e-15 -1.08762 7.58137)
(-6.89335e-15 -1.14604 8.30846)
(-2.2074e-15 -1.2236 9.03949)
(-5.59243e-16 -1.31656 9.80817)
(2.03082e-15 -1.4114 10.6311)
(5.30235e-15 -1.49123 11.4996)
(5.02993e-15 -1.54372 12.3851)
(4.73859e-15 -1.56455 13.2539)
(4.77211e-15 -1.55554 14.0783)
(7.94776e-15 -1.52055 14.8407)
(6.88823e-15 -1.4607 15.5302)
(7.52749e-15 -1.37326 16.1362)
(1.17848e-14 -1.25516 16.6432)
(1.01166e-14 -1.10802 17.0329)
(1.26633e-14 -0.939702 17.2882)
(1.40543e-14 -0.767608 17.3992)
(1.45716e-14 -0.618026 17.3719)
(1.38922e-14 -0.51644 17.2299)
(1.66417e-14 -0.479104 17.0062)
(1.87271e-14 -0.497092 16.7421)
(1.95645e-14 -0.495726 16.4898)
(1.64703e-14 -0.279427 16.3195)
(9.46493e-15 0.466558 16.1719)
(3.98002e-15 1.58766 15.7529)
(4.93322e-15 2.47336 14.8897)
(1.14729e-15 2.92425 13.7879)
(4.91566e-16 3.05659 12.6069)
(2.87746e-16 3.02023 11.4195)
(2.87034e-16 2.91065 10.2581)
(3.60535e-17 2.77748 9.13956)
(2.34882e-15 2.64537 8.0731)
(8.49176e-15 2.52736 7.06221)
(1.3054e-14 2.4317 6.1049)
(2.24841e-14 2.36474 5.19345)
(2.08403e-14 2.33126 4.3135)
(9.08146e-15 2.33164 3.44519)
(-1.83254e-15 2.35972 2.56574)
(5.13742e-15 2.4011 1.651)
(-1.41989e-14 2.41795 0.685721)
(-4.45573e-15 2.37541 -0.398752)
(-5.5884e-14 2.35534 -1.51346)
(-6.18822e-14 2.11678 -1.91098)
(-5.58836e-14 1.37412 -2.06194)
(-2.64736e-14 0.613196 -2.24074)
(-3.85022e-14 0.0353421 -2.31708)
(-3.55291e-14 -0.463327 -2.29571)
(-2.55435e-14 -0.898996 -2.11737)
(-2.77866e-14 -1.2957 -1.83088)
(-2.35992e-14 -1.5439 -1.40087)
(-2.19756e-14 -1.51898 -0.936)
(2.14335e-15 -1.14634 -0.602568)
(-7.02876e-15 -0.58173 -0.573435)
(3.28921e-14 -0.330398 -0.799095)
(-1.45388e-14 -0.49406 -0.747538)
(-1.8812e-14 -0.792325 -0.377026)
(-3.90628e-14 -1.08677 0.0788688)
(-4.08854e-14 -1.35768 0.540164)
(2.01399e-14 -1.6066 1.00524)
(1.72155e-14 -1.81125 1.47909)
(5.71528e-15 -1.95601 1.97349)
(2.7607e-15 -2.02888 2.4896)
(3.55949e-15 -2.02126 3.00648)
(-3.21914e-16 -1.9364 3.47937)
(-1.20273e-14 -1.80106 3.85453)
(-1.0893e-14 -1.66929 4.09732)
(1.44108e-15 -1.61072 4.21903)
(-2.22175e-15 -1.69873 4.29907)
(-4.17322e-15 -1.98698 4.47826)
(-3.87431e-15 -2.46301 4.84994)
(1.07318e-15 -3.04694 5.36179)
(7.55147e-15 -3.64114 5.87964)
(1.11289e-14 -4.18254 6.31352)
(1.28349e-14 -4.65382 6.65835)
(8.55125e-15 -5.00341 6.91748)
(-3.87126e-16 -5.14742 7.23709)
(-7.76203e-15 -4.86541 7.87267)
(-5.83086e-15 -3.6545 8.74346)
(-2.21611e-15 -1.57466 9.85377)
(3.47811e-15 1.26643 10.8689)
(3.9614e-15 2.96707 10.516)
(1.1815e-15 3.20753 9.79052)
(-2.54831e-15 2.46759 8.578)
(-9.95125e-17 0.617138 11.7085)
(-3.14e-16 0.563439 10.8429)
(-5.02965e-17 0.57079 10.0511)
(1.71918e-15 0.595544 9.28257)
(1.34723e-15 0.628989 8.49307)
(8.15683e-16 0.676043 7.70142)
(2.82112e-15 0.726762 6.93344)
(4.10829e-15 0.765099 6.17855)
(5.65004e-15 0.784153 5.3729)
(6.3708e-15 0.743533 4.52185)
(7.78117e-15 0.621867 3.76284)
(1.59208e-14 0.515673 3.09052)
(1.25842e-14 0.179995 2.61435)
(-2.85924e-15 -0.383603 2.94513)
(-6.28051e-15 -0.79323 3.95978)
(-6.98479e-15 -1.00815 4.93735)
(-6.51969e-15 -1.1073 5.81182)
(-3.96033e-15 -1.15925 6.59469)
(-5.50751e-15 -1.2038 7.31238)
(-2.99258e-15 -1.26394 8.0001)
(-8.77477e-16 -1.34875 8.69844)
(1.30052e-15 -1.45291 9.44261)
(3.12892e-15 -1.55948 10.2466)
(3.87876e-15 -1.64784 11.0956)