/*--------------------------------*- C++ -*----------------------------------*\
| =========                 |                                                 |
| \\      /  F ield         | OpenFOAM: The Open Source CFD Toolbox           |
|  \\    /   O peration     | Version:  4.1                                   |
|   \\  /    A nd           | Web:      www.OpenFOAM.org                      |
|    \\/     M anipulation  |                                                 |
\*---------------------------------------------------------------------------*/
FoamFile
{
    version     2.0;
    format      ascii;
    class       volScalarField;
    location    "500";
    object      p;
}
// * * * * * * * * * * * * * * * * * * * * * * * * * * * * * * * * * * * * * //

dimensions      [0 2 -2 0 0 0 0];

internalField   nonuniform List<scalar> 
26785
(
-38.9924
-32.12
-27.6309
-25.1408
-22.8568
-20.6773
-18.7981
-17.1457
-15.6432
-14.2755
-13.0314
-11.8928
-10.8438
-9.87233
-8.96936
-8.12659
-7.33765
-6.6007
-5.91994
-5.30441
-4.76969
-4.33348
-4.00039
-3.77203
-3.65113
-3.593
-3.61005
-3.73321
-3.82195
-3.81451
-3.80494
-3.7838
-3.82025
-4.01076
-4.46436
-5.27669
-6.53594
-8.32659
-10.7448
-13.9254
-17.9875
-22.9485
-28.664
-34.8376
-41.097
-47.1038
-52.5438
-56.8366
-59.0318
-58.4211
-54.4487
-47.6458
-39.3889
-30.8144
-22.5798
-15.041
-8.37726
-2.56288
2.31085
6.17615
9.46318
10.7038
9.19922
6.69512
4.59135
2.99561
1.78984
0.896183
0.2691
-0.121092
-0.290726
-0.240888
0.0385397
0.559323
1.3228
2.30914
3.48483
4.81533
6.27361
7.83558
9.4649
11.1058
12.6893
14.155
15.4689
16.6484
17.7135
18.6599
19.3656
19.7123
19.5992
18.9557
17.7438
15.9889
13.7394
11.2388
8.36136
6.19326
1.76977
4.46643
-38.9832
-32.1088
-27.6276
-25.1405
-22.8576
-20.6798
-18.8017
-17.1499
-15.6477
-14.2803
-13.0361
-11.8974
-10.848
-9.87626
-8.973
-8.13007
-7.34116
-6.60448
-5.92425
-5.30949
-4.77577
-4.34072
-4.0088
-3.78161
-3.66274
-3.60723
-3.62612
-3.74847
-3.82939
-3.81482
-3.80744
-3.78978
-3.83071
-4.02662
-4.48717
-5.30773
-6.57682
-8.37879
-10.8096
-14.0051
-18.0846
-23.0642
-28.7964
-34.9824
-41.2486
-47.2568
-52.698
-57.0064
-59.23
-58.6683
-54.7202
-47.8974
-39.6103
-31.0122
-22.7624
-15.2159
-8.55152
-2.74355
2.10796
5.92266
9.10711
10.3274
8.88222
6.48531
4.48265
2.93163
1.74599
0.862572
0.241306
-0.145744
-0.314458
-0.265175
0.0135162
0.534253
1.29825
2.28424
3.45764
4.78485
6.24288
7.81153
9.44975
11.0841
12.6323
14.0561
15.3618
16.5427
17.6037
18.5252
19.1959
19.5038
19.3515
18.67
17.4221
15.6348
13.3591
10.8424
7.97854
5.84037
1.62904
4.1135
-38.9817
-32.0912
-27.6256
-25.1438
-22.8619
-20.6865
-18.8102
-17.1592
-15.6575
-14.2902
-13.0459
-11.9067
-10.8567
-9.8843
-8.98057
-8.13756
-7.34903
-6.61322
-5.93429
-5.32119
-4.78939
-4.35643
-4.0267
-3.80181
-3.6869
-3.6365
-3.65876
-3.77832
-3.84069
-3.81644
-3.81512
-3.80498
-3.85513
-4.06195
-4.5362
-5.3726
-6.66034
-8.48344
-10.937
-14.1577
-18.2646
-23.2704
-29.0236
-35.2219
-41.4878
-47.4819
-52.9044
-57.2226
-59.4925
-59.0172
-55.1325
-48.3035
-39.9882
-31.3664
-23.1009
-15.5476
-8.8858
-3.09127
1.72308
5.46636
8.45348
9.55989
8.26484
6.13813
4.29798
2.81957
1.66778
0.802031
0.190937
-0.190664
-0.35803
-0.31035
-0.0341956
0.484799
1.24827
2.23277
3.40223
4.72333
6.17621
7.74406
9.382
11.0028
12.5174
13.9072
15.1875
16.358
17.4033
18.2819
18.8949
19.1381
18.919
18.1714
16.8617
15.0197
12.7027
10.1616
7.33109
5.24341
1.41942
3.5241
-38.9832
-32.0571
-27.6167
-25.1455
-22.8665
-20.6954
-18.822
-17.1722
-15.6713
-14.3043
-13.0598
-11.92
-10.8691
-9.89586
-8.99157
-8.1486
-7.36088
-6.62668
-5.95006
-5.33979
-4.81105
-4.3812
-4.05465
-3.83322
-3.72412
-3.68054
-3.70603
-3.82121
-3.85486
-3.82544
-3.8335
-3.83366
-3.89688
-4.11928
-4.61237
-5.47
-6.7826
-8.63385
-11.117
-14.3685
-18.5066
-23.5401
-29.313
-35.5204
-41.7799
-47.7506
-53.1448
-57.4683
-59.7899
-59.4146
-55.6181
-48.8013
-40.47
-31.8334
-23.558
-16.0032
-9.34944
-3.57509
1.18724
4.84541
7.62803
8.62337
7.53008
5.72079
4.05684
2.66469
1.55627
0.714276
0.117289
-0.256424
-0.421271
-0.374851
-0.10136
0.415182
1.17717
2.15933
3.32503
4.64091
6.0873
7.64649
9.26909
10.8607
12.3387
13.6947
14.952
16.1071
17.124
17.9486
18.4899
18.6505
18.3433
17.5066
16.1118
14.1929
11.8174
9.23804
6.45335
4.4195
1.12943
2.7418
-38.9943
-32.0219
-27.61
-25.1504
-22.8743
-20.708
-18.8379
-17.1894
-15.6891
-14.3224
-13.0774
-11.9367
-10.8849
-9.91058
-9.00579
-8.16322
-7.37701
-6.64541
-5.97228
-5.36604
-4.84146
-4.41555
-4.09312
-3.8764
-3.77459
-3.73856
-3.76568
-3.87461
-3.8719
-3.84506
-3.86428
-3.87732
-3.95733
-4.19903
-4.71428
-5.59641
-6.93823
-8.82292
-11.3403
-14.6257
-18.7956
-23.854
-29.6419
-35.8529
-42.0979
-48.0341
-53.3883
-57.7079
-60.0787
-59.81
-56.1126
-49.3259
-41.0007
-32.3688
-24.098
-16.5522
-9.91486
-4.16859
0.527077
4.09173
6.71969
7.65579
6.77577
5.2583
3.76562
2.46727
1.41017
0.597746
0.0187761
-0.344749
-0.506113
-0.460671
-0.189801
0.323409
1.08232
2.06017
3.22067
4.53088
5.97012
7.51733
9.11779
10.6737
12.1131
13.4373
14.6717
15.8021
16.7804
17.5438
18.0055
18.0732
17.6655
16.7256
15.2311
13.2207
10.7755
8.14693
5.41725
3.43952
0.787594
1.84975
-38.9729
-31.9801
-27.6041
-25.1577
-22.8851
-20.7244
-18.8579
-17.2104
-15.7106
-14.3438
-13.0982
-11.9565
-10.9034
-9.92815
-9.02312
-8.18156
-7.39776
-6.66988
-6.00141
-5.40035
-4.88082
-4.45957
-4.14228
-3.93162
-3.83792
-3.80943
-3.8381
-3.93794
-3.89158
-3.87613
-3.90862
-3.93753
-4.0376
-4.30107
-4.84018
-5.74878
-7.12288
-9.04466
-11.5989
-14.9184
-19.1174
-24.1951
-29.991
-36.2
-42.4237
-48.3181
-53.6269
-57.9363
-60.3476
-60.1853
-56.5842
-49.8389
-41.5421
-32.9378
-24.689
-17.1654
-10.5546
-4.84573
-0.22607
3.249
5.77039
6.69069
6.02365
4.75992
3.43052
2.23077
1.23173
0.454434
-0.102529
-0.453416
-0.61016
-0.565247
-0.296627
0.213122
0.968154
1.94029
3.09359
4.39548
5.82391
7.35438
8.92808
10.4459
11.846
13.1402
14.3508
15.4502
16.383
17.0804
17.4573
17.4257
16.9092
15.8562
14.2518
12.139
9.61511
6.92673
4.25663
2.33789
0.396055
0.909755
-38.9108
-31.9288
-27.5961
-25.1646
-22.8966
-20.7426
-18.8803
-17.2341
-15.7348
-14.3679
-13.1215
-11.9787
-10.9245
-9.94842
-9.04367
-8.20399
-7.42373
-6.7007
-6.03793
-5.44292
-4.92907
-4.51307
-4.20215
-3.99875
-3.91309
-3.89182
-3.9228
-4.01494
-3.91557
-3.9184
-3.96709
-4.01491
-4.13763
-4.42442
-4.98836
-5.92478
-7.33313
-9.29371
-11.8849
-15.2364
-19.46
-24.5498
-30.3459
-36.5469
-42.7431
-48.5891
-53.8497
-58.1439
-60.5826
-60.5217
-57.0053
-50.3098
-42.0645
-33.5118
-25.3037
-17.8164
-11.2428
-5.58054
-1.03684
2.36816
4.81248
5.73958
5.27603
4.23255
3.0581
1.95889
1.02259
0.284803
-0.2468
-0.582991
-0.734214
-0.689538
-0.422975
0.0832775
0.834071
1.80002
2.94526
4.23702
5.65143
7.16097
8.70464
10.1843
11.5463
12.8111
13.9949
15.0587
15.9414
16.5699
16.8595
16.7252
16.0955
14.9237
13.2029
10.9803
8.37001
5.61089
2.99844
1.14729
-0.04133
-0.0144423
-38.8452
-31.8801
-27.5929
-25.1757
-22.9115
-20.7641
-18.9058
-17.2604
-15.7614
-14.3943
-13.147
-12.0031
-10.9479
-9.97137
-9.06766
-8.23097
-7.45545
-6.73836
-6.08209
-5.49366
-4.98588
-4.57582
-4.27258
-4.07729
-3.99869
-3.98368
-4.01697
-4.09448
-3.94872
-3.97422
-4.04027
-4.10949
-4.25681
-4.56804
-5.15759
-6.12271
-7.5659
-9.56489
-12.1912
-15.5707
-19.8131
-24.9071
-30.6947
-36.8824
-43.0459
-48.8389
-54.0528
-58.33
-60.7809
-60.8101
-57.3578
-50.7167
-42.5455
-34.0683
-25.9192
-18.482
-11.9557
-6.34659
-1.87112
1.49252
3.86683
4.81293
4.53383
3.68307
2.65488
1.65593
0.785382
0.0906721
-0.412554
-0.73205
-0.876759
-0.831938
-0.567414
-0.0648715
0.681114
1.64014
2.77623
4.05613
5.45379
6.93917
8.45069
9.89297
11.2189
12.4543
13.6085
14.633
15.4626
16.0204
16.2217
15.9832
15.2378
13.9439
12.1029
9.76472
7.05991
4.21607
1.64997
-0.117897
-0.533156
-0.868366
-38.773
-31.8206
-27.5859
-25.1862
-22.9274
-20.7875
-18.9333
-17.2887
-15.7898
-14.4224
-13.1743
-12.0294
-10.9735
-9.99722
-9.09551
-8.263
-7.49336
-6.78304
-6.13375
-5.55215
-5.05076
-4.64753
-4.35319
-4.16633
-4.09295
-4.08205
-4.11821
-4.1615
-3.99784
-4.04544
-4.128
-4.22056
-4.39407
-4.7308
-5.34666
-6.34085
-7.81824
-9.85354
-12.5111
-15.9137
-20.1688
-25.2583
-31.0279
-37.1969
-43.3236
-49.0603
-54.2323
-58.4938
-60.9398
-61.0417
-57.6274
-51.0443
-42.9692
-34.5898
-26.5166
-19.1419
-12.6717
-7.11795
-2.69616
0.639842
2.94114
3.91714
3.79892
3.11819
2.22697
1.32624
0.522991
-0.126056
-0.598544
-0.89975
-1.03714
-0.991764
-0.729191
-0.230351
0.510532
1.46209
2.58805
3.85447
5.23317
6.69205
8.17018
9.57622
10.8681
12.0738
13.1959
14.1785
14.953
15.4393
15.5517
15.2085
14.3463
12.9288
10.9652
8.50657
5.69751
2.74925
0.205127
-1.45768
-1.09519
-1.60922
-38.7026
-31.7615
-27.58
-25.1981
-22.9448
-20.8128
-18.9627
-17.3186
-15.8198
-14.4521
-13.2033
-12.0577
-11.0016
-10.0264
-9.12777
-8.30056
-7.53768
-6.83461
-6.19244
-5.61773
-5.12318
-4.72782
-4.44324
-4.26435
-4.19345
-4.18608
-4.22736
-4.23495
-4.06542
-4.12979
-4.2292
-4.34697
-4.54808
-4.91143
-5.5542
-6.57729
-8.08727
-10.1554
-12.8394
-16.2594
-20.5203
-25.5957
-31.3372
-37.4835
-43.5704
-49.2478
-54.3861
-58.6367
-61.0612
-61.2099
-57.8032
-51.2824
-43.324
-35.0625
-27.08
-19.779
-13.3689
-7.87209
-3.4828
-0.196053
2.04228
3.05341
3.07395
2.5439
1.77984
0.974023
0.238411
-0.36326
-0.803277
-1.08502
-1.21455
-1.16832
-0.907626
-0.412449
0.323168
1.26685
2.38185
3.63346
4.9915
6.42235
7.86657
9.23765
10.4973
11.6731
12.761
13.7
14.4181
14.8325
14.856
14.4076
13.4281
11.8863
9.79841
7.2152
4.28973
1.20881
-1.35455
-2.88584
-1.74594
-2.20904
-38.5999
-31.7016
-27.5769
-25.2117
-22.9639
-20.8398
-18.9936
-17.3499
-15.8511
-14.4833
-13.2339
-12.0881
-11.0326
-10.0594
-9.16502
-8.34399
-7.58833
-6.89261
-6.25742
-5.68969
-5.20265
-4.8162
-4.54143
-4.36906
-4.29829
-4.2974
-4.34339
-4.33323
-4.14919
-4.2252
-4.34266
-4.48728
-4.71732
-5.10844
-5.77853
-6.82987
-8.3701
-10.4667
-13.1715
-16.603
-20.8616
-25.9128
-31.618
-37.7383
-43.7816
-49.3954
-54.5116
-58.7593
-61.1512
-61.3093
-57.8775
-51.4249
-43.6026
-35.4759
-27.5961
-20.3771
-14.0311
-8.57826
-4.23133
-1.01378
1.17579
2.2216
2.36168
1.96534
1.31843
0.603335
-0.0652231
-0.61856
-1.02497
-1.28653
-1.40792
-1.36075
-1.1018
-0.610198
0.120123
1.05566
2.15905
3.39477
4.73093
6.13283
7.54319
8.8806
10.1097
11.2554
12.3077
13.2019
13.8631
14.2054
14.1399
13.5863
12.4888
10.8223
8.60909
5.89814
2.84234
-0.409839
-3.05385
-4.4238
-2.50803
-2.56348
-38.4539
-31.6331
-27.5715
-25.2238
-22.9825
-20.8672
-19.0253
-17.382
-15.8834
-14.5157
-13.2661
-12.1207
-11.0668
-10.0969
-9.20768
-8.39331
-7.64491
-6.95627
-6.32784
-5.76735
-5.28866
-4.91176
-4.64574
-4.4786
-4.40836
-4.41653
-4.4605
-4.442
-4.24515
-4.33025
-4.46696
-4.63986
-4.90012
-5.32011
-6.01775
-7.09624
-8.66374
-10.7838
-13.5036
-16.9397
-21.1871
-26.2057
-31.8686
-37.9571
-43.9493
-49.4953
-54.6055
-58.8607
-61.215
-61.3352
-57.8456
-51.4698
-43.8002
-35.8218
-28.0545
-20.9209
-14.6431
-9.21641
-4.95195
-1.80222
0.344169
1.42161
1.66465
1.38687
0.8472
0.218053
-0.384837
-0.889607
-1.26189
-1.50301
-1.61626
-1.56824
-1.31088
-0.822686
-0.0975494
0.829735
1.92105
3.1401
4.45359
5.82615
7.20307
8.5082
9.70797
10.8235
11.8395
12.6885
13.2928
13.5632
13.4087
12.7491
11.5329
9.7415
7.40305
4.5645
1.36598
-2.10454
-4.91204
-6.10055
-3.46069
-2.46102
-38.306
-31.5663
-27.5682
-25.2365
-23.0014
-20.8951
-19.0574
-17.4146
-15.9165
-14.5491
-13.2998
-12.1557
-11.1046
-10.1391
-9.25579
-8.44818
-7.70669
-7.0247
-6.40289
-5.85009
-5.38054
-5.01293
-4.75445
-4.59329
-4.52518
-4.54099
-4.57893
-4.5406
-4.35009
-4.44331
-4.6005
-4.80294
-5.09462
-5.54455
-6.26981
-7.37393
-8.96511
-11.1032
-13.8321
-17.2648
-21.4925
-26.4731
-32.0868
-38.1321
-44.0658
-49.5462
-54.6695
-58.9433
-61.2474
-61.2781
-57.7057
-51.418
-43.9145
-36.0942
-28.4447
-21.4044
-15.1762
-9.79892
-5.63933
-2.55559
-0.451445
0.653508
0.985009
0.812157
0.370151
-0.178199
-0.717478
-1.17412
-1.51227
-1.73305
-1.83843
-1.7898
-1.53388
-1.04886
-0.328677
0.590411
1.6694
2.8713
4.16172
5.50496
6.84912
8.12333
9.29501
10.3806
11.3601
12.1639
12.7117
12.9107
12.6671
11.9007
10.5645
8.64886
6.18811
3.23077
-0.110977
-3.83618
-6.86897
-7.7751
-4.54682
-2.403
-38.1542
-31.4914
-27.5624
-25.2481
-23.0201
-20.9232
-19.0899
-17.4477
-15.9503
-14.5836
-13.3352
-12.1931
-11.146
-10.1859
-9.30896
-8.50786
-7.77271
-7.09695
-6.48184
-5.93726
-5.47721
-5.11787
-4.86786
-4.71412
-4.64817
-4.66843
-4.69528
-4.61104
-4.46056
-4.56266
-4.74174
-4.97477
-5.2989
-5.77971
-6.53254
-7.66043
-9.27124
-11.4218
-14.1528
-17.5739
-21.7756
-26.7138
-32.2669
-38.257
-44.1374
-49.5582
-54.7088
-59.0106
-61.2451
-61.1279
-57.4593
-51.2724
-43.9443
-36.2878
-28.7596
-21.8128
-15.6185
-10.337
-6.28669
-3.27245
-1.2105
-0.0826968
0.324516
0.244267
-0.109154
-0.582058
-1.06033
-1.46984
-1.7743
-1.97518
-2.07324
-2.02437
-1.76975
-1.28754
-0.571961
0.339144
1.40577
2.5903
3.85758
5.17187
6.48412
7.72873
8.87346
9.92943
10.8726
11.6319
12.124
12.2524
11.9196
11.0452
9.58818
7.55071
4.97813
1.93221
-1.50815
-5.41768
-8.5024
-8.71296
-5.38459
-3.18654
-38.0046
-31.4133
-27.5556
-25.2588
-23.0384
-20.9515
-19.1228
-17.4813
-15.9849
-14.6193
-13.3723
-12.2332
-11.191
-10.2371
-9.36645
-8.57135
-7.84196
-7.17222
-6.56398
-6.02808
-5.57702
-5.22624
-4.9874
-4.84034
-4.77619
-4.79808
-4.79998
-4.65726
-4.57289
-4.68674
-4.88928
-5.15363
-5.51095
-6.0234
-6.80363
-7.95317
-9.5794
-11.7365
-14.4618
-17.8635
-22.036
-26.9247
-32.4038
-38.3382
-44.1793
-49.5243
-54.7052
-59.044
-61.2139
-60.8844
-57.1132
-51.0374
-43.8889
-36.3984
-28.994
-22.1187
-15.9812
-10.83
-6.89223
-3.95251
-1.93282
-0.7871
-0.315459
-0.31423
-0.587581
-0.990435
-1.41072
-1.77459
-2.04613
-2.22778
-2.31932
-2.2707
-2.0172
-1.53736
-0.825907
0.0775802
1.13201
2.2992
3.54356
4.82951
6.11084
7.32708
8.44593
9.47294
10.3805
11.0962
11.534
11.5927
11.1707
10.1871
8.60897
6.45693
3.79983
0.745517
-2.61841
-6.35639
-9.02895
-8.71636
-5.90088
-4.18342
-37.8363
-31.334
-27.5499
-25.2693
-23.0566
-20.9801
-19.156
-17.5156
-16.0206
-14.6566
-13.4116
-12.2763
-11.2396
-10.2919
-9.42728
-8.63757
-7.91354
-7.24975
-6.64859
-6.12127
-5.67891
-5.33986
-5.1127
-4.97027
-4.90834
-4.92934
-4.89694
-4.71508
-4.68514
-4.81442
-5.04191
-5.33798
-5.72884
-6.27345
-7.08069
-8.24965
-9.88718
-12.0442
-14.7551
-18.1322
-22.2728
-27.1001
-32.4978
-38.391
-44.1844
-49.3972
-54.6164
-59.0226
-61.1554
-60.5525
-56.6749
-50.7175
-43.7493
-36.42
-29.129
-22.3121
-16.2754
-11.2773
-7.45652
-4.59571
-2.61856
-1.45994
-0.93388
-0.86121
-1.0624
-1.4005
-1.76606
-2.08617
-2.32586
-2.48915
-2.57513
-2.52734
-2.27471
-1.79668
-1.08878
-0.192409
0.850168
2.00028
3.22215
4.4806
5.73211
6.9211
8.01511
9.01405
9.88707
10.5606
10.9457
10.9361
10.425
9.33088
7.63387
5.38386
2.70253
-0.188505
-3.13988
-6.333
-8.51361
-7.98468
-5.63669
-4.46725
-37.6394
-31.2475
-27.5423
-25.2781
-23.074
-21.0085
-19.1894
-17.5503
-16.0574
-14.6957
-13.4535
-12.3224
-11.2912
-10.3496
-9.49038
-8.70553
-7.98663
-7.32879
-6.73498
-6.2155
-5.78426
-5.45916
-5.24175
-5.10272
-5.04383
-5.06195
-4.99535
-4.80147
-4.7977
-4.9453
-5.19846
-5.52638
-5.95081
-6.52773
-7.36126
-8.54747
-10.1923
-12.342
-15.0301
-18.3797
-22.4834
-27.2343
-32.5569
-38.4232
-44.1168
-49.144
-54.4815
-59.0091
-61.0715
-60.1402
-56.1581
-50.3125
-43.5144
-36.336
-29.1455
-22.4033
-16.5097
-11.6809
-7.9808
-5.20215
-3.26816
-2.10157
-1.53
-1.39493
-1.53126
-1.80964
-2.12387
-2.4024
-2.61155
-2.75749
-2.83892
-2.79248
-2.5404
-2.06355
-1.35855
-0.46869
0.562536
1.69602
2.89603
4.12795
5.35083
6.51367
7.58386
8.55577
9.39557
10.0288
10.3632
10.287
9.68706
8.48224
6.67307
4.35805
1.76222
-0.733549
-3.09406
-5.71373
-7.30463
-6.76556
-5.13437
-4.39534
-37.4459
-31.1604
-27.5349
-25.2857
-23.0906
-21.0364
-19.2225
-17.5851
-16.0951
-14.7368
-13.4981
-12.3713
-11.3454
-10.4091
-9.55474
-8.7744
-8.06042
-7.40864
-6.8219
-6.31136
-5.89445
-5.58247
-5.37285
-5.23698
-5.18221
-5.19424
-5.09351
-4.90161
-4.91117
-5.07909
-5.35785
-5.71736
-6.175
-6.78391
-7.64266
-8.84413
-10.4924
-12.6266
-15.2855
-18.6068
-22.6637
-27.3257
-32.5926
-38.4292
-43.9501
-48.8166
-54.4193
-59.0557
-60.9385
-59.6149
-55.5406
-49.7984
-43.1602
-36.1299
-29.0427
-22.4085
-16.6924
-12.0433
-8.46647
-5.77225
-3.88236
-2.71248
-2.10333
-1.91399
-1.99212
-2.21549
-2.48174
-2.72105
-2.90114
-3.03074
-3.10855
-3.0639
-2.81198
-2.33565
-1.63287
-0.748849
0.271643
1.3891
2.56801
3.77451
4.96999
6.10781
7.15519
8.10125
8.90945
9.50448
9.7907
9.65017
8.96222
7.64818
5.74194
3.41886
1.04637
-0.91553
-2.71964
-4.88441
-6.13986
-5.666
-4.77488
-4.38474
-37.2548
-31.0673
-27.5261
-25.2922
-23.1067
-21.064
-19.2553
-17.6199
-16.1335
-14.7796
-13.5451
-12.4226
-11.4012
-10.4695
-9.6195
-8.84336
-8.13428
-7.48873
-6.90871
-6.41063
-6.00852
-5.70807
-5.50486
-5.37255
-5.32275
-5.32467
-5.19032
-5.00174
-5.02591
-5.21575
-5.51944
-5.90959
-6.39976
-7.03999
-7.92265
-9.13747
-10.7845
-12.8952
-15.5213
-18.8132
-22.8093
-27.3788
-32.6153
-38.397
-43.6901
-48.4899
-54.3787
-58.96
-60.6396
-58.9075
-54.7671
-49.1478
-42.6809
-35.8027
-28.833
-22.3439
-16.8309
-12.3672
-8.91504
-6.30673
-4.46208
-3.29329
-2.65357
-2.41725
-2.44325
-2.6159
-2.8373
-3.03982
-3.19237
-3.30656
-3.38151
-3.33889
-3.08671
-2.61027
-1.90908
-1.03021
-0.0197694
1.08237
2.24108
3.42333
4.59271
5.70667
6.73225
7.65373
8.43217
8.9915
9.23245
9.03056
8.25634
6.83821
4.8635
2.60772
0.568226
-0.781372
-2.25228
-4.15444
-5.23619
-4.86397
-4.43944
-4.36039
-37.0701
-30.9707
-27.5159
-25.2975
-23.1223
-21.0915
-19.2879
-17.6545
-16.1723
-14.8237
-13.5939
-12.4753
-11.4576
-10.5299
-9.68392
-8.91166
-8.20771
-7.5678
-6.99718
-6.51338
-6.12479
-5.83478
-5.63703
-5.50876
-5.46433
-5.45435
-5.29038
-5.09687
-5.14279
-5.35596
-5.6836
-6.10289
-6.62514
-7.29666
-8.20274
-9.42937
-11.0696
-13.1492
-15.7404
-18.997
-22.9165
-27.4006
-32.6238
-38.3074
-43.3509
-48.156
-54.1962
-58.5801
-59.9813
-57.9643
-53.8376
-48.3718
-42.0869
-35.3643
-28.5323
-22.2229
-16.9314
-12.6547
-9.32813
-6.80662
-5.00841
-3.8447
-3.18064
-2.90384
-2.88323
-3.00899
-3.18829
-3.35636
-3.48291
-3.58241
-3.65487
-3.61416
-3.36133
-2.8843
-2.1842
-1.30987
-0.30881
0.778796
1.91829
3.07753
4.22214
5.31342
6.31825
7.21654
7.96728
8.49378
8.6929
8.43359
7.57622
6.06551
4.06633
1.93963
0.364231
-0.478632
-1.86183
-3.47532
-4.4212
-4.15706
-4.02415
-4.22827
-36.8781
-30.8747
-27.5069
-25.3023
-23.138
-21.1191
-19.3205
-17.6893
-16.2117
-14.8687
-13.6435
-12.5283
-11.5138
-10.5896
-9.74723
-8.97903
-8.2796
-7.64648
-7.08823
-6.61816
-6.24208
-5.96181
-5.76883
-5.64485
-5.60655
-5.58451
-5.39291
-5.19
-5.26352
-5.50054
-5.85124
-6.29848
-6.85254
-7.55558
-8.48571
-9.724
-11.3528
-13.3967
-15.9512
-19.1585
-22.983
-27.392
-32.6011
-38.1377
-42.941
-47.7861
-53.8129
-57.8719
-58.9341
-56.8231
-52.7832
-47.4926
-41.3927
-34.8275
-28.1558
-22.0569
-16.9988
-12.9083
-9.7075
-7.27322
-5.52258
-4.36753
-3.68458
-3.37309
-3.31091
-3.39307
-3.53243
-3.66815
-3.77039
-3.85565
-3.92535
-3.88589
-3.63211
-3.15431
-2.45508
-1.58485
-0.592539
0.481348
1.60268
2.74022
3.86147
4.93119
5.91638
6.79302
7.51833
8.01526
8.17664
7.86506
6.92997
5.34757
3.3701
1.47319
0.495704
-0.237244
-1.48734
-2.84136
-3.66322
-3.48486
-3.57412
-4.02619
-36.6679
-30.7754
-27.4972
-25.3059
-23.1534
-21.1468
-19.3534
-17.7245
-16.2516
-14.9139
-13.6931
-12.5808
-11.569
-10.6479
-9.80892
-9.04475
-8.34975
-7.72632
-7.18102
-6.72379
-6.35959
-6.0886
-5.89989
-5.78039
-5.74941
-5.7153
-5.49737
-5.28897
-5.3907
-5.65026
-6.02293
-6.49693
-7.08183
-7.81579
-8.77043
-10.0203
-11.6345
-13.6414
-16.1572
-19.2977
-23.0111
-27.352
-32.5267
-37.874
-42.4723
-47.363
-53.2371
-56.8989
-57.646
-55.5495
-51.6387
-46.5307
-40.6093
-34.2021
-27.7166
-21.8557
-17.0373
-13.13
-10.055
-7.70795
-6.00589
-4.86268
-4.16561
-3.82455
-3.72532
-3.7666
-3.86741
-3.97273
-4.0526
-4.12369
-4.18941
-4.14967
-3.89491
-3.41662
-2.7185
-1.85218
-0.868085
0.192914
1.29715
2.41435
3.51388
4.56311
5.52963
6.38635
7.08885
7.5599
7.68839
7.33119
6.32737
4.70206
2.78542
1.30403
0.726335
-0.0214944
-1.11799
-2.28161
-2.99545
-2.88637
-3.1476
-3.79487
-36.4629
-30.6771
-27.4877
-25.308
-23.1682
-21.1742
-19.3865
-17.7602
-16.2918
-14.9588
-13.7416
-12.6318
-11.6224
-10.7043
-9.869
-9.10779
-8.41947
-7.80736
-7.27449
-6.82952
-6.47682
-6.21473
-6.03001
-5.91529
-5.89241
-5.84617
-5.6052
-5.40158
-5.52643
-5.80599
-6.19902
-6.69803
-7.31208
-8.0758
-9.05479
-10.3152
-11.9124
-13.8832
-16.3564
-19.4136
-23.0077
-27.28
-32.3816
-37.5103
-41.9553
-46.8913
-52.5022
-55.7655
-56.2467
-54.2005
-50.4299
-45.4936
-39.737
-33.4954
-27.2274
-21.628
-17.0505
-13.3225
-10.3727
-8.11238
-6.45966
-5.33112
-4.62406
-4.25791
-4.12567
-4.12833
-4.19138
-4.26814
-4.32808
-4.38453
-4.44334
-4.40067
-4.1454
-3.66754
-2.97133
-2.10907
-1.13278
-0.0838959
1.00431
2.10264
3.18232
4.21211
5.16085
5.99953
6.68221
7.13155
7.23286
6.83855
5.77948
4.13548
2.36809
1.41674
0.92186
0.20928
-0.763702
-1.78172
-2.41948
-2.37332
-2.75347
-3.53262
-36.2627
-30.5772
-27.4783
-25.309
-23.1822
-21.2008
-19.4194
-17.796
-16.3315
-15.0024
-13.7884
-12.6809
-11.6736
-10.7586
-9.92622
-9.16904
-8.48963
-7.8888
-7.36795
-6.93487
-6.59342
-6.33984
-6.15908
-6.04962
-6.03486
-5.97645
-5.7166
-5.53014
-5.67193
-5.96861
-6.37998
-6.90189
-7.54291
-8.33484
-9.3375
-10.607
-12.186
-14.1224
-16.5475
-19.5078
-22.981
-27.1748
-32.1511
-37.0393
-41.3798
-46.3518
-51.6611
-54.5606
-54.8095
-52.8029
-49.1565
-44.3708
-38.7717
-32.7174
-26.7019
-21.3813
-17.0415
-13.488
-10.6625
-8.48809
-6.88528
-5.77388
-5.06042
-4.67306
-4.51138
-4.47736
-4.50313
-4.55298
-4.59595
-4.63685
-4.68366
-4.63375
-4.37926
-3.90349
-3.21065
-2.35302
-1.38437
-0.346931
0.726363
1.8075
2.86914
3.88067
4.81271
5.63531
6.30154
6.73378
6.81462
6.39415
5.29503
3.65114
2.21742
1.6176
1.12571
0.451392
-0.420951
-1.32065
-1.90873
-1.9242
-2.38377
-3.23198
-36.0696
-30.4767
-27.4685
-25.309
-23.1957
-21.2266
-19.4515
-17.8311
-16.3701
-15.0441
-13.833
-12.7275
-11.7224
-10.8102
-9.98029
-9.22964
-8.55982
-7.97008
-7.46097
-7.03957
-6.70914
-6.46365
-6.28699
-6.18357
-6.17609
-6.10664
-5.83655
-5.67367
-5.82795
-6.13884
-6.56636
-7.10876
-7.77414
-8.59228
-9.61721
-10.8936
-12.4545
-14.3583
-16.7287
-19.5837
-22.9383
-27.0345
-31.8304
-36.4635
-40.728
-45.7047
-50.6944
-53.2895
-53.3334
-51.3396
-47.795
-43.1475
-37.7172
-31.8851
-26.1546
-21.1223
-17.0134
-13.6292
-10.9264
-8.83667
-7.2841
-6.19202
-5.47528
-5.0701
-4.88208
-4.81328
-4.80238
-4.82652
-4.85515
-4.87984
-4.90786
-4.84352
-4.59249
-4.12123
-3.43394
-2.58203
-1.62113
-0.594518
0.465173
1.53079
2.57577
3.57053
4.48742
5.29599
5.94954
6.36972
6.43796
6.00499
4.87236
3.28052
2.30784
1.82448
1.34634
0.696901
-0.0857027
-0.890173
-1.44356
-1.5225
-2.04098
-2.89961
-35.8734
-30.3804
-27.4604
-25.3084
-23.2091
-21.2515
-19.4824
-17.8647
-16.4067
-15.0834
-13.8748
-12.7712
-11.7687
-10.8579
-10.0324
-9.28976
-8.62959
-8.05083
-7.55328
-7.1434
-6.82378
-6.58594
-6.41364
-6.31728
-6.31577
-6.23844
-5.97244
-5.8309
-5.99478
-6.31717
-6.7586
-7.31895
-8.00586
-8.84786
-9.89297
-11.174
-12.7173
-14.5894
-16.8987
-19.6454
-22.8844
-26.8591
-31.427
-35.798
-39.987
-44.9014
-49.5463
-51.8856
-51.7642
-49.7734
-46.3262
-41.827
-36.5947
-31.0222
-25.5995
-20.856
-16.9686
-13.7483
-11.1661
-9.15967
-7.65746
-6.58661
-5.86937
-5.44934
-5.23765
-5.13591
-5.08935
-5.08883
-5.10521
-5.11316
-5.11308
-5.02447
-4.78156
-4.31823
-3.63936
-2.7947
-1.8418
-0.825281
0.222113
1.27356
2.30298
3.28245
4.18619
4.9833
5.62839
6.0418
6.10694
5.67607
4.50122
3.10322
2.49424
2.04695
1.5711
0.948217
0.240748
-0.490996
-1.01882
-1.16524
-1.7334
-2.54814
-35.6607
-30.2852
-27.4531
-25.3074
-23.2226
-21.2754
-19.5115
-17.896
-16.4405
-15.1198
-13.9135
-12.8125
-11.8113
-10.9026
-10.0835
-9.34912
-8.69867
-8.13085
-7.64472
-7.24623
-6.93717
-6.70656
-6.53895
-6.45074
-6.45447
-6.37333
-6.12381
-6.0006
-6.17208
-6.50373
-6.95699
-7.53275
-8.23828
-9.10148
-10.1641
-11.4473
-12.9736
-14.8139
-17.0569
-19.696
-22.8219
-26.6515
-30.96
-35.0691
-39.1558
-43.9151
-48.182
-50.2891
-50.0592
-48.0924
-44.7624
-40.4385
-35.4379
-30.1534
-25.0478
-20.586
-16.9095
-13.8477
-11.3835
-9.45858
-8.00667
-6.9587
-6.24348
-5.8113
-5.57816
-5.44501
-5.36472
-5.3422
-5.34703
-5.33458
-5.29601
-5.17554
-4.94384
-4.49326
-3.82588
-2.99005
-2.04533
-1.03826
-0.00234096
1.03575
2.05078
3.01684
3.90975
4.69832
5.33956
5.75157
5.82546
5.40526
4.18458
3.13616
2.7106
2.28082
1.79354
1.20516
0.555649
-0.122077
-0.63312
-0.851375
-1.46402
-2.1874
-35.4529
-30.1937
-27.446
-25.3054
-23.236
-21.2983
-19.5383
-17.9242
-16.4713
-15.153
-13.9493
-12.8506
-11.8496
-10.9454
-10.1335
-9.40755
-8.76692
-8.21
-7.73517
-7.34793
-7.04914
-6.82542
-6.66296
-6.5839
-6.59301
-6.51199
-6.28565
-6.18112
-6.35894
-6.69822
-7.16155
-7.75034
-8.47165
-9.35318
-10.4301
-11.7131
-13.2229
-15.0301
-17.2031
-19.7376
-22.7512
-26.4172
-30.4535
-34.3076
-38.2535
-42.7657
-46.6291
-48.5183
-48.237
-46.331
-43.1471
-39.0259
-34.2815
-29.2985
-24.507
-20.3147
-16.8382
-13.9293
-11.58
-9.73482
-8.33297
-7.30928
-6.5984
-6.1566
-5.90393
-5.74083
-5.62974
-5.58916
-5.58205
-5.54496
-5.46119
-5.30383
-5.08002
-4.64629
-3.99283
-3.16722
-2.23105
-1.23351
-0.208803
0.816711
1.81886
2.7737
3.65827
4.44144
5.08363
5.49961
5.59678
5.1795
3.96449
3.29113
2.94845
2.51493
2.01943
1.46501
0.858055
0.220284
-0.283104
-0.576076
-1.22851
-1.82502
-35.2506
-30.1043
-27.4393
-25.3024
-23.249
-21.3193
-19.562
-17.949
-16.4989
-15.1829
-13.9824
-12.8837
-11.8848
-10.9867
-10.1823
-9.46499
-8.83426
-8.28821
-7.82454
-7.44838
-7.15955
-6.94248
-6.78583
-6.71686
-6.7319
-6.6546
-6.45469
-6.37022
-6.55389
-6.89989
-7.37197
-7.97167
-8.70618
-9.60303
-10.6908
-11.9713
-13.4645
-15.2367
-17.3376
-19.7717
-22.6723
-26.1627
-29.929
-33.5407
-37.3102
-41.5117
-44.9691
-46.6574
-46.3655
-44.5496
-41.5321
-37.6297
-33.152
-28.47
-23.9812
-20.0435
-16.7565
-13.9952
-11.7573
-9.98973
-8.63755
-7.63932
-6.93488
-6.48593
-6.21574
-6.02434
-5.88517
-5.83038
-5.81024
-5.74282
-5.6174
-5.41915
-5.19556
-4.77808
-4.1399
-3.32597
-2.39958
-1.41201
-0.398362
0.615482
1.60667
2.55255
3.43134
4.21235
4.86026
5.28577
5.42151
4.9801
3.88438
3.50172
3.18978
2.73682
2.24933
1.72325
1.14697
0.538067
0.0342165
-0.333492
-1.0187
-1.46915
-35.0547
-30.0169
-27.4324
-25.2983
-23.2611
-21.3376
-19.5821
-17.9703
-16.523
-15.2103
-14.0113
-12.9121
-11.9179
-11.0267
-10.2299
-9.52141
-8.90064
-8.36541
-7.91276
-7.54748
-7.26831
-7.05778
-6.90783
-6.84987
-6.87138
-6.80086
-6.62887
-6.5653
-6.75503
-7.10757
-7.58758
-8.19649
-8.9419
-9.85109
-10.9461
-12.222
-13.6981
-15.4332
-17.4614
-19.799
-22.5854
-25.8941
-29.4022
-32.7864
-36.3555
-40.2212
-43.2967
-44.7999
-44.5168
-42.8033
-39.9583
-36.2779
-32.0651
-27.6746
-23.4723
-19.7735
-16.6661
-14.0469
-11.9166
-10.2246
-8.92154
-7.94969
-7.25361
-6.79993
-6.51454
-6.29684
-6.13128
-6.06407
-6.02866
-5.92238
-5.76336
-5.52814
-5.29621
-4.89051
-4.26823
-3.46771
-2.55219
-1.5752
-0.572254
0.431366
1.41351
2.35257
3.22803
4.01007
4.66807
5.10953
5.29555
4.80236
3.91928
3.74467
3.41983
2.94406
2.47869
1.97446
1.41952
0.829843
0.319162
-0.119475
-0.825955
-1.12816
-34.8579
-29.9359
-27.4265
-25.293
-23.2714
-21.3524
-19.5982
-17.988
-16.544
-15.2348
-14.0346
-12.9373
-11.9494
-11.0653
-10.2764
-9.5768
-8.96604
-8.44154
-7.99975
-7.64517
-7.37533
-7.17138
-7.02923
-6.98316
-7.01162
-6.95014
-6.80607
-6.76355
-6.96021
-7.31975
-7.8074
-8.42428
-9.17867
-10.0973
-11.1961
-12.4652
-13.9236
-15.6196
-17.5758
-19.8207
-22.4911
-25.6167
-28.8831
-32.0547
-35.4113
-38.9457
-41.6814
-43.0101
-42.7395
-41.1272
-38.4501
-34.9859
-31.0285
-26.9146
-22.9805
-19.5054
-16.5686
-14.0859
-12.0593
-10.4406
-9.18601
-8.24123
-7.55514
-7.09893
-6.80077
-6.55906
-6.36784
-6.28766
-6.23964
-6.09026
-5.88434
-5.63277
-5.38666
-4.98819
-4.38073
-3.59439
-2.69093
-1.72449
-0.731228
0.263581
1.2384
2.17262
3.04698
3.83302
4.50476
4.97019
5.20674
4.66003
4.02923
3.98784
3.62053
3.14272
2.7024
2.2128
1.67165
1.09262
0.570822
0.0689512
-0.643371
-0.808919
-34.646
-29.8592
-27.4216
-25.2868
-23.2794
-21.3631
-19.6105
-18.0023
-16.5627
-15.2543
-14.0528
-12.9603
-11.9793
-11.1026
-10.3217
-9.63117
-9.03042
-8.51656
-8.08545
-7.74135
-7.48063
-7.28344
-7.15023
-7.11682
-7.15263
-7.10156
-6.98403
-6.96236
-7.16728
-7.53475
-8.03019
-8.65424
-9.41609
-10.3415
-11.4408
-12.7015
-14.1409
-15.7963
-17.682
-19.8376
-22.3906
-25.3353
-28.3775
-31.3493
-34.4896
-37.7111
-40.1544
-41.3202
-41.0571
-39.538
-37.0185
-33.7597
-30.0443
-26.1898
-22.5056
-19.2401
-16.4653
-14.1135
-12.1865
-10.6389
-9.43201
-8.5147
-7.83988
-7.38299
-7.07419
-6.81077
-6.59568
-6.50232
-6.44323
-6.25526
-5.98517
-5.73209
-5.47145
-5.07576
-4.48112
-3.7089
-2.81722
-1.86069
-0.876165
0.111138
1.08019
2.01131
2.8865
3.67914
4.36753
4.8665
5.13665
4.55603
4.19504
4.21092
3.7784
3.33147
2.91301
2.43257
1.89919
1.32403
0.789277
0.234741
-0.467386
-0.516032
-34.4401
-29.7875
-27.4165
-25.2791
-23.2844
-21.3695
-19.6189
-18.0137
-16.5784
-15.2676
-14.0677
-12.9814
-12.0078
-11.1387
-10.366
-9.68452
-9.09377
-8.59043
-8.16982
-7.83601
-7.58422
-7.39413
-7.27095
-7.25076
-7.29427
-7.2541
-7.16075
-7.15959
-7.37432
-7.75087
-8.25457
-8.88543
-9.65357
-10.5834
-11.6803
-12.9309
-14.3503
-15.9642
-17.7815
-19.8503
-22.2855
-25.0541
-27.8884
-30.6711
-33.5977
-36.5282
-38.72
-39.7402
-39.4765
-38.0406
-35.6666
-32.6002
-29.1115
-25.4991
-22.0474
-18.9782
-16.3575
-14.131
-12.2994
-10.8206
-9.66051
-8.77078
-8.10815
-7.65201
-7.33447
-7.05212
-6.81781
-6.7103
-6.63078
-6.41562
-6.08813
-5.82825
-5.55403
-5.15697
-4.57234
-3.81268
-2.93209
-1.98481
-1.00807
-0.0270805
0.937582
1.86711
2.74465
3.54603
4.25349
4.79494
5.07007
4.4892
4.38521
4.39272
3.9029
3.50673
3.103
2.62856
2.09862
1.52307
0.976093
0.38069
-0.298296
-0.252312
-34.2425
-29.7201
-27.4107
-25.2693
-23.286
-21.3717
-19.6238
-18.0229
-16.589
-15.2756
-14.0801
-13.0009
-12.0349
-11.1737
-10.4092
-9.73684
-9.15606
-8.66311
-8.25281
-7.92911
-7.6862
-7.50365
-7.39145
-7.38479
-7.43628
-7.40682
-7.33465
-7.35374
-7.57982
-7.96664
-8.47915
-9.11675
-9.89032
-10.8225
-11.9147
-13.1538
-14.552
-16.1238
-17.8751
-19.8596
-22.1774
-24.7765
-27.4175