/*--------------------------------*- C++ -*----------------------------------*\
| =========                 |                                                 |
| \\      /  F ield         | OpenFOAM: The Open Source CFD Toolbox           |
|  \\    /   O peration     | Version:  4.1                                   |
|   \\  /    A nd           | Web:      www.OpenFOAM.org                      |
|    \\/     M anipulation  |                                                 |
\*---------------------------------------------------------------------------*/
FoamFile
{
    version     2.0;
    format      ascii;
    class       surfaceScalarField;
    location    "500";
    object      phi;
}
// * * * * * * * * * * * * * * * * * * * * * * * * * * * * * * * * * * * * * //

dimensions      [0 3 -1 0 0 0 0];

internalField   nonuniform List<scalar> 
52920
(
2122.65
7.56176
2117.96
4.69538
2111.2
6.76133
2098.61
12.5875
2079.05
19.5656
2051.74
27.3079
2016.69
35.0519
1974.85
41.8358
1927.74
47.1155
1877.11
50.6321
1824.74
52.3647
1772.23
52.5203
1720.81
51.4196
1671.26
49.5467
1623.58
47.6876
1576.68
46.8991
1528.35
48.3326
1475.4
52.9521
1414.27
61.1274
1341.9
72.3723
1256.36
85.5367
1157.38
98.9887
1046.55
110.835
925.83
120.717
793.454
132.379
645.282
148.175
480.917
164.369
315.923
164.998
194.141
121.789
178.453
15.6959
243.954
-65.4956
366.536
-122.578
533.487
-166.947
741.367
-207.878
988.097
-246.728
1273.11
-285.007
1597.65
-324.541
1964.56
-366.911
2376.81
-412.249
2833.77
-456.962
3328.75
-494.978
3849.3
-520.55
4380.82
-531.514
4910.94
-530.122
5429.08
-518.139
5918.06
-488.978
6344.27
-426.205
6656.84
-312.571
6802.46
-145.62
6746.14
56.3192
6505.79
240.352
6139.72
366.067
5700.63
439.086
5222.04
478.593
4722.1
499.944
4209.34
512.762
3685.87
523.47
3149.19
536.671
2589.85
559.347
1969.03
620.821
1207.82
761.211
334.415
873.402
-401.203
735.619
-836.66
435.457
-1093.78
257.123
-1270.43
176.645
-1403.31
132.88
-1507.39
104.088
-1589.8
82.4093
-1654.27
64.4661
-1702.54
48.2725
-1734.92
32.3793
-1751.18
16.2608
-1750.61
-0.570074
-1732.07
-18.5381
-1694.59
-37.486
-1637.23
-57.3546
-1559.35
-77.884
-1460.68
-98.6667
-1340.78
-119.898
-1197.83
-142.953
-1028.98
-168.842
-833.104
-195.88
-610.063
-223.04
-305.719
-304.344
133.012
-438.73
676.032
-543.019
1282.27
-606.238
1947.73
-665.455
2670.03
-722.307
3445.26
-775.228
4266.37
-821.11
5123.15
-856.78
6002.21
-879.062
6889.07
-886.853
7766.77
-877.701
8628.67
-861.901
9455.75
-827.079
10294.7
-838.98
-776.599
2133.17
19.1827
2125.65
12.2119
2116.47
15.9431
2101.91
27.1506
2080.98
40.4979
2052.98
55.303
2017.98
70.0554
1976.96
82.8575
1931.4
92.6784
1882.96
99.0687
1833.27
102.055
1783.7
102.099
1735.25
99.8631
1688.47
96.333
1643.01
93.1495
1597.33
92.5781
1548.57
97.0945
1492.89
108.638
1426.4
127.616
1346.34
152.432
1251.76
180.125
1143.73
207.014
1024.96
229.605
897.082
248.602
756.77
272.694
600.552
304.395
435.27
329.654
287.722
312.551
200.801
208.718
226.001
-9.49773
325.738
-165.228
470.136
-266.973
651.941
-348.749
870.839
-426.773
1124.91
-500.794
1412.5
-572.601
1733.52
-645.553
2089.43
-722.823
2481.87
-804.692
2908.98
-884.063
3362.9
-948.902
3830.22
-987.874
4295.37
-996.659
4745.23
-979.982
5170.87
-943.778
5563.74
-881.85
5909.14
-771.605
6179.59
-583.025
6331.37
-297.397
6312.23
75.458
6115.11
437.476
5786.96
694.22
5378.69
847.352
4925.08
932.203
4445.76
979.269
3950.19
1008.33
3440.76
1032.89
2916.3
1061.14
2366.21
1109.43
1738.7
1248.33
967.437
1532.47
174.789
1666.05
-389.916
1300.32
-726.763
772.304
-953.248
483.609
-1117.22
340.622
-1242.98
258.632
-1342.28
203.39
-1421.2
161.333
-1482.82
126.086
-1528.23
93.6787
-1557.17
61.3275
-1569.2
28.283
-1563.1
-6.66233
-1537.66
-43.9845
-1492.12
-83.0196
-1425.77
-123.71
-1337.77
-165.88
-1226.94
-209.498
-1091.14
-255.699
-926.882
-307.209
-728.227
-367.496
-482.804
-441.303
-151.987
-553.857
259.805
-716.136
702.468
-881.394
1174.17
-1014.72
1694.65
-1126.71
2265.45
-1236.26
2887.39
-1344.25
3559.72
-1447.56
4279.23
-1540.62
5039.67
-1617.22
5831.02
-1670.41
6641.2
-1697.04
7454.23
-1690.73
8262.35
-1670.02
9044.21
-1608.94
9842.66
-1637.44
-1503.46
2132.63
36.6861
2119.56
25.2915
2104.86
30.6395
2085.15
46.8649
2059.75
65.8928
2028.34
86.7167
1991.27
107.125
1949.71
124.421
1905.13
137.259
1859.03
145.17
1812.71
148.374
1767.14
147.668
1722.94
144.065
1680.22
139.055
1638.16
135.211
1594.53
136.211
1545.56
146.068
1486.56
167.64
1413.37
200.803
1323.89
241.914
1218.68
285.332
1100.77
324.926
973.868
356.514
838.074
384.397
688.351
422.42
525.827
466.921
368.109
487.375
245.467
435.197
191.813
262.38
243.527
-61.2076
352.59
-274.288
497.526
-411.907
678.012
-529.233
892.936
-641.694
1137.68
-745.539
1408.78
-843.697
1705.67
-942.444
2030.28
-1047.43
2384.85
-1159.26
2767.85
-1267.07
3171.56
-1352.61
3582.66
-1398.98
3985.89
-1399.89
4368.64
-1362.73
4723.09
-1298.23
5044.14
-1202.9
5326.38
-1053.84
5558.78
-815.427
5712.49
-451.105
5728.9
59.0476
5579.18
587.197
5296.88
976.524
4928.79
1215.44
4509.51
1351.48
4059.49
1429.29
3588.66
1479.17
3100.25
1521.3
2594.77
1566.62
2049.89
1654.31
1399.33
1898.89
653.027
2278.78
34.3449
2284.73
-345.549
1680.22
-615.104
1041.86
-824.426
692.932
-986.974
503.17
-1115.73
387.392
-1219.12
306.779
-1301.9
244.111
-1366.44
190.626
-1413.44
140.674
-1442.49
90.3851
-1453.11
38.9037
-1444.1
-15.676
-1414.88
-73.1981
-1364.95
-132.951
-1293.47
-195.192
-1199.23
-260.118
-1080.44
-328.291
-934.389
-401.748
-756.904
-484.694
-542.023
-582.377
-273.874
-709.451
55.6281
-883.358
420.792
-1081.3
805.346
-1265.95
1220.08
-1429.46
1673.93
-1580.56
2167.39
-1729.71
2700.65
-1877.52
3273.57
-2020.48
3884.72
-2151.77
4530.69
-2263.19
5204.86
-2344.58
5898.98
-2391.16
6600.02
-2391.77
7303.58
-2373.59
7988.61
-2293.96
8700.83
-2349.66
-2159.44
2121.86
60.1332
2103.04
44.1136
2082.56
51.1182
2057.45
71.9778
2027.35
95.9909
1992.3
121.77
1953
146.424
1910.83
166.596
1867.27
180.82
1823.62
188.816
1780.83
191.167
1739.4
189.101
1699.44
184.022
1660.51
177.993
1621.02
174.699
1577.82
179.417
1526.22
197.668
1461.11
232.747
1378.82
283.099
1278.63
342.109
1163.07
400.895
1036.94
451.051
903.611
489.847
760.173
527.836
602.149
580.447
439.341
629.732
297.033
629.686
198.767
533.467
169.844
291.313
236.391
-127.75
346.36
-384.254
489.751
-555.295
667.618
-707.098
875.658
-849.733
1107.36
-977.241
1359.34
-1095.68
1631.82
-1214.92
1927.05
-1342.66
2247.21
-1479.42
2590.8
-1610.67
2950.54
-1712.34
3313.82
-1762.25
3666.07
-1752.14
3995.31
-1691.97
4294.34
-1597.27
4559.32
-1467.87
4789.16
-1283.68
4982.43
-1008.7
5121.64
-590.311
5148.7
31.9813
5024.68
711.223
4774.93
1226.27
4441.08
1549.29
4054.82
1737.75
3635.06
1849.05
3190.86
1923.37
2726.74
1985.42
2240.24
2053.12
1689.16
2205.39
1026.9
2561.16
378.699
2926.98
-46.7132
2710.15
-305.484
1938.99
-537.605
1273.98
-736.276
891.604
-897.99
664.884
-1028.72
518.122
-1134.45
412.514
-1219.08
328.741
-1284.69
256.228
-1331.87
187.856
-1360.26
118.777
-1369.29
47.9344
-1357.46
-27.5075
-1324.71
-105.939
-1270.67
-186.997
-1194.55
-271.306
-1095.17
-359.502
-970.67
-452.792
-818.235
-554.183
-633.527
-669.402
-410.627
-805.277
-141.14
-978.937
168.998
-1193.5
501.801
-1414.1
854.346
-1618.49
1233.57
-1808.68
1643.72
-1990.71
2084.57
-2170.56
2555.43
-2348.38
3055.52
-2520.56
3583.29
-2679.54
4136
-2815.89
4708.29
-2916.87
5293.75
-2976.62
5880.84
-2978.86
6467.4
-2960.15
7033.57
-2860.12
7628.12
-2944.22
-2711.07
2100.33
88.8861
2076.26
68.184
2050.59
76.7912
2020.91
101.657
1987.17
129.736
1949.69
159.249
1909.43
186.678
1867.87
208.162
1826.38
222.312
1785.96
229.23
1747.13
229.998
1709.91
226.327
1673.87
220.061
1637.84
214.027
1599.22
213.324
1553.69
224.948
1495.88
255.474
1421.07
307.556
1327.16
377.013
1215.65
453.62
1091.2
525.349
959.387
582.864
820.936
628.3
669.876
678.897
506.826
743.499
351.25
785.31
228.554
752.384
151.995
610.029
143.911
299.408
219.328
-203.163
327.351
-492.274
467.359
-695.302
638.871
-878.608
836.02
-1046.88
1053.01
-1194.23
1287.6
-1330.27
1539.6
-1466.91
1809.5
-1612.56
2098.3
-1768.21
2405.03
-1917.4
2724.09
-2031.41
3044.57
-2082.74
3352.93
-2060.5
3637.63
-1976.66
3891.72
-1851.35
4111.55
-1687.71
4298.13
-1470.26
4456.36
-1166.93
4577.21
-711.155
4603.02
6.16919
4489.94
824.301
4260.58
1455.63
3953.18
1856.7
3595.74
2095.18
3204.2
2240.59
2786.28
2341.29
2346.99
2424.7
1872.98
2527.14
1309.78
2768.59
675.78
3195.16
176.258
3426.5
-89.9588
2976.36
-284.862
2133.89
-492.565
1481.68
-679.56
1078.6
-836.559
821.883
-965.689
647.253
-1070.95
517.774
-1155.34
413.132
-1220.57
321.46
-1267.09
234.381
-1294.49
146.176
-1301.92
55.3657
-1287.54
-41.8878
-1251.76
-141.721
-1194.32
-244.442
-1114.59
-351.034
-1011.51
-462.579
-883.393
-580.907
-727.554
-710.022
-540.224
-856.732
-317.074
-1028.43
-56.6452
-1239.37
231.684
-1481.82
539.15
-1721.57
866.974
-1946.32
1218.57
-2160.28
1595.43
-2367.57
1996.38
-2571.51
2419.68
-2771.69
2863.55
-2964.43
3325.65
-3141.64
3802.78
-3293.03
4289.57
-3403.66
4779.71
-3466.76
5261.44
-3460.59
5731.88
-3430.58
6172.39
-3300.64
6632.41
-3404.24
-3134.88
2056.15
123.506
2027.68
96.6546
1998.51
105.966
1966.65
133.52
1932.18
164.203
1895.49
195.937
1857.49
224.681
1819.44
246.219
1782.36
259.391
1746.81
264.78
1712.82
263.991
1679.96
259.186
1647.32
252.698
1612.95
248.403
1573.07
253.208
1522.22
275.799
1454.83
322.865
1367.54
394.845
1260.86
483.698
1138.99
575.485
1008.28
656.066
873.034
718.109
729.326
772.009
570.969
837.256
408.325
906.145
267.321
926.317
166.401
853.307
107.011
669.424
118.15
288.284
198.029
-283.038
301.679
-595.921
435.133
-828.754
596.633
-1040.11
781.251
-1231.5
985.148
-1398.13
1206.24
-1551.35
1441.83
-1702.5
1689.32
-1860.05
1948.61
-2027.5
2220.34
-2189.12
2501.62
-2312.69
2783.73
-2364.85
3054.12
-2330.89
3301.4
-2223.95
3518.5
-2068.45
3701.34
-1870.54
3851.71
-1620.64
3978.83
-1294.04
4079.91
-812.237
4096.66
-10.576
3984.47
936.49
3766.98
1673.12
3480.08
2143.6
3147.61
2427.64
2781.75
2606.46
2389.1
2733.93
1972.24
2841.57
1501.65
2997.73
935.991
3334.25
380.396
3750.75
39.7573
3767.14
-120.859
3136.98
-283.101
2296.14
-469.606
1668.19
-642.703
1251.7
-791.982
971.163
-917.029
772.3
-1019.97
620.713
-1102.82
495.988
-1166.84
385.474
-1212.21
279.759
-1238.38
172.342
-1244.12
61.1049
-1227.39
-58.6149
-1188.94
-180.169
-1128.79
-304.599
-1046.52
-433.302
-941.271
-567.826
-811.583
-710.594
-655.196
-866.409
-469.294
-1042.63
-251.281
-1246.44
-2.60863
-1488.04
268.167
-1752.6
556.951
-2010.35
865.786
-2255.15
1196.35
-2490.84
1548.48
-2719.7
1920.13
-2943.16
2308.54
-3160.09
2710.68
-3366.57
3122.98
-3553.94
3541.09
-3711.14
3958.87
-3821.43
4368.78
-3876.67
4757.48
-3849.29
5117.48
-3790.58
5431.38
-3614.54
5743.93
-3716.78
-3410.73
2012.19
161.862
1979.94
128.913
1947.37
138.53
1913.11
167.78
1877.7
199.612
1841.82
231.824
1806.36
260.142
1772.24
280.338
1739.91
291.725
1709.24
295.449
1679.67
293.565
1650.27
288.579
1619.59
283.381
1584.75
283.241
1540.78
297.187
1481.39
335.192
1401.63
402.622
1300.55
495.928
1181.86
602.387
1052.3
705.048
918.393
789.974
780.512
855.992
630.2
922.323
466.73
1000.73
311.665
1061.21
190.222
1047.76
112.061
931.47
63.6183
717.871
95.5892
256.326
175.329
-362.774
272.139
-692.73
396.2
-952.813
545.663
-1189.57
717.747
-1403.58
910.217
-1590.6
1119.9
-1761.04
1341.02
-1923.62
1568.08
-2087.11
1800.24
-2259.66
2039.79
-2428.67
2286.66
-2559.56
2534.4
-2612.59
2771.56
-2568.04
2986.88
-2439.27
3172.98
-2254.56
3324.96
-2022.51
3444.66
-1740.34
3544.34
-1393.72
3625.57
-893.463
3627.46
-12.4744
3509
1054.95
3297.87
1884.25
3027.71
2413.76
2717.38
2737.97
2375
2948.84
2006.2
3102.73
1606.51
3241.26
1133.86
3470.38
592.027
3876.08
153.729
4189.05
-50.5553
3971.42
-153.033
3239.46
-294.352
2437.45
-460.273
1834.11
-618.547
1409.97
-758.628
1111.24
-878.092
891.764
-977.454
720.074
-1057.85
576.386
-1120.06
447.688
-1164.01
323.709
-1188.9
197.224
-1193.01
65.2181
-1174.21
-77.4114
-1133.52
-220.858
-1071.27
-366.849
-987.334
-517.241
-881.095
-674.065
-751.392
-840.297
-596.473
-1021.33
-414.422
-1224.68
-204.025
-1456.84
32.1337
-1724.2
287.586
-2008.05
560.839
-2283.6
853.892
-2548.2
1167.53
-2804.48
1500.76
-3052.93
1850.92
-3293.31
2214.37
-3523.55
2586.88
-3739.08
2963.42
-3930.47
3338.18
-4085.9
3703.86
-4187.12
4050.81
-4223.62
4363.02
-4161.5
4623.77
-4051.33
4816.86
-3807.64
4975.12
-3875.03
-3524.29
1965.43
202.436
1931.21
163.131
1897.27
172.471
1862.55
202.495
1827.78
234.389
1793.71
265.891
1761.2
292.654
1730.84
310.702
1702.54
320.029
1675.61
322.381
1648.98
320.193
1621.26
316.299
1590.27
314.375
1552.04
321.472
1500.49
348.734
1429.29
406.392
1335.29
496.626
1220.79
610.431
1092.7
730.474
959.103
838.65
824.172
924.907
682.377
997.788
524.64
1080.06
361.537
1163.83
221.663
1201.09
122.076
1147.35
64.7927
988.757
31.3524
751.316
80.6875
207.003
152.8
-434.882
240.654
-780.582
353.516
-1065.67
490.078
-1326.13
649.694
-1563.2
830.906
-1771.81
1029.19
-1959.32
1236.64
-2131.06
1445.65
-2296.12
1654.26
-2468.26
1865.43
-2639.84
2081.31
-2775.44
2297.89
-2829.17
2505.32
-2775.47
2692.77
-2626.72
2852.48
-2414.26
2978.34
-2148.38
3071.7
-1833.7
3147.12
-1469.14
3208.85
-955.196
3191.22
5.1557
3061.52
1184.66
2853.73
2092.05
2598.38
2669.12
2308.27
3028.08
1987.63
3269.47
1640.39
3449.97
1251.16
3630.49
780.086
3941.45
296.778
4359.39
-9.12452
4494.95
-115.285
4077.58
-189.275
3313.45
-313.032
2561.21
-459.429
1980.51
-603.121
1553.66
-733.356
1241.48
-846.195
1004.6
-940.97
814.85
-1018.14
653.557
-1078.1
507.649
-1120.46
366.071
-1144.11
220.869
-1146.73
67.8453
-1126.15
-97.9939
-1083.65
-263.358
-1019.91
-430.594
-935.079
-602.068
-828.83
-780.313
-700.305
-968.821
-548.25
-1173.38
-371.499
-1401.44
-169.746
-1658.59
54.2161
-1948.16
295.993
-2249.83
555.567
-2543.18
834.76
-2827.4
1134.01
-3103.73
1452.02
-3370.94
1785.87
-3627.16
2131.33
-3869.01
2483.11
-4090.86
2834.89
-4282.26
3179.51
-4430.52
3508.56
-4516.17
3809.73
-4524.79
4063.61
-4415.38
4239.42
-4227.14
4322.44
-3890.66
4324.26
-3876.85
-3466.55
1915.98
244.473
1880.88
198.225
1846.96
206.39
1813.44
236.016
1780.94
266.897
1749.99
296.839
1721.11
321.534
1694.44
337.373
1669.41
345.055
1644.96
346.835
1619.69
345.465
1591.7
344.292
1557.85
348.226
1512.93
366.386
1450.25
411.418
1364.6
492.048
1255.9
605.319
1130.17
736.166
996.603
864.042
862.326
972.929
726.339
1060.9
578.143
1145.99
415.103
1243.1
260.744
1318.19
142.285
1319.55
65.1499
1224.49
25.6353
1028.27
9.12816
767.827
68.1813
147.957
130.718
-497.416
208.82
-858.683
309.55
-1166.4
432.809
-1449.39
579.584
-1709.97
748.622
-1940.85
934.547
-2145.25
1128.63
-2325.15
1321.93
-2489.42
1510.75
-2657.08
1697.41
-2826.49
1885.28
-2963.31
2073.12
-3017.02
2253.53
-2955.88
2416.48
-2789.67
2553.7
-2551.48
2657.45
-2252.13
2727.98
-1904.23
2781.77
-1522.92
2824.4
-997.824
2783.31
46.2466
2639.41
1328.55
2434.08
2297.38
2192.93
2910.26
1921.77
3299.25
1621.28
3569.96
1292.15
3779.1
908.037
4014.6
452.751
4396.74
60.2172
4751.93
-121.757
4676.93
-168.83
4124.66
-228.09
3372.71
-335.456
2668.58
-464.108
2109.16
-593.936
1683.49
-714.006
1361.55
-819.446
1110.04
-908.863
904.267
-982.26
726.955
-1039.71
565.095
-1080.44
406.809
-1102.95
243.38
-1104.24
69.1311
-1082.11
-120.12
-1038.17
-307.303
-973.434
-495.327
-888.372
-687.13
-782.905
-885.781
-656.472
-1095.25
-508.254
-1321.6
-337.635
-1572.05
-144.84
-1851.38
67.576
-2160.57
296.937
-2479.19
544.09
-2790.33
810.718
-3094.02
1097.22
-3390.23
1402.35
-3676.07
1723.17
-3947.99
2055.09
-4200.92
2392.11
-4427.88
2727.04
-4617.18
3051.71
-4755.2
3356.79
-4821.25
3627.28
-4795.28
3839.67
-4627.77
3944.47
-4331.94
3929.33
-3875.53
3766.78
-3714.29
-3224.69
1865.14
287.066
1830.21
233.157
1797.39
239.215
1766.12
267.285
1736.81
296.214
1709.6
324.047
1684.52
346.617
1661.17
360.718
1638.59
367.642
1615.44
369.982
1590.06
370.848
1559.82
374.53
1520.33
387.715
1465.27
421.451
1388.28
488.41
1286.81
593.517
1164.87
727.265
1031.71
869.333
896.846
998.902
763.442
1106.33
623.975
1200.36
468.025
1301.94
305.92
1405.21
168.906
1455.21
75.0469
1413.41
19.9812
1279.56
-2.79418
1051.05
-5.69584
770.734
56.0136
86.2557
109.814
-551.213
177.994
-926.86
266.145
-1254.55
375.796
-1559.04
509.072
-1843.24
664.79
-2096.56
837.213
-2317.67
1017.64
-2505.58
1196.57
-2668.34
1368.5
-2829.02
1533.85
-2991.84
1696.27
-3125.72
1857.51
-3178.26
2013.41
-3111.79
2155.2
-2931.45
2273.82
-2670.1
2359.21
-2337.52
2409.79
-1954.81
2443.88
-1557.02
2467.22
-1021.16
2399.25
114.211
2240.27
1487.54
2038.31
2499.35
1811.62
3136.95
1558.41
3552.46
1276.28
3852.1
961.166
4094.21
580.716
4395.05
163.887
4813.57
-117.404
5033.22
-201.117
4760.64
-218.002
4141.54
-267.355
3422.06
-359.545
2760.77
-472.426
2222.04
-589.175
1800.24
-698.939
1471.31
-796.456
1207.56
-880.002
987.813
-949.294
796.247
-1004.07
619.874
-1043.16
445.901
-1064.67
264.888
-1064.75
69.2141
-1041.27
-143.601
-996.195
-352.38
-930.899
-560.623
-846.129
-771.899
-742.063
-989.847
-618.409
-1218.91
-474.691
-1465.32
-310.666
-1736.08
-126.809
-2035.24
74.7849
-2362.17
292.76
-2697.17
528.474
-3026.04
783.554
-3349.1
1058.52
-3665.19
1352.34
-3969.9
1662.18
-4257.82
1983.23
-4521.98
2309.17
-4753.81
2632.34
-4940.36
2944
-5066.86
3234
-5111.24
3485.07
-5046.35
3668.21
-4810.91
3710.96
-4374.69
3600.75
-3765.31
3231.82
-3345.36
-2758.22
1799.82
328.859
1768.31
264.663
1740.02
267.509
1713.98
293.321
1690.06
320.136
1667.9
346.212
1647.04
367.473
1626.75
381.009
1605.91
388.487
1583.19
392.702
1556.6
397.44
1522.42
408.712
1474.7
435.432
1406.51
489.645
1313.29
581.627
1196.65
710.159
1064.88
859.034
928.95
1005.27
795.784
1132.07
662.05
1240.07
515.856
1346.56
354.472
1463.32
202.284
1557.4
88.4334
1569.06
19.1322
1482.71
-15.2422
1313.93
-22.473
1058.29
-16.9322
765.198
44.364
24.9643
90.8697
-597.716
149.207
-985.196
224.65
-1329.99
320.367
-1654.75
439.389
-1962.27
580.788
-2237.96
738.675
-2475.55
904.695
-2671.6
1069.43
-2833.07
1225.85
-2985.44
1372.06
-3138.05
1511.43
-3265.08
1648.46
-3315.29
1782.52
-3245.85
1906.71
-3055.64
2010.92
-2774.31
2081.65
-2408.24
2114.61
-1987.77
2130.44
-1572.84
2133.14
-1023.86
2035.22
212.13
1862.27
1660.49
1666
2695.62
1454.39
3348.55
1218.13
3788.72
952.232
4117.99
647.428
4399.02
273.579
4768.9
-76.9097
5164.06
-242.66
5198.97
-262.237
4780.22
-264.768
4144.08
-305.562
3462.85
-384.142
2839.35
-483.039
2320.94
-587.443
1904.65
-686.903
1570.77
-776.21
1296.87
-853.595
1065.2
-918.597
861.249
-970.61
671.887
-1008.03
483.326
-1028.65
285.5
-1027.62
68.1882
-1002.93
-168.292
-956.98
-398.327
-891.469
-626.133
-807.416
-855.951
-705.232
-1092.03
-584.867
-1339.27
-446.107
-1604.08
-288.946
-1893.24
-113.891
-2210.3
77.539
-2553.6
284.953
-2904.58
510.022
-3251.11
754.414
-3593.5
1018.85
-3929.63
1302.56
-4253.61
1602.75
-4558.01
1914.53
-4833.76
2231.39
-5070.67
2545.48
-5254.44
2847.49
-5368.88
3126.31
-5390.06
3362.81
-5282.85
3518.74
-4966.84
3493.45
-4349.4
3253.73
-3525.59
2563.79
-2655.42
-1985.2
1746.74
372.011
1714.9
296.499
1688
294.414
1664.8
316.527
1644.49
340.442
1625.91
364.792
1607.89
385.499
1589.24
399.661
1568.79
408.934
1545.29
416.206
1516.19
426.537
1476.25
448.656
1417.91
493.774
1334.57
572.982
1225.14
691.062
1096.25
839.049
959.549
995.737
825.022
1139.8
693.967
1263.13
556.475
1377.56
402.239
1500.8
242.122
1623.44
108.516
1691.01
20.3375
1657.24
-26.3012
1529.35
-43
1330.63
-37.4092
1052.7
-25.7031
753.498
33.9816
-34.7138
74.2831
-638.014
123.149
-1034.06
186.039
-1392.88
267.5
-1736.21
371.466
-2066.23
497.579
-2364.07
640.125
-2618.1
791.102
-2822.57
941.062
-2983.03
1081.87
-3126.24
1210.19
-3266.37
1329.08
-3383.97
1444.47
-3430.68
1559.12
-3360.5
1669.04
-3165.56
1762.91
-2868.18
1822.63
-2467.97
1840.4
-2005.53
1839.34
-1571.78
1818.49
-1003.01
1688.1
342.512
1504.31
1844.29
1316.89
2883.04
1120.92
3544.53
900.421
4009.22
648.808
4369.6
349.427
4698.4
-3.99992
5122.32
-263.02
5423.08
-329.634
5265.58
-314.112
4764.69
-309.149
4139.11
-341.917
3495.62
-408.538
2905.97
-494.944
2407.34
-587.674
1997.38
-676.952
1660.05
-757.953
1377.87
-829.045
1136.29
-889.649
921.853
-938.824
721.062
-974.548
519.05
-994.317
305.269
-992.213
66.0844
-966.429
-194.076
-919.828
-444.927
-854.394
-691.567
-771.396
-938.95
-671.463
-1191.96
-554.758
-1455.98
-421.266
-1737.57
-271.108
-2043.4
-104.685
-2376.72
77.0709
-2735.35
274.499
-3102.01
489.515
-3466.13
723.916
-3827.9
978.682
-4184.4
1253.24
-4528.17
1544.79
-4849.56
1848.25
-5137.22
2156.79
-5379.21
2462.05
-5559.7
2753.36
-5660.18
3017.28
-5653.98
3230.61
-5496.18
3335.03
-5071.26
3188.9
-4203.27
2693.23
-3029.93
1521.81
-1484
-850.944
1698.3
413.266
1668.09
326.709
1642.98
319.532
1621.75
337.755
1603.4
358.791
1586.35
381.845
1569
402.849
1549.94
418.719
1528.04
430.838
1501.95
442.297
1468.22
460.264
1419.86
497.02
1348.32
565.309
1248.93
672.377
1125.39
814.601
989.073
975.37
852.554
1132.26
721.553
1270.8
590.114
1394.57
445.321
1522.36
285.819
1660.3
136.331
1772.93
27.8519
1799.49
-34.4956
1719.59
-61.8699
1556.73
-64.9433
1333.71
-50.2394
1038
-32.2809
735.543
25.1049
-92.096
60.1155
-673.022
100.183
-1074.13
150.951
-1443.64
217.971
-1803.23
306.073
-2154.33
415.829
-2473.83
542.375
-2744.65
677.906
-2958.1
812.342
-3117.47
937.006
-3250.9
1048.47
-3377.83
1149.29
-3484.79
1245.04
-3526.43
1341.59
-3457.05
1439.07
-3263.05
1525.81
-2954.91
1579
-2521.16
1585.84
-2012.37
1569.17
-1555.11
1519.54
-953.374
1355.53
506.526
1166
2033.81
990.823
3058.22
810.687
3724.66
604.78
4215.12
364.698
4609.69
67.9601
4995.14
-240.218
5430.5
-396.001
5578.86
-393.227
5262.81
-360.812
4732.28
-350.765
4129.07
-376.077
3520.93
-432.256
2962.15
-507.389
2482.48
-589.063
2079.05
-668.374
1739.36
-741.103
1450.6
-805.844
1201.03
-861.937
977.946
-908.17
767.296
-942.152
553.032
-961.096
324.214
-957.903
62.8914
-931.121
-220.857
-884.048
-492
-818.934
-756.681
-737.266
-1020.62
-639.872
-1289.36
-527.095
-1568.75
-399.079
-1865.59
-256.004
-2186.47
-98.0759
-2534.65
74.3186
-2907.75
262.101
-3289.79
467.436
-3671.46
692.333
-4052.79
938.075
-4430.14
1204.26
-4794.35
1487.93
-5133.22
1783.53
-5432.83
2083.27
-5678.96
2377.01
-5853.43
2649.78
-5932.96
2880.31
-5884.5
3027.99
-5643.86
2984.84
-5028.11
2542.41
-3760.84
1536.3
-2023.82
5.72555
46.5768
361.433
1651.33
451.999
1623.71
354.324
1601.12
342.127
1582.05
356.823
1565.14
375.705
1548.51
398.472
1530.45
420.912
1509.57
439.597
1484.76
455.657
1454.17
472.883
1413.02
501.421
1352.85
557.184
1265.73
652.431
1150.86
787.256
1017.3
948.163
879.194
1113.47
746.559
1264.89
618.16
1399.2
482.154
1530.57
329.104
1675.41
171.468
1817.94
42.4285
1901.97
-37.4139
1879.33
-76.5387
1758.72
-89.0399
1569.23
-82.458
1327.13
-63.6067
1019.15
-37.2257
709.169
17.6067
-146.923
48.1947
-703.607
80.3649
-1106.29
119.721
-1483
172.403
-1855.91
243.992
-2225.92
336.285
-2566.12
445.91
-2854.27
565.337
-3077.53
683.857
-3235.99
792.715
-3359.76
888.633
-3473.75
973.181
-3569.34
1050.46
-3603.71
1128.76
-3535.35
1213.24
-3347.53
1295.03
-3036.7
1348.01
-2574.14
1350.46
-2014.82
1319.72
-1524.37
1233
-866.651
1035.95
703.575
847.478
2222.29
687.579
3218.12
523.034
3889.21
330.703
4407.45
95.9523
4844.44
-190.085
5281.17
-425.522
5665.94
-486.839
5640.18
-443.937
5219.91
-403.69
4692.03
-389.374
4114.75
-407.924
3539.48
-454.958
3009.18
-519.814
2547.33
-591.001
2150.24
-660.615
1808.98
-725.149
1515.13
-783.476
1259.36
-834.918
1029.39
-878.087
810.465
-910.254
585.2
-928.358
342.318
-924.026
58.5599
-896.315
-248.567
-848.915
-539.399
-784.32
-821.276
-704.213
-1100.72
-609.593
-1383.98
-500.953
-1677.39
-378.566
-1987.97
-242.626
-2322.41
-93.1117
-2684.16
70.0676
-3070.93
248.333
-3468.06
444.133
-3867.26
659.773
-4268.43
896.9
-4667.27
1155.25
-5052.7
1431.5
-5409.47
1719.06
-5720.38
2007.82
-5967.72
2282.68
-6128.3
2516.63
-6166.91
2662.43
-6030.3
2620.86
-5602.29
2184.18
-4591.43
1119.48
-2696.14
-482.552
-421.792
-1512.6
1076.63
924.666
1606
487.793
1581.21
379.107
1561.13
362.208
1544
373.957
1528.02
391.681
1511.1
415.399
1491.51
440.5
1467.99
463.115
1439.15
484.504
1402.02
510.007
1350.19
553.255
1274.85
632.523
1170.94
756.347
1043.19
915.002
905.107
1086.25
770.185
1248.4
642.324
1392.75
512.885
1528.64
368.782
1674.68
210.822
1833.37
65.4696
1963.29
-35.2168
2002.66
-87.326
1931.44
-108.231
1779.62
-109.997
1571
-96.9477
1314.08
-76.2068
998.41
-39.6176
672.585
11.2082
-197.746
38.1788
-730.576
63.4967
-1131.61
92.4103
-1511.91
131.231
-1894.73
186.046
-2280.73
259.903
-2639.98
351.131
-2945.5
453.136
-3179.53
555.587
-3338.44
649.885
-3454.06
732.128
-3555.99
802.276
-3639.49
862.397
-3663.83
921.735
-3594.68
990.91
-3416.71
1067.4
-3113.19
1124.59
-2631.33
1128.7
-2018.94
1090.39
-1486.06
955.244
-731.501
728.615
930.204
549.17
2401.73
406.788
3360.5
257.333
4038.66
75.7131
4589.07
-157.716
5077.87
-412.878
5536.33
-559.164
5812.23
-549.29
5630.3
-487.452
5158.07
-443.053
4647.63
-424.929
4096.63
-437.447
3552
-476.406
3048.14
-531.803
2602.73
-593.024
2211.46
-653.2
1869.15
-709.595
1571.53
-761.433
1311.2
-808.087
1076.04
-848.025
850.404
-878.21
615.385
-895.414
359.523
-889.869
53.016
-861.268
-277.168
-813.654
-587.012
-749.741
-885.189
-671.39
-1179.07
-579.75
-1475.62
-475.437
-1781.7
-358.815
-2104.59
-230.063
-2451.16
-88.9532
-2825.27
65.014
-3224.89
233.714
-3636.75
419.918
-4053.47
626.306
-4474.82
854.969
-4895.93
1105.74
-5303.47
1374.6
-5678.33
1652.89
-5998.68
1925.64
-6240.47
2165.9
-6368.55
2315.91
-6316.91
2258.3
-5972.69
1770.39
-5114.38
609.148
-3430.19
-957.945
-1129.05
-1998.3
618.565
-2250.76
1329.09
1268.91
1551.01
518.95
1531.34
398.784
1515.34
378.206
1501.05
388.244
1486.47
406.264
1469.51
432.361
1448.7
461.314
1422.76
489.054
1389.4
517.868
1343.82
555.591
1278.23
618.839
1185.47
725.285
1065.8
876.022
929.933
1050.87
793.068
1223.11
664.009
1377.46
538.592
1518.17
403.469
1663.76
250.772
1827.38
96.0642
1988.08
-25.4109
2084.77
-94.7798
2072.03
-124.594
1961.26
-132.624
1787.66
-126.687
1565.06
-108.882
1296.28
-84.2958
973.827
-39.9775
628.276
5.52227
-243.24
29.6009
-754.651
49.1992
-1151.21
68.8531
-1531.56
94.6643
-1920.54
132.941
-2319.01
187.682
-2694.72
258.779
-3016.59
341.44
-3262.2
427.084
-3424.08
507.853
-3534.83
578.895
-3627.03
637.802
-3698.4
683.643
-3709.67
724.469
-3635.51
775.074
-3467.31
838.547
-3176.66
894.478
-2687.26
907.373
-2031.83
881.251
-1459.93
682.534
-532.782
433.712
1179.03
271.778
2563.67
148.031
3484.25
12.1197
4174.58
-163.083
4764.28
-388.863
5303.65
-590.335
5737.81
-649.718
5871.61
-594.729
5575.31
-526.219
5089.56
-478.988
4600.4
-457.506
4075.15
-464.688
3559.18
-496.442
3079.9
-543.051
2649.34
-594.752
2263.16
-645.711
1920.11
-693.997
1619.82
-739.251
1356.45
-780.925
1117.72
-817.37
886.849
-845.31
643.325
-861.53
375.743
-854.671
46.157
-825.195
-306.643
-777.462
-634.745
-714.372
-948.278
-637.947
-1255.5
-549.474
-1564.09
-449.672
-1881.51
-338.956
-2215.31
-217.474
-2572.65
-84.8374
-2957.91
59.7999
-3369.53
218.734
-3795.69
395.093
-4229.83
592.019
-4671.75
812.115
-5116.03
1055.23
-5546.59
1316.09
-5939.18
1582.27
-6264.86
1829.07
-6487.28
2003.39
-6542.87
1979.23
-6292.75
1507.44
-5500.91
324.343
-3931.28
-1246.14
-1859.7
-2256.86
-118.328
-2564.68
926.385
-2716.46
1480.86
1524.12
1504.46
551.132
1484.44
418.812
1468.65
393.995
1454.49
402.405
1439.45
421.301
1421.44
450.373
1399.2
483.553
1371.02
517.236
1332.68
556.206
1276.85
611.428
1195.35
700.344
1085.12
835.513
953.45
1007.69
815.541
1188.78
684.254
1354.4
560.475
1501.24
432.863
1645.78
288.773
1807.85
131.986
1984.16
-6.60631
2126.67
-96.2316
2174.39
-138.466
2114.26
-152.758
1975.55
-151.965
1786.86
-140.119
1553.22
-118.394
1274.56
-89.4056
944.84
-41.5405
580.418
0.0337582
-284.812
21.903
-776.519
36.9643
-1166.27
48.6986
-1543.3
62.6746
-1934.52
85.1141
-2341.45
120.515
-2730.12
170.072
-3066.15
231.229
-3323.35
298.226
-3491.08
365.252
-3601.85
427.356
-3689.14
479.13
-3750.17
515.36
-3745.9
540.222
-3660.37
568.352
-3495.44
604.701
-3213.01
646.894
-2729.45
677.858
-2062.79
667.182
-1449.26
405.732
-271.328
152.796
1431.96
15.5162
2700.95
-90.0922
3589.86
-214.799
4299.28
-383.268
4932.75
-585.725
5506.1
-720.487
5872.57
-709.507
5860.63
-630.608
5496.42
-561.115
5020.07
-511.628
4550.91
-487.243
4050.76
-489.723
3561.66
-514.963
3105.14
-553.323
2687.7
-595.869
2305.71
-637.784
1962.03
-677.967
1660
-716.476
1394.96
-752.865
1154.11
-785.445
919.429
-810.802
668.682
-825.937
390.879
-817.636
37.8569
-787.304
-336.975
-739.544
-682.504
-677.412
-1010.41
-603.075
-1329.84
-517.943
-1649.22
-422.823
-1976.63
-318.159
-2319.97
-204.068
-2686.74
-80.0491
-3081.93
55.0361
-3504.62
203.87
-3944.52
369.972
-4395.93
557.027
-4858.8
768.213
-5327.21
1003.23
-5781.62
1254.65
-6190.6
1503.27
-6513.48
1705.62
-6689.63
1755.92
-6593.16
1408.93
-5945.76
344.859
-4436.84
-1183.25
-2403.17
-2269.14
-773.817
-2680.98
293.517
-2866.71
1112.12
-3018.42
1632.57
1756.57
1461.92
581.805
1441.76
438.974
1424.73
411.024
1408.49
418.648
1390.63
439.159
1369.49
471.513
1344.29
508.761
1312.56
548.963
1267.47
601.293
1199.16
679.738
1100.83
798.675
975.771
960.578
838.079
1145.39
703.935
1322.92
579.713
1478.63
457.521
1623.43
322.721
1780.59
170.04
1960.53
20.5745
2133.63
-89.3677
2236.62
-147.659
2232.69
-170.374
2136.98
-174.513
1979.69
-167.427
1779.78
-150.841
1536.64
-126.206
1249.92
-94.1549
912.793
-44.5495
530.825
-5.78568
-323.571
14.4764
-796.778
26.1871
-1177.97
31.4511
-1548.56
35.0171
-1938.08
42.7184
-2349.15
59.1192
-2746.52
86.3842
-3093.41
124.14
-3361.11
170.054
-3536.99
221.616
-3653.41
275.124
-3742.64
322.734
-3797.78
354.547
-3777.71
368.22
-3674.04
372.816
-3500.04
375.062
-3215.25
392.584
-2746.97
427.244
-2097.45
397.824
-1419.84
106.014
20.4847
-114.541
1652.52
-220.153
2806.56
-308.967
3678.67
-422.643
4412.96
-576.672
5086.77
-740.385
5669.82
-809.41
5941.59
-749.945
5801.17
-661.089
5407.56
-592.491
4951.47
-541.183
4499.61
-514.315
4023.89
-512.646
3560
-531.905
3124.4
-562.436
2718.23
-596.118
2339.39
-629.126
1995.03
-661.142
1692.02
-692.63
1426.45
-723.303
1184.78
-751.552
947.678
-773.915
691.046
-787.866
404.831