/*--------------------------------*- C++ -*----------------------------------*\
| =========                 |                                                 |
| \\      /  F ield         | OpenFOAM: The Open Source CFD Toolbox           |
|  \\    /   O peration     | Version:  4.1                                   |
|   \\  /    A nd           | Web:      www.OpenFOAM.org                      |
|    \\/     M anipulation  |                                                 |
\*---------------------------------------------------------------------------*/
FoamFile
{
    version     2.0;
    format      ascii;
    class       volVectorField;
    location    "500";
    object      U;
}
// * * * * * * * * * * * * * * * * * * * * * * * * * * * * * * * * * * * * * //

dimensions      [0 1 -1 0 0 0 0];

internalField   nonuniform List<vector> 
26785
(
(1.79366e-15 0.0345349 17.4117)
(1.81497e-15 0.0317087 16.6743)
(1.7889e-15 0.0310481 16.0046)
(1.93131e-15 0.0318492 15.3869)
(1.97926e-15 0.0331182 14.7598)
(2.35077e-15 0.0346914 14.1138)
(1.73133e-15 0.0362788 13.4573)
(1.70288e-15 0.0375216 12.7951)
(1.56181e-15 0.0382237 12.1338)
(1.62665e-15 0.038306 11.4839)
(1.0741e-15 0.0377785 10.8555)
(7.48432e-16 0.0367283 10.2565)
(5.02568e-16 0.0352817 9.6927)
(3.49126e-16 0.0336219 9.16703)
(1.88031e-16 0.032028 8.67901)
(-4.16404e-18 0.0308549 8.22334)
(-1.58061e-16 0.0304741 7.7894)
(-3.695e-16 0.0311876 7.36197)
(-2.41757e-16 0.033107 6.92343)
(-1.20161e-15 0.0360772 6.45822)
(-2.43018e-15 0.0397388 5.95604)
(-2.33421e-15 0.0435629 5.4132)
(-4.44528e-15 0.0468899 4.8365)
(-5.54052e-15 0.0495314 4.23853)
(-7.467e-15 0.0525979 3.62216)
(-1.2344e-14 0.0568117 2.98125)
(-1.89818e-14 0.0616954 2.29182)
(-2.22259e-14 0.0624149 1.54329)
(-2.40254e-14 0.0442266 0.899411)
(-2.7787e-14 0.0124932 0.613375)
(-2.71062e-14 -0.0135305 0.736273)
(-1.4852e-14 -0.035105 1.09572)
(-5.48286e-15 -0.0519549 1.60903)
(-1.05869e-15 -0.0665602 2.25275)
(-1.04094e-15 -0.079777 3.01317)
(-1.02138e-15 -0.0925241 3.87966)
(1.19698e-15 -0.105712 4.84829)
(2.47066e-15 -0.120114 5.92196)
(3.30327e-15 -0.135904 7.10683)
(3.83364e-15 -0.151857 8.40314)
(3.76578e-15 -0.165827 9.79511)
(4.21387e-15 -0.175731 11.2475)
(3.97236e-15 -0.18079 12.7125)
(4.54434e-15 -0.181803 14.1462)
(3.78404e-15 -0.178923 15.52)
(4.34974e-15 -0.168286 16.8026)
(4.27736e-15 -0.141919 17.9247)
(4.33429e-15 -0.0934234 18.7695)
(4.25212e-15 -0.0252709 19.1946)
(4.40273e-15 0.0513159 19.0687)
(3.79742e-15 0.117021 18.3824)
(3.19623e-15 0.16061 17.2834)
(3.38236e-15 0.185039 15.9537)
(3.68676e-15 0.197215 14.5187)
(3.88228e-15 0.202623 13.0478)
(4.45135e-15 0.204747 11.5734)
(4.36593e-15 0.205804 10.1063)
(3.12554e-15 0.207708 8.65564)
(4.68089e-15 0.213015 7.19702)
(2.85362e-15 0.229019 5.67653)
(-5.90842e-15 0.267776 4.10961)
(-1.48527e-14 0.301314 2.09234)
(-1.3472e-14 0.26438 -0.410558)
(-5.9917e-15 0.147518 -1.61961)
(1.10237e-15 0.0859831 -2.30033)
(2.19419e-15 0.0584598 -2.74115)
(3.16819e-15 0.0430904 -3.05043)
(3.02296e-15 0.032684 -3.27718)
(2.31434e-15 0.024716 -3.44516)
(1.06702e-15 0.0181599 -3.56736)
(1.49633e-15 0.012406 -3.65091)
(2.93264e-15 0.00693347 -3.69849)
(3.14627e-15 0.00146428 -3.71001)
(3.86192e-15 -0.00404485 -3.68452)
(3.0394e-15 -0.00970636 -3.622)
(9.82848e-16 -0.0156517 -3.52231)
(-1.13074e-15 -0.0220264 -3.38526)
(-4.20344e-15 -0.0287275 -3.21048)
(-9.53576e-15 -0.0350808 -2.99743)
(-1.33839e-14 -0.0400616 -2.7456)
(-1.21829e-14 -0.0435758 -2.45351)
(-4.41375e-15 -0.0476846 -2.11605)
(4.34252e-15 -0.0580938 -1.7306)
(1.16447e-15 -0.081345 -1.28259)
(-4.1882e-15 -0.11969 -0.785071)
(-3.24964e-15 -0.167301 -0.108279)
(-2.90948e-15 -0.202298 0.841441)
(-2.52785e-15 -0.227367 1.88201)
(-2.56737e-15 -0.249946 3.01943)
(-1.33724e-15 -0.269602 4.24578)
(-1.86293e-15 -0.286172 5.55361)
(-2.28818e-15 -0.298981 6.93061)
(-2.45994e-15 -0.307302 8.35811)
(-2.74385e-15 -0.310393 9.81619)
(-2.91971e-15 -0.308302 11.2715)
(-3.60292e-15 -0.300381 12.7174)
(-3.73276e-15 -0.291081 14.0721)
(-3.72788e-15 -0.275413 15.4852)
(-3.81975e-15 -0.278276 16.486)
(-3.64812e-15 -0.258138 18.3481)
(1.74204e-15 0.0978347 17.5108)
(2.22374e-15 0.0903995 16.7447)
(2.12284e-15 0.0893091 16.0525)
(2.20149e-15 0.0924194 15.417)
(1.71859e-15 0.0966222 14.777)
(1.91571e-15 0.101522 14.1234)
(1.25906e-15 0.106386 13.4645)
(1.74556e-15 0.110223 12.8048)
(1.87942e-15 0.112485 12.1508)
(1.40665e-15 0.112944 11.5119)
(1.25673e-15 0.111636 10.8973)
(1.03547e-15 0.108816 10.3136)
(8.24916e-16 0.104854 9.76499)
(7.55729e-16 0.100289 9.25331)
(7.93116e-16 0.0959685 8.77674)
(-1.58912e-16 0.0930011 8.32822)
(-1.50331e-16 0.0925739 7.8946)
(2.54894e-16 0.095635 7.4576)
(-5.21753e-16 0.102448 6.99748)
(3.11139e-16 0.112341 6.49923)
(-3.91254e-16 0.123951 5.95636)
(-7.41291e-16 0.135449 5.37138)
(-2.23978e-15 0.144871 4.75766)
(-4.25392e-15 0.152149 4.1304)
(-4.94447e-15 0.16145 3.48642)
(-1.18643e-14 0.174684 2.81155)
(-2.06489e-14 0.186652 2.0951)
(-2.43756e-14 0.179087 1.37599)
(-2.23606e-14 0.119071 0.849369)
(-1.87249e-14 0.016489 0.717581)
(-8.71066e-15 -0.0712112 0.992396)
(5.91357e-16 -0.129627 1.44329)
(1.80006e-15 -0.173266 2.01173)
(2.6245e-15 -0.212919 2.69372)
(2.99202e-15 -0.250052 3.47975)
(3.46221e-15 -0.286097 4.35689)
(4.50639e-15 -0.322787 5.31741)
(4.78962e-15 -0.361653 6.36041)
(4.77475e-15 -0.4027 7.4889)
(4.66209e-15 -0.442145 8.70029)
(4.61247e-15 -0.473726 9.97616)
(3.94518e-15 -0.491499 11.2792)
(4.61274e-15 -0.4933 12.5602)
(3.54793e-15 -0.481783 13.7736)
(3.50295e-15 -0.459599 14.891)
(3.01064e-15 -0.421383 15.8939)
(4.08157e-15 -0.351459 16.7535)
(3.17387e-15 -0.232428 17.4214)
(4.61551e-15 -0.0596992 17.8165)
(2.17213e-15 0.150894 17.7923)
(3.68695e-15 0.341653 17.2478)
(3.50091e-15 0.470798 16.277)
(3.60611e-15 0.543386 15.0517)
(4.31138e-15 0.579465 13.7007)
(3.94083e-15 0.595628 12.2987)
(4.89623e-15 0.602381 10.882)
(5.17753e-15 0.606792 9.46306)
(3.07407e-15 0.614043 8.05117)
(5.72574e-15 0.630809 6.62848)
(4.68513e-15 0.690837 5.13279)
(-7.03154e-15 0.833205 3.48819)
(-2.01743e-14 0.903514 1.40083)
(-9.92047e-15 0.705127 -0.520239)
(-3.03639e-15 0.404916 -1.40782)
(-4.57934e-15 0.245413 -1.9947)
(-5.1229e-15 0.167489 -2.39899)
(-6.78525e-15 0.122407 -2.69149)
(-8.70229e-15 0.0916799 -2.90901)
(-6.38354e-15 0.0682226 -3.07166)
(-1.55783e-15 0.0487198 -3.19084)
(-3.32766e-16 0.0309513 -3.27219)
(4.46778e-15 0.0131886 -3.3168)
(8.58436e-15 -0.00519427 -3.32358)
(9.48314e-15 -0.0240292 -3.2911)
(7.41561e-15 -0.0433293 -3.21882)
(4.68083e-15 -0.0631668 -3.10703)
(4.34104e-15 -0.0839545 -2.95629)
(1.60939e-15 -0.105998 -2.76655)
(1.63699e-15 -0.128956 -2.53589)
(-1.84858e-15 -0.151692 -2.25998)
(-1.0653e-14 -0.173152 -1.93338)
(-1.27269e-14 -0.194943 -1.55034)
(-4.57025e-15 -0.225579 -1.1033)
(1.97735e-15 -0.28166 -0.56373)
(9.59629e-16 -0.377022 0.149628)
(-4.96349e-15 -0.470248 0.955046)
(-5.25852e-15 -0.543269 1.79483)
(-2.44461e-15 -0.606292 2.69648)
(1.91583e-15 -0.667164 3.67055)
(1.71194e-15 -0.725269 4.71953)
(8.15285e-16 -0.778698 5.84266)
(6.39e-16 -0.824392 7.03541)
(4.98551e-16 -0.859063 8.28685)
(-9.50783e-16 -0.879239 9.58378)
(-1.465e-15 -0.883664 10.8982)
(-1.63506e-15 -0.869487 12.2249)
(-2.10341e-15 -0.847613 13.4858)
(-2.31603e-15 -0.804059 14.8144)
(-2.40379e-15 -0.810645 15.7712)
(-2.33298e-15 -0.730879 17.5232)
(1.8681e-15 0.168835 17.5292)
(1.36892e-15 0.155729 16.7179)
(1.96092e-15 0.152528 15.9846)
(1.52174e-15 0.156694 15.3121)
(1.65344e-15 0.162814 14.641)
(1.5561e-15 0.17005 13.9644)
(1.25024e-15 0.177145 13.2921)
(1.83122e-15 0.1825 12.6294)
(1.68735e-15 0.185291 11.9822)
(1.62309e-15 0.185243 11.3587)
(1.58167e-15 0.182497 10.7657)
(1.56935e-15 0.177529 10.2073)
(1.55139e-15 0.170956 9.68505)
(1.48654e-15 0.163677 9.19848)
(1.60006e-15 0.157157 8.7437)
(1.18509e-15 0.15339 8.31102)
(1.44e-15 0.154512 7.88359)
(9.71037e-16 0.162059 7.43897)
(5.20081e-16 0.176051 6.95501)
(4.18357e-16 0.194666 6.41855)
(-1.36305e-15 0.214964 5.82939)
(-5.83884e-16 0.233571 5.19906)
(6.17897e-16 0.247681 4.54946)
(-1.67224e-15 0.258801 3.89544)
(-3.61277e-15 0.274983 3.22015)
(-1.31397e-14 0.296379 2.50775)
(-2.64363e-14 0.307819 1.78743)
(-2.97999e-14 0.278441 1.1461)
(-2.2683e-14 0.167721 0.749409)
(-9.81005e-15 -0.0124531 0.752702)
(-2.81272e-15 -0.145862 1.08915)
(1.81087e-15 -0.228763 1.544)
(1.13521e-15 -0.295244 2.10802)
(4.03828e-16 -0.358089 2.78138)
(1.63795e-15 -0.416202 3.54494)
(3.53656e-15 -0.471052 4.37746)
(3.13412e-15 -0.525809 5.26863)
(2.49697e-15 -0.583595 6.21941)
(2.37265e-15 -0.644769 7.23619)
(2.13098e-15 -0.70306 8.31907)
(2.26816e-15 -0.747946 9.4509)
(2.62576e-15 -0.769563 10.5952)
(2.97093e-15 -0.764385 11.7038)
(3.78703e-15 -0.737168 12.733)
(4.73133e-15 -0.694176 13.6568)
(5.48925e-15 -0.631747 14.4622)
(5.73305e-15 -0.53231 15.1357)
(5.18035e-15 -0.371644 15.6654)
(4.43891e-15 -0.131348 16.0258)
(3.5957e-15 0.190286 16.0945)
(3.00079e-15 0.505379 15.703)
(2.7688e-15 0.729253 14.8847)
(2.90674e-15 0.860152 13.7932)
(3.22961e-15 0.928362 12.5564)
(3.71037e-15 0.961381 11.2513)
(4.12364e-15 0.977451 9.91719)
(3.74402e-15 0.989062 8.56735)
(3.47701e-15 1.00357 7.21562)
(6.06293e-15 1.03679 5.84761)
(4.84752e-15 1.15891 4.34533)
(-1.05948e-14 1.39725 2.59224)
(-2.32797e-14 1.42961 0.704473)
(-7.68683e-15 1.04431 -0.509766)
(-2.82209e-15 0.619099 -1.17428)
(-9.86656e-16 0.395062 -1.70206)
(3.2422e-15 0.277341 -2.09765)
(4.74746e-17 0.206218 -2.39748)
(-2.74145e-15 0.156744 -2.62676)
(-5.21566e-16 0.118514 -2.80143)
(3.55746e-15 0.0863382 -2.93093)
(8.72148e-15 0.0566387 -3.0199)
(1.38555e-14 0.0266725 -3.06878)
(1.59073e-14 -0.0044684 -3.07642)
(1.42046e-14 -0.0367535 -3.0408)
(1.28786e-14 -0.0698282 -2.96368)
(1.12526e-14 -0.103705 -2.84601)
(7.38469e-15 -0.138799 -2.6886)
(4.57896e-15 -0.175498 -2.49095)
(2.31983e-15 -0.214273 -2.24972)
(-1.06352e-15 -0.25602 -1.9588)
(-7.94636e-15 -0.302464 -1.61264)
(-1.13161e-14 -0.357071 -1.20739)
(-9.33618e-15 -0.427365 -0.741018)
(-5.60735e-15 -0.527204 -0.169199)
(-2.53993e-15 -0.643387 0.497087)
(-2.27168e-15 -0.750731 1.19134)
(-1.62785e-15 -0.846704 1.92658)
(-1.03458e-15 -0.937314 2.71511)
(-4.17901e-16 -1.02714 3.55965)
(-1.93533e-15 -1.11534 4.46042)
(-1.20481e-15 -1.19923 5.417)
(-3.56463e-16 -1.27431 6.42762)
(-1.03596e-15 -1.33541 7.48604)
(-8.20183e-16 -1.37642 8.58508)
(-9.57397e-16 -1.39461 9.70335)
(-1.16837e-15 -1.38385 10.8418)
(-1.75382e-15 -1.36082 11.9281)
(-1.94218e-15 -1.30072 13.0954)
(-2.03093e-15 -1.32176 13.9249)
(-2.2525e-15 -1.19191 15.5147)
(1.86558e-15 0.243879 17.4655)
(1.44114e-15 0.225934 16.6099)
(1.17643e-15 0.220305 15.8365)
(1.25759e-15 0.224394 15.1281)
(1.24187e-15 0.231066 14.427)
(8.77715e-16 0.239225 13.7283)
(1.15945e-15 0.247155 13.0437)
(1.45121e-15 0.252723 12.3794)
(1.30965e-15 0.254918 11.7412)
(1.58773e-15 0.253502 11.1357)
(1.75998e-15 0.248788 10.5673)
(1.94882e-15 0.241487 10.0369)
(1.89404e-15 0.232438 9.54319)
(2.10267e-15 0.222871 9.08288)
(2.74188e-15 0.214903 8.64889)
(2.80829e-15 0.211527 8.22749)
(2.6005e-15 0.215921 7.79745)
(3.06363e-15 0.230099 7.33341)
(2.37237e-15 0.253377 6.81417)
(1.95558e-16 0.282126 6.23233)
(-1.72732e-15 0.311298 5.59662)
(-1.47708e-15 0.335846 4.92821)
(8.91124e-16 0.353149 4.25466)
(5.22323e-16 0.368275 3.58069)
(-2.46037e-15 0.392223 2.87282)
(-1.40351e-14 0.417739 2.13658)
(-2.81203e-14 0.417524 1.45126)
(-2.99409e-14 0.356432 0.912235)
(-1.76297e-14 0.199086 0.617981)
(-6.90976e-15 -0.0541353 0.718055)
(-3.0125e-15 -0.221233 1.06885)
(-1.66728e-15 -0.326697 1.51675)
(-1.66712e-15 -0.416708 2.07658)
(1.55641e-16 -0.500882 2.73616)
(5.06331e-16 -0.575703 3.46617)
(1.90087e-15 -0.64434 4.24385)
(1.15219e-15 -0.712747 5.06282)
(-1.74764e-16 -0.786035 5.92718)
(2.58802e-16 -0.864611 6.84403)
(1.02931e-15 -0.939248 7.81362)
(1.04051e-15 -0.994931 8.82014)
(1.33796e-15 -1.01795 9.82967)
(2.87687e-15 -1.00355 10.7967)
(5.32483e-15 -0.958624 11.6799)
(6.85901e-15 -0.892953 12.455)
(8.33167e-15 -0.80499 13.1115)
(7.9965e-15 -0.678145 13.6413)
(6.26881e-15 -0.486215 14.0499)
(4.40383e-15 -0.199112 14.3481)
(4.68803e-15 0.210314 14.4403)
(3.26855e-15 0.637005 14.131)
(3.97766e-15 0.951646 13.4176)
(2.87667e-15 1.14135 12.4372)
(2.41852e-15 1.24403 11.3079)
(3.28148e-15 1.29689 10.102)
(3.57619e-15 1.32571 8.85583)
(2.51797e-15 1.34721 7.58201)
(3.28355e-15 1.37118 6.3027)
(6.00465e-15 1.43591 4.97883)
(3.86431e-15 1.63573 3.42526)
(-1.45553e-14 1.90584 1.67364)
(-1.93656e-14 1.80838 0.258853)
(-5.09246e-15 1.27358 -0.458662)
(1.85975e-15 0.798289 -1.00997)
(6.4661e-15 0.536737 -1.5012)
(4.59705e-15 0.387166 -1.89204)
(-3.28197e-15 0.291631 -2.19716)
(-3.0296e-15 0.22309 -2.4339)
(-3.50559e-15 0.168962 -2.61524)
(-3.86098e-15 0.122533 -2.74972)
(-1.40547e-15 0.0790925 -2.84183)
(3.27423e-15 0.0351811 -2.89181)
(7.29504e-15 -0.0100697 -2.89864)
(9.03869e-15 -0.0567245 -2.85934)
(1.21713e-14 -0.104133 -2.77748)
(1.15294e-14 -0.152597 -2.65405)
(7.84758e-15 -0.202606 -2.49011)
(5.54641e-15 -0.254376 -2.28522)
(7.94746e-16 -0.308366 -2.03586)
(-1.64658e-15 -0.366275 -1.73598)
(-1.27001e-14 -0.432032 -1.38077)
(-1.79128e-14 -0.511832 -0.968689)
(-4.84457e-15 -0.615129 -0.494713)
(-2.24008e-15 -0.745542 0.0644983)
(-1.66349e-15 -0.88126 0.675166)
(-3.81767e-15 -1.00598 1.31001)
(-3.13505e-15 -1.12185 1.98247)
(-3.67929e-15 -1.23414 2.69764)
(-2.88042e-15 -1.34579 3.45527)
(-2.53854e-15 -1.45601 4.25369)
(2.62726e-17 -1.56193 5.09114)
(7.35321e-16 -1.65836 5.96543)
(5.1588e-16 -1.739 6.87137)
(-3.10331e-17 -1.79569 7.80372)
(-9.02781e-16 -1.82479 8.74477)
(-9.34294e-16 -1.81662 9.69746)
(-1.17973e-15 -1.79456 10.5967)
(-1.03411e-15 -1.72067 11.5663)
(-1.21225e-15 -1.76265 12.2347)
(-1.59027e-15 -1.59685 13.5724)
(1.88195e-15 0.313202 17.3128)
(1.4355e-15 0.290303 16.4194)
(1.53155e-15 0.28457 15.6126)
(1.1193e-15 0.290303 14.8762)
(1.39659e-15 0.298465 14.154)
(1.94265e-15 0.307745 13.4431)
(1.22015e-15 0.31611 12.7562)
(1.6271e-15 0.321129 12.0997)
(1.55083e-15 0.321857 11.4786)
(1.68384e-15 0.318305 10.8974)
(1.84618e-15 0.311106 10.3575)
(1.98946e-15 0.30128 9.85687)
(2.15612e-15 0.289922 9.39131)
(2.31207e-15 0.278673 8.95453)
(3.62413e-15 0.270447 8.53521)
(3.40948e-15 0.269297 8.11415)
(2.85592e-15 0.279234 7.66563)
(3.19479e-15 0.302208 7.16431)
(2.5104e-15 0.336142 6.59532)
(1.07249e-15 0.375124 5.96203)
(-1.74741e-15 0.411885 5.2839)
(-2.17488e-15 0.440215 4.59013)
(2.49645e-16 0.459642 3.90542)
(7.75802e-16 0.480093 3.21252)
(-3.11236e-15 0.511292 2.47336)
(-1.39505e-14 0.533774 1.7414)
(-2.85181e-14 0.513053 1.12625)
(-2.24676e-14 0.418545 0.68715)
(-9.30463e-15 0.219156 0.480388)
(-6.90106e-15 -0.104843 0.65513)
(-5.61092e-15 -0.297163 1.00227)
(-5.7102e-15 -0.424622 1.4411)
(-3.78962e-15 -0.536713 1.9872)
(-1.27114e-15 -0.63869 2.6176)
(-5.476e-16 -0.726452 3.30343)
(-9.57267e-16 -0.806045 4.02796)
(-8.72309e-16 -0.885852 4.78752)
(-6.25141e-16 -0.972024 5.58152)
(-9.23013e-17 -1.0648 6.41107)
(4.60896e-16 -1.15263 7.27601)
(9.32662e-16 -1.21667 8.16589)
(1.9091e-15 -1.23955 9.0536)
(4.03285e-15 -1.21506 9.898)
(5.65068e-15 -1.15209 10.6595)
(7.73796e-15 -1.06394 11.3151)
(9.53611e-15 -0.951436 11.8546)
(1.08372e-14 -0.800777 12.2706)
(1.1483e-14 -0.586863 12.5781)
(1.03807e-14 -0.268079 12.8138)
(9.41127e-15 0.214586 12.9033)
(5.57752e-15 0.744642 12.6332)
(5.56378e-15 1.1453 11.9847)
(3.99769e-15 1.39166 11.0881)
(3.41174e-15 1.52888 10.0513)
(3.35802e-15 1.60329 8.93766)
(3.64828e-15 1.64742 7.77614)
(2.73289e-15 1.68039 6.58028)
(3.48012e-15 1.72003 5.37482)
(4.20009e-15 1.83689 4.06104)
(1.42689e-16 2.10328 2.46008)
(-1.93638e-14 2.31289 0.909403)
(-1.36391e-14 2.04526 0.0225191)
(-2.41873e-15 1.43359 -0.433004)
(4.22908e-15 0.955374 -0.921107)
(2.5637e-15 0.671505 -1.37728)
(-3.31019e-15 0.496201 -1.75418)
(-4.62793e-15 0.378642 -2.05518)
(-5.87074e-15 0.292012 -2.29165)
(-3.89423e-15 0.222451 -2.47373)
(-1.6711e-15 0.162067 -2.60891)
(4.3479e-15 0.105089 -2.70135)
(8.4675e-15 0.0473016 -2.75084)
(8.79734e-15 -0.0122408 -2.7562)
(8.10515e-15 -0.0739414 -2.71325)
(8.24723e-15 -0.136129 -2.62729)
(4.74418e-15 -0.199686 -2.49919)
(5.8652e-15 -0.265425 -2.3302)
(4.4031e-15 -0.33371 -2.12004)
(-5.37998e-16 -0.405145 -1.86552)
(-3.05804e-15 -0.481931 -1.56133)
(-1.50107e-14 -0.568907 -1.20372)
(-2.03627e-14 -0.672854 -0.794136)
(-5.6529e-15 -0.802873 -0.32639)
(2.70243e-15 -0.953948 0.202905)
(-3.21283e-15 -1.10339 0.765688)
(-6.64521e-15 -1.24271 1.35523)
(-5.99531e-15 -1.37551 1.979)
(-5.05248e-15 -1.50542 2.63804)
(-3.42574e-15 -1.63417 3.32982)
(-3.67283e-16 -1.76088 4.05078)
(9.85759e-16 -1.88265 4.79736)
(1.83644e-15 -1.99387 5.56591)
(-9.18354e-17 -2.08752 6.35061)
(-1.98253e-15 -2.15378 7.1458)
(-2.94917e-15 -2.18837 7.93551)
(-2.77241e-15 -2.17791 8.72021)
(-2.22024e-15 -2.15266 9.4423)
(-2.23263e-15 -2.06228 10.2024)
(-2.52493e-15 -2.12397 10.7015)
(-2.44776e-15 -1.93131 11.7242)
(1.89842e-15 0.400085 16.9739)
(1.42256e-15 0.36461 16.0526)
(1.5015e-15 0.354358 15.2286)
(1.00725e-15 0.358436 14.485)
(1.42311e-15 0.365674 13.7657)
(1.6296e-15 0.374363 13.0677)
(1.53248e-15 0.381943 12.4032)
(1.64294e-15 0.385555 11.7766)
(1.90104e-15 0.384266 11.1904)
(1.96813e-15 0.378331 10.6463)
(1.69975e-15 0.3687 10.1426)
(1.79959e-15 0.356672 9.67472)
(2.39303e-15 0.343621 9.23634)
(2.87752e-15 0.331752 8.81855)
(3.46949e-15 0.324993 8.4054)
(3.77653e-15 0.328457 7.97166)
(4.14669e-15 0.346502 7.48835)
(3.35167e-15 0.380119 6.9343)
(1.86912e-15 0.425065 6.30658)
(1.26742e-15 0.472972 5.62289)
(2.08756e-16 0.514774 4.91332)
(-1.59268e-15 0.544548 4.20981)
(3.25452e-16 0.56647 3.52042)
(2.28869e-15 0.594022 2.80244)
(-4.7531e-15 0.629002 2.04255)
(-1.39745e-14 0.63949 1.3512)
(-2.51288e-14 0.590421 0.830259)
(-1.52982e-14 0.464356 0.483082)
(-6.6521e-15 0.24698 0.346097)
(-7.09102e-15 -0.157763 0.581135)
(-5.71605e-15 -0.371188 0.914947)
(-5.04859e-15 -0.519971 1.33671)
(-3.58465e-15 -0.651905 1.85491)
(-3.01001e-15 -0.769423 2.44537)
(-2.94734e-15 -0.869127 3.08787)
(-2.1742e-15 -0.959234 3.77137)
(-1.6034e-15 -1.04875 4.48745)
(-7.57189e-16 -1.1441 5.22361)
(3.11561e-16 -1.24656 5.97319)
(7.68417e-16 -1.34407 6.73852)
(1.01671e-15 -1.41481 7.51864)
(1.80012e-15 -1.43735 8.29578)
(2.24023e-15 -1.40322 9.03339)
(4.71557e-15 -1.32267 9.69272)
(6.37459e-15 -1.21233 10.251)
(8.36486e-15 -1.07515 10.6969)
(1.03993e-14 -0.901327 11.0212)
(1.14448e-14 -0.669715 11.2432)
(1.15259e-14 -0.328836 11.4195)
(1.02686e-14 0.216161 11.4905)
(7.6652e-15 0.840805 11.2299)
(5.84034e-15 1.31974 10.618)
(4.70892e-15 1.61736 9.78497)
(4.00632e-15 1.78678 8.82784)
(3.61799e-15 1.88304 7.798)
(4.32861e-15 1.94372 6.71556)
(3.50139e-15 1.98972 5.59761)
(3.36719e-15 2.05699 4.45328)
(1.4412e-15 2.2394 3.11619)
(-4.11075e-15 2.52738 1.54922)
(-2.19731e-14 2.60242 0.367378)
(-8.23465e-15 2.18523 -0.11017)
(-3.3357e-15 1.55985 -0.449557)
(-2.21437e-15 1.09551 -0.886266)
(-8.22256e-15 0.797162 -1.30292)
(-1.08795e-14 0.600867 -1.65808)
(-8.90538e-15 0.463522 -1.94829)
(-8.51337e-15 0.359576 -2.17939)
(-3.8456e-15 0.274645 -2.35851)
(1.98463e-15 0.200024 -2.49186)
(9.1794e-15 0.129055 -2.58303)
(1.52424e-14 0.0569158 -2.63112)
(2.25926e-14 -0.0173641 -2.63436)
(2.51287e-14 -0.0942492 -2.58784)
(2.05498e-14 -0.170997 -2.49815)
(1.1989e-14 -0.248987 -2.3663)
(8.45334e-15 -0.329374 -2.19383)
(2.86146e-15 -0.412926 -1.98074)
(-3.28042e-15 -0.500776 -1.72431)
(-8.21441e-15 -0.595809 -1.42016)
(-1.54417e-14 -0.703235 -1.06607)
(-1.83736e-14 -0.829169 -0.665918)
(-5.08118e-15 -0.980905 -0.213175)
(4.47365e-15 -1.14847 0.287516)
(-3.29006e-15 -1.3111 0.81481)
(-7.62084e-15 -1.4646 1.36963)
(-5.62957e-15 -1.61244 1.95612)
(-4.62154e-15 -1.75694 2.5731)
(-2.40185e-15 -1.89895 3.21641)
(-9.60929e-16 -2.03744 3.88078)
(1.1732e-15 -2.16952 4.56065)
(9.46747e-16 -2.28925 5.25023)
(-2.64763e-15 -2.38911 5.94202)
(-4.75011e-15 -2.45787 6.62835)
(-4.60179e-15 -2.49059 7.29397)
(-3.89122e-15 -2.46997 7.93288)
(-3.77823e-15 -2.43216 8.49559)
(-3.88456e-15 -2.31728 9.04297)
(-4.02702e-15 -2.38962 9.37407)
(-3.92918e-15 -2.17553 10.025)
(1.85622e-15 0.471882 16.6316)
(1.83689e-15 0.429389 15.6912)
(1.3618e-15 0.417742 14.8523)
(1.62971e-15 0.421598 14.1002)
(1.60647e-15 0.428284 13.3814)
(1.88333e-15 0.436148 12.6954)
(1.65847e-15 0.442495 12.0542)
(1.71223e-15 0.444342 11.4599)
(1.94704e-15 0.440946 10.9113)
(1.82949e-15 0.432864 10.4053)
(1.50718e-15 0.421323 9.93647)
(1.71322e-15 0.407837 9.4973)
(1.80236e-15 0.39408 9.07956)
(2.16994e-15 0.383035 8.67134)
(2.95521e-15 0.379885 8.25145)
(2.92943e-15 0.390665 7.78927)
(2.8272e-15 0.419275 7.25574)
(3.60771e-15 0.464636 6.63909)
(2.67088e-15 0.519699 5.95261)
(2.17733e-15 0.573923 5.22884)
(3.71589e-16 0.617584 4.50477)
(-2.17011e-15 0.647512 3.80443)
(1.2554e-15 0.674085 3.10575)
(2.78436e-15 0.709232 2.35668)
(-6.24085e-15 0.740878 1.60213)
(-1.283e-14 0.729958 0.986082)
(-2.11121e-14 0.649213 0.564616)
(-1.7957e-14 0.486537 0.309418)
(-7.55901e-15 0.261077 0.220533)
(-3.95795e-15 -0.214129 0.505698)
(-5.89363e-15 -0.442334 0.818269)
(-4.54248e-15 -0.610667 1.21296)
(-4.19519e-15 -0.760547 1.69315)
(-4.51788e-15 -0.893092 2.24011)
(-4.80746e-15 -1.00552 2.84387)
(-3.33968e-15 -1.10633 3.49434)
(-2.02897e-15 -1.20339 4.17406)
(-6.58023e-16 -1.3035 4.85874)
(6.43713e-16 -1.41085 5.53546)
(9.51712e-16 -1.51478 6.20955)
(1.02952e-15 -1.59114 6.88956)
(2.70427e-16 -1.61386 7.56734)
(1.28301e-15 -1.57119 8.21119)
(1.52286e-15 -1.47418 8.78325)
(2.9188e-15 -1.34256 9.26074)
(5.13101e-15 -1.18111 9.63043)
(8.03692e-15 -0.984986 9.87911)
(8.05069e-15 -0.739394 10.0286)
(6.62126e-15 -0.38357 10.1508)
(1.96275e-15 0.217919 10.1925)
(8.23713e-16 0.931248 9.91869)
(-7.06841e-16 1.48041 9.32403)
(2.03891e-15 1.82259 8.54162)
(3.38043e-15 2.02084 7.6552)
(3.56944e-15 2.13851 6.7018)
(4.23581e-15 2.21596 5.69327)
(4.10261e-15 2.27855 4.65009)
(3.5507e-15 2.38847 3.54208)
(-1.54984e-15 2.63039 2.17855)
(-7.83501e-15 2.87521 0.779914)
(-2.2386e-14 2.78444 0.0220277)
(-6.59867e-15 2.26947 -0.213912)
(-8.3824e-15 1.66722 -0.499217)
(-7.20727e-15 1.21965 -0.88433)
(-9.80729e-15 0.912219 -1.25961)
(-6.43084e-15 0.699579 -1.58942)
(-7.9884e-15 0.545269 -1.86503)
(-5.22522e-15 0.425554 -2.08741)
(-3.53975e-15 0.326143 -2.26096)
(-1.68686e-15 0.237847 -2.39071)
(1.39493e-15 0.153242 -2.4796)
(5.44039e-15 0.0668801 -2.52589)
(1.21736e-14 -0.0224114 -2.52684)
(1.33433e-14 -0.115058 -2.47711)
(1.51327e-14 -0.206853 -2.38426)
(1.54517e-14 -0.299603 -2.24955)
(1.02002e-14 -0.394723 -2.07488)
(2.74097e-15 -0.493311 -1.86065)
(-2.2099e-15 -0.597 -1.60479)
(-7.60026e-15 -0.709309 -1.30388)
(-1.85184e-14 -0.835701 -0.95704)
(-2.44598e-14 -0.981422 -0.569599)
(-6.7822e-15 -1.15135 -0.135747)
(-1.62217e-15 -1.33269 0.337644)
(-3.09418e-15 -1.5078 0.835315)
(-4.92478e-15 -1.67498 1.36102)
(-5.60956e-15 -1.83676 1.91706)
(-4.85085e-15 -1.99416 2.50117)
(-1.94522e-15 -2.14717 3.10836)
(-1.76931e-17 -2.29437 3.73204)
(1.07949e-15 -2.43272 4.36485)
(-1.39998e-15 -2.55588 4.99847)
(-5.02104e-15 -2.65585 5.62326)
(-5.48443e-15 -2.72031 6.22863)
(-4.97284e-15 -2.74314 6.79975)
(-4.31897e-15 -2.70293 7.3207)
(-4.63002e-15 -2.6384 7.75064)
(-5.15903e-15 -2.48643 8.09293)
(-5.74857e-15 -2.55093 8.26784)
(-5.6512e-15 -2.31544 8.50383)
(1.09334e-15 0.548 16.2598)
(1.52582e-15 0.498661 15.3145)
(1.06951e-15 0.483914 14.4764)
(1.11575e-15 0.486024 13.7308)
(1.38918e-15 0.490817 13.0247)
(1.23352e-15 0.496532 12.3587)
(1.26184e-15 0.500419 11.7444)
(1.51603e-15 0.499581 11.1819)
(1.3761e-15 0.493622 10.6667)
(1.62402e-15 0.483421 10.1921)
(1.62308e-15 0.470398 9.74945)
(1.42762e-15 0.456188 9.32926)
(1.24393e-15 0.442815 8.92096)
(1.29846e-15 0.434245 8.50847)
(1.68559e-15 0.437017 8.0648)
(2.87449e-15 0.457641 7.55623)
(3.71402e-15 0.498503 6.95929)
(3.9955e-15 0.555415 6.27733)
(3.08088e-15 0.61833 5.5415)
(2.35103e-15 0.675401 4.79573)
(7.67572e-17 0.718245 4.07512)
(-2.1589e-15 0.749193 3.38087)
(2.05676e-15 0.783333 2.6594)
(4.50959e-15 0.823074 1.88669)
(-7.14151e-15 0.841811 1.17792)
(-1.235e-14 0.803978 0.660318)
(-2.32557e-14 0.690806 0.331738)
(-1.58255e-14 0.510342 0.158888)
(-6.4599e-15 0.206387 0.155897)
(-3.64244e-15 -0.272657 0.43512)
(-7.30382e-15 -0.508725 0.718202)
(-5.55828e-15 -0.694946 1.07812)
(-5.80338e-15 -0.861679 1.51518)
(-6.64983e-15 -1.00977 2.01805)
(-6.02488e-15 -1.13619 2.58468)
(-3.69327e-15 -1.2479 3.2022)
(-2.21088e-15 -1.35064 3.84603)
(-4.73836e-16 -1.45187 4.48467)
(1.00322e-15 -1.55991 5.09927)
(1.32419e-15 -1.6671 5.69481)
(1.49048e-15 -1.74789 6.28605)
(3.5154e-16 -1.77133 6.87408)
(-6.41671e-16 -1.72147 7.43364)
(-1.71619e-15 -1.60934 7.92919)
(-8.78621e-16 -1.45747 8.33837)
(1.63227e-15 -1.2719 8.64515)
(4.74978e-15 -1.05347 8.83048)
(8.35368e-15 -0.795926 8.91758)
(7.68733e-15 -0.429417 8.9913)
(3.32942e-15 0.225805 8.99565)
(1.18452e-15 1.02148 8.69044)
(-1.32972e-15 1.63103 8.10086)
(3.89481e-16 2.00998 7.36244)
(2.48781e-15 2.23338 6.54126)
(3.21276e-15 2.37173 5.65825)
(4.19847e-15 2.46601 4.71919)
(3.95147e-15 2.55191 3.74215)
(3.63213e-15 2.71627 2.6436)
(-3.89923e-15 2.98705 1.29859)
(-9.29436e-15 3.12989 0.195958)
(-2.20073e-14 2.88172 -0.195877)
(-1.03054e-14 2.32639 -0.318408)
(-1.48858e-14 1.76004 -0.567313)
(-9.00052e-15 1.32849 -0.901613)
(-5.43631e-15 1.01647 -1.23699)
(-2.71758e-15 0.791583 -1.54035)
(-6.93234e-15 0.622917 -1.79894)
(-6.84024e-15 0.488934 -2.00997)
(-9.55699e-15 0.37593 -2.1758)
(-1.25071e-14 0.274501 -2.30052)
(-1.41647e-14 0.176583 -2.38645)
(-1.42174e-14 0.0761729 -2.4308)
(-7.8152e-15 -0.0281244 -2.42951)
(-1.37177e-15 -0.136488 -2.37704)
(4.86617e-15 -0.24316 -2.28165)
(8.82978e-15 -0.350358 -2.145)
(6.87395e-15 -0.459809 -1.96933)
(1.69544e-15 -0.572952 -1.75552)
(-1.83999e-15 -0.691834 -1.50219)
(-7.18784e-15 -0.820406 -1.20679)
(-1.93695e-14 -0.964176 -0.869555)
(-2.30221e-14 -1.12754 -0.496469)
(-8.53888e-15 -1.31323 -0.0825995)
(-4.18097e-15 -1.5072 0.36546)
(-5.25367e-15 -1.6947 0.837117)
(-6.93665e-15 -1.87532 1.33709)
(-6.9158e-15 -2.05054 1.86681)
(-4.69747e-15 -2.22008 2.42377)
(-2.00061e-15 -2.383 3.00283)
(6.74619e-16 -2.53725 3.59667)
(2.33746e-16 -2.67927 4.19644)
(-3.48822e-15 -2.80218 4.79154)
(-5.87112e-15 -2.89748 5.37035)
(-4.49781e-15 -2.952 5.91937)
(-3.79862e-15 -2.95751 6.4241)
(-4.50596e-15 -2.88821 6.85662)
(-5.41727e-15 -2.77921 7.18438)
(-6.31997e-15 -2.57404 7.33724)
(-6.83078e-15 -2.6029 7.37502)
(-6.48568e-15 -2.341 7.16525)
(8.22796e-16 0.623079 15.8628)
(8.56627e-16 0.566828 14.9203)
(5.01778e-16 0.547943 14.093)
(3.2827e-16 0.547384 13.3657)
(7.50643e-16 0.549786 12.6844)
(6.14516e-16 0.553134 12.0485)
(2.61015e-16 0.554493 11.4671)
(1.08493e-15 0.551049 10.9374)
(1.15651e-15 0.542795 10.4517)
(1.74108e-15 0.530929 10.0012)
(2.57048e-15 0.517045 9.57561)
(2.39093e-15 0.502972 9.16416)
(2.111e-15 0.491297 8.75317)
(1.75824e-15 0.487177 8.32077)
(1.56464e-15 0.498305 7.83466)
(2.34286e-15 0.530788 7.2629)
(3.32357e-15 0.584319 6.59498)
(3.4808e-15 0.650999 5.85398)
(1.98773e-15 0.718306 5.08678)
(2.22659e-15 0.774738 4.34053)
(6.77706e-16 0.815907 3.63443)
(-1.98142e-15 0.850957 2.93558)
(4.17843e-15 0.893814 2.18063)
(5.0923e-15 0.930611 1.41461)
(-7.13228e-15 0.927372 0.793313)
(-9.94456e-15 0.862177 0.383762)
(-2.12687e-14 0.722376 0.139951)
(-1.2911e-14 0.535442 0.0357844)
(-6.37642e-15 0.146068 0.121108)
(-3.8926e-15 -0.323061 0.367534)
(-6.75146e-15 -0.568689 0.618986)
(-5.8263e-15 -0.771784 0.939787)
(-5.99803e-15 -0.954816 1.33142)
(-8.1457e-15 -1.11921 1.78977)
(-6.93847e-15 -1.26064 2.31725)
(-4.6982e-15 -1.38343 2.8977)
(-2.55234e-15 -1.49104 3.50354)
(-1.04704e-16 -1.5912 4.10081)
(1.51594e-15 -1.69657 4.66442)
(1.87139e-15 -1.8037 5.195)
(1.51437e-15 -1.88708 5.7083)
(-1.49456e-15 -1.91133 6.21398)
(-2.78137e-15 -1.85571 6.69613)
(-4.57984e-15 -1.73025 7.12361)
(-3.98768e-15 -1.5596 7.47506)
(-2.47506e-15 -1.35029 7.73036)
(1.57086e-16 -1.10949 7.86215)
(3.76976e-15 -0.841731 7.89476)
(7.39344e-15 -0.46703 7.92554)
(7.25281e-15 0.242933 7.88513)
(3.67579e-15 1.11487 7.53459)
(5.7842e-16 1.77358 6.94468)
(7.17282e-16 2.18101 6.24854)
(2.24489e-15 2.42616 5.48947)
(2.8688e-15 2.58445 4.6717)
(4.23924e-15 2.69656 3.79747)
(3.21781e-15 2.81499 2.87201)
(2.63166e-15 3.03425 1.76913)
(-6.43766e-15 3.28646 0.527934)
(-1.05735e-14 3.29058 -0.205075)
(-2.32261e-14 2.92385 -0.351682)
(-1.64128e-14 2.36905 -0.42818)
(-1.89836e-14 1.83961 -0.642886)
(-9.07801e-15 1.42328 -0.930463)
(-5.14516e-15 1.11025 -1.22889)
(-2.76376e-15 0.876426 -1.50564)
(-7.83318e-15 0.695685 -1.74542)
(-8.64784e-15 0.548977 -1.94309)
(-1.15803e-14 0.423473 -2.09959)
(-1.54537e-14 0.309712 -2.21835)
(-1.9204e-14 0.199008 -2.30104)
(-2.14297e-14 0.0847578 -2.34349)
(-1.79734e-14 -0.034675 -2.34012)
(-1.22458e-14 -0.158803 -2.2853)
(-6.60541e-16 -0.280259 -2.18792)
(8.09572e-15 -0.401577 -2.05008)
(3.58188e-15 -0.524846 -1.87443)
(-1.46145e-16 -0.651899 -1.66232)
(-2.85208e-15 -0.785171 -1.41304)
(-5.24561e-15 -0.928885 -1.12481)
(-1.46284e-14 -1.08845 -0.798639)
(-2.18142e-14 -1.26751 -0.4406)
(-7.87537e-15 -1.4671 -0.0465735)
(-3.37024e-15 -1.67297 0.378062)
(-6.9692e-15 -1.87282 0.826228)
(-7.18309e-15 -2.06676 1.30282)
(-7.11755e-15 -2.25524 1.80895)
(-4.02028e-15 -2.43679 2.34242)
(-7.59335e-16 -2.6094 2.89842)
(9.63655e-16 -2.77007 3.46926)
(-9.43002e-16 -2.91445 4.04509)
(-3.92479e-15 -3.03491 4.6137)
(-4.17241e-15 -3.12243 5.16214)
(-3.41337e-15 -3.1631 5.67448)
(-4.00799e-15 -3.14534 6.13648)
(-4.95346e-15 -3.03843 6.50786)
(-5.92287e-15 -2.86475 6.76169)
(-6.5594e-15 -2.58837 6.74331)
(-6.84626e-15 -2.54415 6.66364)
(-6.3733e-15 -2.24717 5.96112)
(1.77018e-15 0.687796 15.4509)
(1.60271e-15 0.626332 14.5193)
(1.44268e-15 0.606226 13.7112)
(1.22422e-15 0.6044 13.0101)
(8.80016e-16 0.604827 12.3605)
(9.72918e-16 0.605884 11.7596)
(1.43848e-15 0.604826 11.2132)
(1.29466e-15 0.599093 10.715)
(1.45825e-15 0.589069 10.2543)
(1.63681e-15 0.57619 9.82093)
(2.1699e-15 0.562214 9.40447)
(2.93585e-15 0.549348 8.99238)
(3.24322e-15 0.54104 8.56599)
(3.18451e-15 0.543667 8.09657)
(3.40054e-15 0.565432 7.54952)
(2.9181e-15 0.610803 6.90233)
(3.42598e-15 0.67579 6.16492)