/*--------------------------------*- C++ -*----------------------------------*\
| =========                 |                                                 |
| \\      /  F ield         | OpenFOAM: The Open Source CFD Toolbox           |
|  \\    /   O peration     | Version:  4.1                                   |
|   \\  /    A nd           | Web:      www.OpenFOAM.org                      |
|    \\/     M anipulation  |                                                 |
\*---------------------------------------------------------------------------*/
FoamFile
{
    version     2.0;
    format      ascii;
    class       volScalarField;
    location    "1100";
    object      p;
}
// * * * * * * * * * * * * * * * * * * * * * * * * * * * * * * * * * * * * * //

dimensions      [0 2 -2 0 0 0 0];

internalField   nonuniform List<scalar> 
26785
(
39.2686
43.8802
47.6154
50.4781
51.2521
50.4721
49.5558
49.1923
49.0367
48.8549
48.6497
48.414
48.1325
47.7931
47.403
46.9591
46.4535
45.8799
45.2312
44.4987
43.6828
42.8037
41.8986
41.0051
40.1468
39.3321
38.5597
37.8232
37.1095
36.4003
35.6782
34.9415
34.2267
33.6158
33.2087
33.0416
32.9758
32.6032
31.1831
27.9964
22.8058
15.8923
8.05863
0.630349
-4.62265
-6.33816
-4.59088
-0.811871
3.19269
6.34581
8.22635
8.62398
7.37921
4.32306
-0.685081
-7.60694
-16.1205
-25.6467
-35.4746
-44.9226
-53.4967
-61.0062
-67.5253
-73.2165
-78.187
-82.4144
-85.7235
-87.8165
-88.3493
-87.02
-83.6627
-78.3296
-71.3378
-63.2181
-54.5542
-45.8278
-37.3631
-29.3497
-21.8907
-15.0477
-8.87192
-3.41832
1.25532
5.09642
8.06563
10.1424
11.3299
11.6602
11.202
10.0615
8.39196
6.41477
4.39526
2.58662
1.18368
0.247523
-0.185416
-0.363175
0.0275613
-0.479176
39.3153
43.8723
47.5999
50.4382
51.1902
50.4328
49.5415
49.1901
49.0367
48.8546
48.6494
48.4138
48.1325
47.7932
47.4031
46.9589
46.453
45.8791
45.2298
44.4963
43.6789
42.7981
41.8916
40.9969
40.1378
39.3226
38.5497
37.8127
37.0985
36.3882
35.6641
34.924
34.2046
33.5892
33.1806
33.0182
32.9644
32.608
31.1948
27.9965
22.7806
15.8302
7.94887
0.464183
-4.82775
-6.52592
-4.70539
-0.831873
3.23809
6.41997
8.30743
8.70132
7.44708
4.37583
-0.653903
-7.60156
-16.1416
-25.6925
-35.5419
-45.0065
-53.5897
-61.0981
-67.6115
-73.3009
-78.2789
-82.5265
-85.8672
-87.9989
-88.5698
-87.2694
-83.9226
-78.5748
-71.545
-63.3761
-54.6651
-45.9009
-37.4084
-29.3746
-21.8988
-15.0394
-8.84594
-3.37326
1.31984
5.17925
8.16395
10.2517
11.4441
11.7715
11.3021
10.1402
8.43808
6.422
4.36434
2.52571
1.10691
0.169828
-0.253523
-0.413186
-0.00942741
-0.479485
39.3663
43.8453
47.5654
50.3672
51.0736
50.357
49.5175
49.1867
49.0363
48.8536
48.6488
48.4133
48.1324
47.7932
47.4028
46.9577
46.4509
45.8761
45.2257
44.4901
43.6697
42.7855
41.8759
40.9791
40.1186
39.3025
38.529
37.7914
37.0761
36.3639
35.6357
34.8885
34.1593
33.5339
33.1205
32.965
32.9334
32.6092
31.212
27.9952
22.735
15.7173
7.74525
0.148001
-5.22665
-6.89628
-4.93561
-0.879283
3.31524
6.55018
8.45
8.83821
7.5699
4.47754
-0.580238
-7.55848
-16.1276
-25.7074
-35.5883
-45.09
-53.7128
-61.2466
-67.7651
-73.4564
-78.4516
-82.7404
-86.1463
-88.3577
-89.0081
-87.7686
-84.4453
-79.0695
-71.9638
-63.6963
-54.8912
-46.0514
-37.5036
-29.4291
-21.92
-15.0282
-8.79991
-3.28968
1.44165
5.33698
8.35213
10.4616
11.6638
11.9861
11.4952
10.2916
8.52621
6.43525
4.30415
2.40671
0.956176
0.0172488
-0.386829
-0.510648
-0.0799477
-0.481929
39.4245
43.8087
47.5142
50.272
50.9198
50.256
49.4868
49.1812
49.0347
48.8521
48.6478
48.4127
48.1321
47.7929
47.4016
46.9551
46.4468
45.8705
45.2182
44.4795
43.6546
42.7653
41.8514
40.9516
40.0895
39.2724
38.498
37.7593
37.0425
36.3271
35.5927
34.8343
34.0894
33.4473
33.0248
32.8783
32.8795
32.6035
31.2322
27.9933
22.6777
15.5725
7.47672
-0.284577
-5.79091
-7.43219
-5.27858
-0.962356
3.40832
6.71833
8.63845
9.02434
7.74278
4.62724
-0.463291
-7.47752
-16.0801
-25.6906
-35.6036
-45.1441
-53.8151
-61.3955
-67.9415
-73.6528
-78.6847
-83.0416
-86.548
-88.8801
-89.6509
-88.5051
-85.2201
-79.8052
-72.588
-64.1744
-55.2303
-46.2797
-37.6509
-29.5172
-21.9595
-15.0204
-8.74089
-3.17531
1.61248
5.56102
8.62148
10.7637
11.9813
12.297
11.7752
10.5107
8.65351
6.4541
4.2161
2.23191
0.734312
-0.206706
-0.580941
-0.651223
-0.178425
-0.488092
39.4815
43.7558
47.4422
50.1545
50.7397
50.1415
49.4518
49.1731
49.0318
48.8499
48.6464
48.4116
48.1313
47.7917
47.3991
46.9504
46.44
45.8619
45.2069
44.4642
43.6335
42.7379
41.8185
40.9152
40.0512
39.2329
38.4574
37.7174
36.9983
36.2784
35.5345
34.7596
33.9912
33.3243
32.8872
32.7513
32.7957
32.5852
31.2537
27.9977
22.6272
15.4265
7.18397
-0.787632
-6.48
-8.10549
-5.72383
-1.08664
3.49742
6.89653
8.84365
9.23383
7.94432
4.80902
-0.311256
-7.35741
-15.9884
-25.6251
-35.5676
-45.148
-53.874
-61.5178
-68.1167
-73.8692
-78.9573
-83.4083
-87.0495
-89.5428
-90.4761
-89.4598
-86.2323
-80.7709
-73.4087
-64.8036
-55.6779
-46.5834
-37.8503
-29.6407
-22.0207
-15.0204
-8.67419
-3.03611
1.82587
5.84452
8.96501
11.151
12.3899
12.6985
12.137
10.7932
8.81712
6.47716
4.09971
2.00127
0.44183
-0.500549
-0.8328
-0.831304
-0.299794
-0.499472
39.5494
43.6788
47.345
50.0164
50.5368
50.0204
49.4135
49.162
49.0273
48.8467
48.6441
48.4099
48.1296
47.7893
47.3948
46.9435
46.4305
45.85
45.1921
44.4445
43.6069
42.7036
41.7778
40.8706
40.0045
39.1849
38.4079
37.666
36.9435
36.2166
35.459
34.6601
33.8592
33.159
32.7034
32.5818
32.6814
32.555
31.2805
28.0183
22.6008
15.3046
6.8999
-1.32435
-7.26451
-8.89832
-6.26809
-1.25658
3.56881
7.06484
9.04417
9.44641
8.15531
5.00486
-0.140289
-7.21256
-15.8653
-25.5195
-35.4811
-45.0926
-53.8694
-61.5816
-68.2541
-74.0774
-79.2484
-83.8199
-87.6289
-90.3225
-91.4604
-90.6116
-87.4648
-81.9533
-74.4142
-65.5735
-56.2257
-46.9569
-38.0986
-29.7988
-22.1047
-15.0309
-8.60361
-2.87666
2.07674
6.1822
9.3775
11.6186
12.8853
13.187
12.5777
11.1367
9.01568
6.50361
3.95386
1.71309
0.0771816
-0.864521
-1.14021
-1.04733
-0.438983
-0.516644
39.6343
43.5854
47.2277
49.8594
50.3107
49.8952
49.3718
49.1479
49.0212
48.8426
48.6409
48.4072
48.1268
47.7855
47.3886
46.9341
46.4183
45.8352
45.1739
44.4207
43.5751
42.663
41.7301
40.8184
39.95
39.1289
38.3501
37.6053
36.8775
36.1403
35.3628
34.5319
33.6898
32.95
32.4744
32.3719
32.5383
32.5127
31.3129
28.0593
22.6109
15.2309
6.66111
-1.85003
-8.10728
-9.79032
-6.90741
-1.47411
3.61621
7.20937
9.22227
9.6431
8.35761
5.19908
0.0361341
-7.05453
-15.72
-25.3804
-35.3483
-44.9803
-53.8021
-61.5825
-68.3371
-74.252
-79.5339
-84.2551
-88.2627
-91.192
-92.5749
-91.934
-88.8971
-83.3371
-75.5914
-66.4718
-56.8631
-47.3916
-38.3898
-29.9877
-22.2101
-15.0524
-8.53098
-2.69962
2.36196
6.57068
9.85561
12.1636
13.465
13.7605
13.0959
11.5403
9.2486
6.53247
3.77605
1.36296
-0.364521
-1.3019
-1.50302
-1.29671
-0.591873
-0.539523
39.6946
43.4727
47.0995
49.6793
50.0648
49.7687
49.3274
49.1313
49.0135
48.8374
48.6367
48.4036
48.1229
47.7801
47.3803
46.9224
46.4034
45.8177
45.1528
44.3933
43.5386
42.6166
41.6755
40.759
39.8883
39.0653
38.284
37.535
36.7994
36.0471
35.2432
34.3726
33.4829
32.7003
32.2057
32.128
32.3699
32.4565
31.3442
28.1126
22.6569
15.2237
6.51068
-2.3007
-8.94925
-10.7481
-7.62822
-1.74031
3.63856
7.31976
9.36206
9.80617
8.53283
5.36751
0.186588
-6.91547
-15.5783
-25.2245
-35.1772
-44.8113
-53.6665
-61.5112
-68.352
-74.3716
-79.7856
-84.6846
-88.923
-92.1222
-93.7894
-93.3985
-90.5068
-84.9061
-76.9261
-67.4846
-57.5768
-47.8763
-38.7152
-30.202
-22.3341
-15.0844
-8.45734
-2.50689
2.67912
7.00738
10.3969
12.7839
14.1276
14.4181
13.6914
12.0043
9.5162
6.5632
3.56303
0.944323
-0.891099
-1.8186
-1.9226
-1.57732
-0.754963
-0.567171
39.7206
43.3417
46.9691
49.4685
49.8059
49.6439
49.2821
49.1128
49.0044
48.8311
48.6316
48.399
48.1176
47.773
47.37
46.9083
46.3863
45.7979
45.1291
44.3625
43.4977
42.5645
41.6146
40.693
39.8198
38.9947
38.21
37.4548
36.7078
35.9353
35.0986
34.1826
33.2424
32.4179
31.9087
31.8626
32.1824
32.3772
31.3328
28.115
22.6875
15.2682
6.48251
-2.58967
-9.69021
-11.7024
-8.38605
-2.04543
3.63753
7.38952
9.44687
9.91417
8.64661
5.45646
0.254385
-6.84046
-15.4734
-25.077
-34.9873
-44.6
-53.4714
-61.3714
-68.298
-74.4291
-79.9902
-85.0869
-89.5826
-93.0827
-95.0729
-94.977
-92.2727
-86.6462
-78.4054
-68.5978
-58.3527
-48.3982
-39.0651
-30.4356
-22.4742
-15.127
-8.38441
-2.30104
3.02533
7.48934
10.9987
13.4776
14.8717
15.1592
14.364
12.529
9.81914
6.59534
3.3106
0.448075
-1.51372
-2.42339
-2.40173
-1.88725
-0.925201
-0.597941
39.6999
43.1987
46.8294
49.2287
49.5396
49.5245
49.2376
49.0931
48.994
48.8238
48.6256
48.3932
48.111
47.7641
47.3576
46.8921
46.3671
45.7762
45.1032
44.3289
43.4526
42.5071
41.5477
40.6208
39.745
38.9175
38.1281
37.3642
36.6017
35.804
34.9297
33.9656
32.9768
32.118
31.6069
31.6022
31.9872
32.2332
31.1622
27.949
22.6198
15.3185
6.58315
-2.62752
-10.1773
-12.5231
-9.08091
-2.35945
3.61199
7.41167
9.45839
9.94216
8.65174
5.42333
0.224576
-6.83342
-15.4152
-24.9556
-34.7998
-44.3666
-53.2324
-61.1721
-68.1765
-74.4189
-80.133
-85.4389
-90.2067
-94.0321
-96.3854
-96.6408
-94.179
-88.5482
-80.0181
-69.7967
-59.1752
-48.9438
-39.4295
-30.6827
-22.629
-15.1821
-8.31608
-2.08687
3.39549
8.01158
11.6565
14.241
15.695
15.9821
15.113
13.1143
10.1583
6.62875
3.01381
-0.137373
-2.24684
-3.1276
-2.94405
-2.2242
-1.09948
-0.629602
39.6483
43.0519
46.6606
48.9686
49.2717
49.4163
49.1962
49.0726
48.9826
48.8156
48.6186
48.3864
48.1028
47.7535
47.3432
46.8739
46.3462
45.7529
45.0756
44.2927
43.4036
42.4446
41.475
40.5429
39.6647
38.8342
38.0385
37.263
36.481
35.6541
34.7398
33.7291
32.7016
31.8294
31.3426
31.384
31.79
31.9644
30.7961
27.6334
22.457
15.3494
6.79841
-2.34502
-10.207
-13.0009
-9.52739
-2.61513
3.56827
7.37774
9.40156
9.88475
8.54741
5.31514
0.154813
-6.85818
-15.3901
-24.8639
-34.6311
-44.1357
-52.9761
-60.9345
-67.9978
-74.3396
-80.2064
-85.7337
-90.7948
-94.9627
-97.6998
-98.3545
-96.203
-90.5982
-81.7476
-71.0612
-60.0244
-49.4962
-39.7966
-30.9373
-22.7976
-15.2531
-8.25853
-1.87201
3.78135
8.56588
12.363
15.0682
16.5926
16.8829
15.9354
13.759
10.5345
6.66366
2.66686
-0.82671
-3.1089
-3.94539
-3.55364
-2.58502
-1.27426
-0.659415
39.6053
42.9124
46.4554
48.6959
49.0059
49.3208
49.1598
49.0518
48.9704
48.8065
48.6107
48.3785
48.0933
47.7412
47.327
46.8541
46.324
45.7286
45.0466
44.2541
43.3509
42.3773
41.3973
40.4601
39.5797
38.7456
37.9416
37.1514
36.3468
35.4883
34.5344
33.4854
32.4423
31.5917
31.1524
31.2207
31.5938
31.6377
30.3859
27.2658
22.234
15.3489
7.09406
-1.73562
-9.6152
-12.8971
-9.51996
-2.69447
3.53365
7.30161
9.31428
9.73841
8.37359
5.19156
0.0865759
-6.88676
-15.379
-24.7927
-34.4845
-43.9234
-52.7292
-60.6927
-67.8019
-74.2373
-80.2645
-86.0349
-91.4212
-95.9568
-99.0948
-100.148
-98.3508
-92.7902
-83.5753
-72.3666
-60.8763
-50.0355
-40.152
-31.1907
-22.9771
-15.3424
-8.21847
-1.66604
4.17171
9.14046
13.1068
15.9494
17.5567
17.8545
16.8256
14.46
10.9486
6.70072
2.26301
-1.6384
-4.12314
-4.89415
-4.23477
-2.96519
-1.44528
-0.684209
39.5218
42.7642
46.2195
48.416
48.7431
49.2371
49.1289
49.0305
48.9574
48.7966
48.602
48.3694
48.0823
47.7271
47.3091
46.8328
46.3008
45.7035
45.0165
44.2134
43.2948
42.3055
41.315
40.3734
39.4911
38.6525
37.8384
37.031
36.2017
35.3114
34.3224
33.2527
32.226
31.4226
31.0249
31.1022
31.4253
31.338
29.9838
26.8867
21.9881
15.3282
7.43457
-0.888127
-8.49394
-12.1489
-9.08528
-2.50385
3.55346
7.25378
9.16557
9.46756
8.15226
5.06226
0.0187142
-6.92146
-15.3825
-24.7419
-34.362
-43.7376
-52.5097
-60.4777
-67.6314
-74.1621
-80.362
-86.4009
-92.1421
-97.068
-100.619
-102.071
-100.657
-95.1408
-85.4962
-73.6958
-61.711
-50.5435
-40.4807
-31.4321
-23.1615
-15.4495
-8.20074
-1.47844
4.55369
9.72058
13.8731
16.8713
18.5755
18.8857
17.7745
15.2122
11.4012
6.74102
1.79422
-2.59582
-5.31891
-5.99545
-4.99166
-3.35823
-1.60719
-0.700457
39.3888
42.5813
45.9622
48.1329
48.4845
49.1625
49.1028
49.0087
48.9437
48.786
48.5924
48.3592
48.0699
47.7115
47.2895
46.8104
46.277
45.6781
44.9857
44.1707
43.2353
42.2298
41.2291
40.284
39.4
38.5563
37.7304
36.9045
36.0503
35.1299
34.1158
33.0489
32.0596
31.3017
30.938
31.01
31.2561
31.0435
29.5952
26.516
21.7403
15.3048
7.80012
0.0616816
-7.02183
-10.7986
-8.29546
-1.92154
3.76462
7.19376
8.84694
9.11421
7.90308
4.91299
-0.0742796
-6.9891
-15.4218
-24.7253
-34.2718
-43.5828
-52.3203
-60.2905
-67.4848
-74.1092
-80.4883
-86.8052
-92.9033
-98.2101
-102.161
-104.04
-103.059
-97.6189
-87.4917
-75.0344
-62.5154
-51.0082
-40.7719
-31.6513
-23.3427
-15.5702
-8.20684
-1.31682
4.91434
10.2896
14.644
17.8168
19.6334
19.9603
18.7683
16.008
11.8932
6.78603
1.25061
-3.72928
-6.73394
-7.27645
-5.82841
-3.75523
-1.75317
-0.70355
39.2223
42.349
45.6909
47.8495
48.2289
49.0914
49.0799
48.9861
48.9294
48.7748
48.582
48.3479
48.0561
47.6943
47.2686
46.7871
46.2529
45.6527
44.9544
44.1263
43.1728
42.1507
41.1406
40.1932
39.3083
38.4589
37.6206
36.7761
35.8977
34.9512
33.9262
32.8807
31.9297
31.2084
30.8579
30.8986
31.0668
30.7382
29.2045
26.1432
21.4847
15.2755
8.13305
0.879168
-5.57266
-8.94218
-6.89901
-1.26503
3.91524
7.12594
8.52522
8.73171
7.62563
4.72955
-0.213464
-7.11043
-15.5135
-24.7555
-34.2226
-43.4637
-52.1607
-60.1256
-67.3506
-74.0589
-80.6098
-87.196
-93.6353
-99.3012
-103.623
-105.953
-105.43
-100.13
-89.5054
-76.3559
-63.2782
-51.4237
-41.0203
-31.8419
-23.513
-15.6982
-8.23499
-1.18602
5.24178
10.8299
15.3988
18.7656
20.7104
21.0563
19.7878
16.8373
12.425
6.83749
0.620033
-5.07887
-8.41734
-8.77163
-6.74836
-4.14358
-1.87506
-0.690202
39.0067
42.0673
45.4105
47.5677
47.9744
49.0194
49.0583
48.9628
48.9145
48.7629
48.5708
48.3356
48.041
47.6757
47.2465
46.7632
46.2291
45.6277
44.9228
44.0802
43.1076
42.0691
41.051
40.1029
39.218
38.3633
37.5129
36.6506
35.7491
34.7815
33.7558
32.7366
31.816
31.1123
30.7614
30.7684
30.8538
30.4111
28.8041
25.7651
21.223
15.254
8.46849
1.58231
-4.42693
-7.38881
-5.58954
-0.719035
3.9018
6.86966
8.11416
8.33832
7.33517
4.50671
-0.406725
-7.2875
-15.6578
-24.8345
-34.2179
-43.3842
-52.035
-59.9867
-67.2315
-74.011
-80.7223
-87.5634
-94.319
-100.311
-104.962
-107.749
-107.664
-102.567
-91.4576
-77.618
-63.9831
-51.7863
-41.2257
-32.0021
-23.6676
-15.8273
-8.28133
-1.08832
5.52577
11.3238
16.1149
19.6937
21.7817
22.1458
20.8072
17.6871
12.9964
6.8962
-0.114134
-6.69991
-10.4358
-10.5262
-7.75507
-4.50724
-1.96096
-0.653616
38.7991
41.7494
45.1244
47.2894
47.718
48.9416
49.0355
48.9391
48.8991
48.7504
48.559
48.3223
48.0247
47.6557
47.2234
46.7391
46.2057
45.6034
44.8909
44.0326
43.0401
41.9859
40.9619
40.0153
39.1319
38.273
37.4115
36.531
35.6052
34.6181
33.5951
32.596
31.6945
31.0057
30.6545
30.6222
30.619
30.069
28.4029
25.3911
20.9625
15.2366
8.80794
2.25147
-3.45675
-6.19227
-4.62766
-0.351223
3.80419
6.53385
7.71208
7.9757
7.03522
4.23964
-0.655497
-7.51665
-15.8496
-24.9578
-34.2541
-43.3421
-51.9422
-59.8735
-67.1274
-73.9651
-80.8216
-87.8937
-94.9266
-101.201
-106.128
-109.361
-109.674
-104.837
-93.2586
-78.7656
-64.6067
-52.0912
-41.3904
-32.1336
-23.8047
-15.9525
-8.3413
-1.02414
5.75764
11.7537
16.7679
20.5744
22.8173
23.1953
21.7944
18.5423
13.6039
6.95807
-0.981629
-8.67752
-12.886
-12.6075
-8.8515
-4.82182
-1.99806
-0.590555
38.5046
41.4068
44.8353
47.0158
47.4582
48.8528
49.0087
48.9158
48.8833
48.7375
48.5464
48.308
48.0072
47.6346
47.1996
46.7152
46.1833
45.5799
44.8588
43.9834
42.9709
41.9026
40.8755
39.9333
39.0533
38.1909
37.316
36.4111
35.4568
34.4508
33.4286
32.4458
31.5652
30.8922
30.5361
30.459
30.3669
29.7181
28.0054
25.0257
20.7092
15.2144
9.11551
2.88809
-2.52282
-5.09013
-3.75702
-0.0416631
3.63613
6.11464
7.28121
7.61438
6.71822
3.93373
-0.958474
-7.8013
-16.0899
-25.1225
-34.327
-43.3326
-51.8771
-59.7812
-67.0339
-73.9161
-80.8974
-88.1668
-95.4265
-101.93
-107.075
-110.727
-111.389
-106.856
-94.819
-79.7363
-65.1192
-52.3308
-41.5162
-32.2396
-23.9244
-16.0703
-8.41045
-0.992868
5.93004
12.1022
17.3314
21.3774
23.7811
24.1641
22.7104
19.3859
14.2413
7.02415
-2.00311
-11.1166
-15.8708
-15.0905
-10.0554
-5.06788
-1.96663
-0.498364
38.1032
41.0477
44.5453
46.7484
47.1978
48.7536
48.9773
48.8933
48.8672
48.7241
48.5333
48.2929
47.9886
47.6124
47.1753
46.6917
46.1622
45.5574
44.8265
43.933
42.9009
41.8209
40.7942
39.8594
38.9837
38.1136
37.2179
36.2812
35.2942
34.2702
33.2521
32.2889
31.43
30.7701
30.4046
30.2794
30.0998
29.3606
27.6109
24.6672
20.4662
15.1944
9.38485
3.45927
-1.64007
-4.0674
-3.00049
0.187524
3.40889
5.6297
6.79167
7.20458
6.35497
3.58517
-1.30722
-8.13813
-16.3787
-25.3295
-34.4379
-43.3558
-51.8388
-59.7088
-66.951
-73.8632
-80.9439
-88.3669
-95.7929
-102.471
-107.777
-111.811
-112.752
-108.552
-96.0543
-80.4682
-65.4878
-52.4947
-41.6036
-32.3228
-24.0273
-16.178
-8.48462
-0.993286
6.03676
12.3526
17.7768
22.068
24.6284
25.0016
23.5127
20.1938
14.8973
7.13792
-3.05115
-13.8671
-19.2785
-17.9325
-11.3078
-5.2039
-1.85471
-0.372124
37.6253
40.6785
44.2567
46.4894
46.942
48.6469
48.9429
48.8721
48.8508
48.7103
48.5195
48.2769
47.9689
47.5892
47.1508
46.6692
46.1426
45.536
44.7939
43.8815
42.831
41.7426
40.7205
39.7945
38.9185
38.0335
37.1093
36.1367
35.1177
34.0794
33.0688
32.1255
31.2869
30.6383
30.2603
30.0846
29.8199
28.9981
27.218
24.3109
20.226
15.171
9.62323
3.96881
-0.843959
-3.14965
-2.33061
0.364587
3.13993
5.10678
6.25699
6.74138
5.93747
3.18404
-1.70257
-8.51329
-16.7006
-25.5696
-34.5822
-43.4113
-51.8293
-59.6579
-66.8795
-73.8063
-80.9558
-88.479
-96.0093
-102.816
-108.225
-112.596
-113.733
-109.855
-96.8843
-80.9063
-65.6829
-52.5718
-41.6506
-32.3841
-24.1132
-16.2727
-8.55973
-1.02372
6.07298
12.4894
18.0742
22.6047
25.3011
25.6393
24.1349
20.8685
15.4714
7.30672
-3.84259
-16.1715
-22.1093
-20.5887
-12.432
-5.12848
-1.60814
-0.227422
37.0922
40.3038
43.9712
46.2413
46.697
48.5367
48.9074
48.8514
48.8341
48.6963
48.5053
48.2602
47.9483
47.5652
47.1263
46.6481
46.125
45.5155
44.7608
43.8295
42.7627
41.67
40.655
39.7346
38.8519
37.9462
36.9899
35.9804
34.9311
33.8809
32.8787
31.9549
31.136
30.4967
30.1031
29.8757
29.5294
28.6325
26.8262
23.9543
19.9835
15.1349
9.82715
4.42934
-0.111328
-2.31839
-1.74395
0.486787
2.83371
4.55803
5.6931
6.23472
5.46916
2.73186
-2.14221
-8.92075
-17.0452
-25.8257
-34.7379
-43.4797
-51.8375
-59.6234
-66.8167
-73.7446
-80.9305
-88.4976
-96.0825
-102.971
-108.377
-113.056
-114.303
-110.678
-97.2337
-81.0081
-65.6816
-52.552
-41.6529
-32.4212
-24.1795
-16.3502
-8.63123
-1.08204
6.0351
12.4983
18.1906
22.932
25.7103
25.9266
24.4313
21.2259
15.7938
7.45975
-4.22775
-17.4663
-22.9434
-21.5849
-12.9637
-4.82543
-1.22167
-0.0321705
36.5628
39.9276
43.6908
46.0067
46.4692
48.4273
48.872
48.8301
48.8174
48.682
48.4906
48.2427
47.9268
47.5407
47.1024
46.6287
46.1094
45.4959
44.7274
43.7776
42.6973
41.6036
40.5947
39.6752
38.7816
37.852
36.8612
35.814
34.7354
33.6748
32.6818
31.7775
30.9772
30.345
29.9336
29.654
29.2301
28.2645
26.4349
23.5965
19.7352
15.0769
9.98842
4.83573
0.548674
-1.57954
-1.23741
0.560513
2.49767
3.99013
5.10006
5.68087
4.94701
2.22978
-2.62181
-9.35714
-17.409
-26.0903
-34.8914
-43.5375
-51.8318
-59.5768
-66.7432
-73.6647
-80.8555
-88.4199
-96.0261
-102.924
-108.259
-113.243
-114.471
-110.885
-97.0286
-80.7471
-65.4723
-52.4286
-41.6054
-32.4294
-24.221
-16.405
-8.69416
-1.16422
5.9253
12.3746
18.0985
22.9656
25.7947
25.8995
24.425
21.2967
15.9331
7.70612
-4.02599
-17.4899
-23.1536
-20.9505
-12.3963
-4.15174
-0.646509
0.166265
36.0073
39.5528
43.4168
45.7873
46.2623
48.3214
48.838
48.8076
48.8006
48.6677
48.4754
48.2246
47.9046
47.5158
47.0793
46.6115
46.0956
45.4764
44.6933
43.7261
42.6346
41.5407
40.5362
39.6151
38.7082
37.7515
36.7235
35.6379
34.5316
33.4623
32.4792
31.5936
30.8105
30.1835
29.7522
29.4209
28.9234
27.8944
26.0425
23.2352
19.4771
14.99
10.0981
5.17776
1.12794
-0.93562
-0.811793
0.585502
2.13643
3.40886
4.48071
5.08033
4.37285
1.68123
-3.13635
-9.81619
-17.7875
-26.3641
-35.0442
-43.5771
-51.7907
-59.4907
-66.6333
-73.5368
-80.6904
-88.2086
-95.7963
-102.611
-107.956
-113.16
-114.231
-110.235
-96.2211
-80.1221
-65.0544
-52.1953
-41.4987
-32.3988
-24.2285
-16.4293
-8.74355
-1.27111
5.73556
12.1041
17.7795
22.638
25.4395
25.613
24.1947
21.0759
15.8328
7.93195
-3.20139
-16.0935
-22.5303
-20.0334
-11.5494
-3.51188
-0.268477
0.215892
35.4302
39.1815
43.1502
45.5828
46.0758
48.2159
48.8061
48.7846
48.7839
48.6533
48.4599
48.2057
47.8816
47.4911
47.0577
46.5967
46.0832
45.4564
44.658
43.674
42.5729
41.4798
40.4795
39.5549
38.631
37.644
36.5772
35.4536
34.321
33.2445
32.2716
31.4038
30.6362
30.0124
29.56
29.1779
28.6107
27.5223
25.6478
22.8679
19.204
14.8677
10.1513
5.44899
1.61748
-0.393329
-0.470887
0.560161
1.75143
2.81554
3.83694
4.43563
3.74999
1.09071
-3.68019
-10.2922
-18.1753
-26.6426
-35.195
-43.6014
-51.7169
-59.3588
-66.4695
-73.3342
-80.4026
-87.8229
-95.3135
-101.955
-107.347
-112.537
-113.589
-108.627
-94.8365
-79.1429
-64.4424
-51.8586
-41.3336
-32.3261
-24.1958
-16.4174
-8.77967
-1.41027
5.45366
11.671
17.2187
21.9676
24.76
25.1262
23.6493
20.3919
15.2304
7.82696
-2.09231
-13.215
-19.6583
-18.0569
-10.4397
-2.55336
0.601299
0.600441
34.846
38.8153
42.8913
45.39
45.9047
48.1018
48.7769
48.7615
48.7677
48.639
48.444
48.1862
47.8581
47.4666
47.0379
46.584
46.0712
45.4355
44.621
43.621
42.5122
41.4221
40.4256
39.4941
38.5495
37.5296
36.423
35.2619
34.1044
33.022
32.0596
31.2085
30.4545
29.8321
29.3579
28.9264
28.2934
27.1484
25.2499
22.4923
18.9105
14.7022
10.1399
5.63926
2.00616
0.0384148
-0.221644
0.479825
1.34123
2.20795
3.16824
3.74866
3.08207
0.463464
-4.24731
-10.7786
-18.5667
-26.9227
-35.343
-43.6095
-51.6079
-59.1778
-66.2487
-73.0572
-80.0037
-87.2674
-94.5521
-100.934
-106.312
-111.235
-111.958
-106.223
-92.8969
-77.8299
-63.6592
-51.4348
-41.1162
-32.2065
-24.1105
-16.3609
-8.80569
-1.58875
5.08127
11.0977
16.4556
21.008
23.7678
24.2605
22.6935
19.2522
14.1641
7.36822
-1.14604
-10.0153
-15.1409
-14.1719
-8.59069
-2.51975
0.558697
1.09818
34.2632
38.4551
42.6395
45.2037
45.7428
47.968
48.751
48.7392
48.7519
48.6248
48.4278
48.1661
47.834
47.4424
47.0197
46.5727
46.0592
45.4133
44.5825
43.5678
42.4541
41.3688
40.3745
39.4319
38.4631
37.4086
36.2614
35.0633
33.8823
32.7955
31.8438
31.008
30.2655
29.6429
29.1465
28.6675
27.9723
26.7729
24.8484
22.1067
18.5915
14.4859
10.0545
5.73655
2.28115
0.348311
-0.0742955
0.336346
0.901109
1.58099
2.47269
3.02154
2.37245
-0.196028
-4.83313
-11.2702
-18.9557
-27.1994
-35.4871
-43.6036
-51.4642
-58.9417
-65.9605
-72.6986
-79.5006
-86.5549
-93.5339
-99.5982
-104.856
-109.313
-109.468
-103.26
-90.5678
-76.2719
-62.7344
-50.9254
-40.8331
-32.0197
-23.9565
-16.2547
-8.82068
-1.79787
4.64252
10.4231
15.547
19.8739
22.5727
23.0587
21.2881
17.6367
12.679
6.63209
-0.481202
-7.38362
-11.1704
-10.2705
-6.08801
-1.68994
0.856477
1.57092
33.6909
38.1019
42.3928
45.0216
45.5927
47.8109
48.7292
48.7183
48.7369
48.6108
48.4113
48.1455
47.8093
47.4185
47.0029
46.5625
46.047
45.3898
44.543
43.5154
42.3999
41.3209
40.3258
39.3675
38.3716
37.2809
36.0927
34.8582
33.6552
32.5655
31.6247
30.8024
30.0691
29.4449
28.9266
28.4023
27.6483
26.3963
24.4434
21.7094
18.2426
14.2121
9.88607
5.72853
2.42892
0.523158
-0.042276
0.117586
0.422732
0.926616
1.74474
2.25399
1.62112
-0.886389
-5.43613
-11.764
-19.3372
-27.4673
-35.6241
-43.5853
-51.289
-58.6493
-65.5962
-72.2508
-78.8961
-85.699
-92.2975
-97.9911
-102.997
-106.864
-106.418
-99.9718
-88.0102
-74.5466
-61.6856
-50.3144
-40.4544
-31.7375
-23.7197
-16.0982
-8.8245
-2.02737
4.15842
9.67965
14.5561
18.6506
21.201
21.4773
19.3765
15.5503
10.8609
5.68819
-0.0206196
-5.21637
-7.86972
-7.04219
-3.91111
-0.671586
1.44336
2.0943
33.1253
37.7568
42.15
44.845
45.4624
47.6384
48.7115
48.6996
48.7228
48.597
48.3945
48.1242
47.7842
47.3951
46.9878
46.5532
46.0342
45.3651
44.5028
43.4649
42.3508
41.2787
40.279
39.3001
38.2746
37.1468
35.9173
34.6471
33.4236
32.3325
31.4026
30.5918
29.8653
29.2382
28.6984
28.1316
27.3224
26.0193
24.0348
21.2987
17.859
13.8741
9.6251
5.6025
2.43584
0.548894
-0.141294
-0.19246
-0.106055
0.234692
0.974553
1.44109
0.822055
-1.61236
-6.05999
-12.2612
-19.708
-27.7201
-35.7492
-43.5551
-51.0872
-58.302
-65.1494
-71.705
-78.1882
-84.7158
-90.8987
-96.192
-100.837
-104.053
-103.049
-96.5414
-85.3373
-72.7094
-60.5218
-49.5819
-39.95
-31.3376
-23.394
-15.8943
-8.81689
-2.2706
3.64095
8.89509
13.5202
17.3277
19.5452
19.3988
16.9723
13.1579
8.92668
4.6645
0.262073
-3.51822
-5.24078
-4.39944
-1.99819
0.407002
2.16704
2.64577
32.5695
37.4218
41.91
44.6724
45.3628
47.4703
48.6972
48.6836
48.7096
48.5836
48.3774
48.1024
47.7588
47.3725
46.9742
46.5445
46.0206
45.3392
44.4626
43.4174
42.3082
41.2425
40.2332
39.2289
38.1717
37.0064
35.7356
34.4305
33.1883
32.0975
31.1781
30.3763
29.654
29.0227
28.4627
27.8564
26.9958
25.6429
23.6234
20.8733
17.4373
13.4662
9.26275
5.34666
2.2896
0.412477
-0.387306
-0.612267
-0.7011
-0.506251
0.148928
0.572237
-0.0376392
-2.38683
-6.71492
-12.7682
-20.0675
-27.9513
-35.8548
-43.5102
-50.8636
-57.9061
-64.6185
-71.0524
-77.3672
-83.6099
-89.3754
-94.2636
-98.4765
-101.031
-99.5509
-93.1033
-82.6287
-70.7932
-59.239
-48.7056
-39.2981
-30.812
-22.9837
-15.6483
-8.79978
-2.5277
3.10165
8.09278
12.4251
15.8161
17.4956
16.8585
14.247
10.6674
7.04577
3.68566
0.449697
-2.16685
-3.16445
-2.29423
-0.372849
1.47127
2.94322
3.19676
32.0269
37.0997
41.6735
44.4983
45.2999
47.3346
48.6855
48.671
48.6976
48.5704
48.36
48.0801
47.7331
47.351
46.9622
46.5358
46.006
45.3123
44.4232
43.3743
42.2729
41.2119
40.1873
39.1529
38.0627
36.8599
35.548
34.2091
32.9503
31.8614
30.9521
30.1561
29.4348
28.7986
28.2198
27.5778
26.6697
25.2686
23.2102
20.4334
16.9753
12.9842
8.79154
4.95121
1.9809
0.104499
-0.79324
-1.15952
-1.38037
-1.30823
-0.745475
-0.367439
-0.975127
-3.23008
-7.41741
-13.2968
-20.4188
-28.154
-35.929
-43.4421
-50.6197
-57.4705
-64.0098
-70.2892
-76.421
-82.3765
-87.7452
-92.2434
-95.9999
-97.9331
-96.0617
-89.7367
-79.9198
-68.7973
-57.8171
-47.6656
-38.4922
-30.168
-22.5002
-15.3705
-8.78257
-2.79538
2.56253
7.27094
11.2255
14.0738
15.1416
14.0968
11.4802
8.29773
5.34873
2.82537
0.579612
-1.09785
-1.53729
-0.633496
0.986873
2.47057
3.70377
3.73807
31.5042
36.7934
41.4454
44.3258
45.2689
47.2522
48.6759
48.6619
48.6868
48.5576
48.3423
48.0572
47.7074
47.3307
46.9515
46.527
45.9903
45.2846
44.3854
43.3367
42.2453
41.1857
40.1386
39.0712
37.9478
36.7076
35.3552
33.9839
32.7108
31.6256
30.7245
29.9293
29.2045
28.5616
27.9652
27.2905
26.3388
24.8916
22.7901
19.9735
16.4705
12.4252
8.20397
4.40951
1.50602
-0.378036
-1.36492
-1.84625
-2.16021
-2.18259
-1.71819
-1.39243
-2.00643
-4.1649
-8.18799
-13.8629
-20.7692
-28.323
-35.9568
-43.335
-50.3488
-57.0026
-63.3364
-69.4211
-75.3414
-81.0027
-86.0007
-90.1325
-93.4398
-94.8158
-92.6282
-86.4431
-77.1924
-66.6958
-56.2371
-46.4584
-37.5433
-29.4225
-21.9613
-15.0774
-8.76522
-3.04751
2.0428
6.43325
9.94896
12.207
12.7074
11.3894
8.90907
6.20006
3.91478
2.1352
0.708102
-0.229541
-0.251215
0.672077
2.11323
3.38905
4.39717
4.25939
30.9996
36.5065
41.2331
44.1643
45.2581
47.2337
48.6678
48.6556
48.6773
48.545
48.3243
48.0337
47.6818
47.3121
46.9418
46.5175
45.9734
45.2567
44.3503
43.3057
42.2249
41.1606
40.0834
38.9839
37.8264
36.55
35.158
33.7561
32.4711
31.3897
30.4912
29.6862
28.9521
28.2987
27.6838
26.9778
25.9845
24.4914
22.342
19.4738
15.9085
11.7833
7.49731
3.71883
0.868596
-1.0294
-2.09722
-2.67369
-3.04985
-3.13761
-2.77228
-2.51104
-3.14075
-5.20879
-9.04661
-14.4842
-21.1304
-28.4569
-35.9221
-43.1658
-50.033
-56.5007
-62.6137
-68.4654
-74.1339
-79.4819
-84.1234
-87.9036
-90.7744
-91.6569
-89.2133
-83.1678
-74.4062
-64.4699
-54.5018
-45.1015
-36.4746
-28.6
-21.3882
-14.7679
-8.71155
-3.23711
1.59382
5.65131
8.69056
10.3657
10.3919
8.92468
6.65983
4.43516
2.75965
1.61229
0.834304
0.451064
0.730095
1.65625
3.00925
4.21613
4.96751
4.73206
30.521
36.2428
41.0436
44.0236
45.2657
47.2718
48.6606
48.6514
48.6691
48.5326
48.3059
48.0098
47.6566
47.295
46.9326
46.5072
45.9554
45.2292
44.319
43.2821
42.21
41.1333
40.0193
38.89
37.6986
36.3879
34.9575
33.5268
32.2314
31.1502
30.2424
29.4121
28.6606
27.9932
27.3586
26.6218
25.5877
24.0476
21.8458
18.9149
15.2683
11.0423
6.66949
2.8804
0.0801387
-1.83385
-2.97214
-3.62864
-4.0459
-4.17456
-3.90333
-3.7211
-4.3768
-6.36682
-10.0065
-15.1754
-21.5161
-28.5604
-35.8124
-42.9067
-49.6421
-55.9476
-61.8481
-67.4454
-72.8213
-77.8272
-82.1118
-85.5415
-87.9838
-88.423
-85.7702
-79.8669
-71.5453
-62.129
-52.6362
-43.626
-35.3185
-27.7261
-20.7759
-14.3909
-8.54414
-3.27267
1.31098
4.99723
7.52478
8.65938
8.31806
6.79628
4.78958
3.03948
1.90472
1.27747
0.978705
0.973317
1.43228
2.30195
3.58673
4.8562
5.26753
5.01689
30.0755
36.0048
40.8805
43.9196
45.2963
47.3377
48.6539
48.6486
48.662
48.5204
48.2871
47.9854
47.6321
47.2795
46.9234
46.4956
45.9365
45.2027
44.2922
43.2651
42.1976
41.1004
39.9487
38.7887
37.5665
36.2224
34.7545
33.2973
31.9918
30.9041
29.9652
29.0976
28.3205
27.6388
26.9854
26.2198
25.147
23.5597
21.301
18.2961
14.5469
10.1926
5.71108
1.8983
-0.840476
-2.76568
-3.96027
-4.68357
-5.12978
-5.28371
-5.09906
-5.0088
-5.70164
-7.62837
-11.0679
-15.9436
-21.938
-28.6428
-35.6229
-42.5313
-49.1357
-55.3073
-61.0259
-66.3762
-71.4369
-76.073
-79.9879
-83.0578
-85.0783
-85.1174
-82.2952
-76.5407
-68.6281
-59.705
-50.6804
-42.0733
-34.1026
-26.7861
-20.0531
-13.8385
-8.13932
-3.04629
1.24345
4.48638
6.48783
7.15071
6.54151
5.03833
3.33154
2.05162
1.37527
1.15728
1.15447
1.37141
1.96273
2.84204
4.14956
5.6095
5.56406
5.53103
29.6638
35.793
40.7431
43.8558
45.3559
47.4069
48.6456
48.6466
48.6558
48.5082
48.2678
47.9606
47.6087
47.2653
46.9138
46.4828
45.917
45.1779
44.2707
43.2532
42.1866
41.0598
39.875
38.6816
37.4322
36.0543
34.5498
33.0677
31.7497
30.6453
29.651
28.7405
27.9335
27.2384
26.5683
25.7763
24.6675
23.0339
20.7142
17.6235
13.7518
9.24124
4.62356
0.785669
-1.87302
-3.79148
-5.02534
-5.80116
-6.26986
-6.44302
-6.33895
-6.35001
-7.09128
-8.96828
-12.2147
-16.7834
-22.4005
-28.7146
-35.3577
-42.0227
-48.4715
-54.526
-60.1048
-65.2467
-70.0058
-74.2656
-77.7961
-80.4884
-82.0932
-81.7742
-78.8213
-73.2238
-65.6994
-57.2501
-48.6823
-40.4638
-32.7908
-25.6801
-19.08
-12.9609
-7.38512
-2.53279
1.35795
4.09576
5.59283
5.86594
5.08083
3.68277
2.36274
1.53463
1.2163
1.23653
1.29345
1.54919
2.15457
3.02541
4.31851
5.83784
5.34906
4.86488