/*--------------------------------*- C++ -*----------------------------------*\
| =========                 |                                                 |
| \\      /  F ield         | OpenFOAM: The Open Source CFD Toolbox           |
|  \\    /   O peration     | Version:  4.1                                   |
|   \\  /    A nd           | Web:      www.OpenFOAM.org                      |
|    \\/     M anipulation  |                                                 |
\*---------------------------------------------------------------------------*/
FoamFile
{
    version     2.0;
    format      ascii;
    class       surfaceScalarField;
    location    "1100";
    object      phi;
}
// * * * * * * * * * * * * * * * * * * * * * * * * * * * * * * * * * * * * * //

dimensions      [0 3 -1 0 0 0 0];

internalField   nonuniform List<scalar> 
52920
(
1301.69
112.208
1204.82
96.8708
1085.03
119.795
868.289
216.739
544.704
323.588
255.924
288.783
92.1048
163.826
41.1248
50.9911
51.9583
-10.8201
72.4954
-20.5241
97.9564
-25.4508
126.073
-28.1073
159.37
-33.2903
197.127
-37.7506
238.089
-40.9564
282.689
-44.5946
332.793
-50.1002
390.51
-57.7119
457.508
-66.9947
534.482
-76.9702
620.956
-86.4716
715.697
-94.7379
817.455
-101.756
925.478
-108.02
1039.6
-114.118
1160.19
-120.587
1288.15
-127.965
1425.04
-136.886
1572.94
-147.9
1734.12
-161.18
1910.34
-176.217
2101.92
-191.572
2307.35
-205.435
2524.5
-217.152
2753.69
-229.186
3001.17
-247.475
3281
-279.83
3612.45
-331.449
4006.04
-393.596
4452.23
-446.183
4924.98
-472.755
5388.77
-463.784
5803.48
-414.712
6128.74
-325.264
6340.97
-212.23
6454.17
-113.193
6519.14
-64.9761
6599.2
-80.0511
6737.41
-138.216
6952.13
-214.718
7246.64
-294.513
7615.73
-369.088
8050.09
-434.362
8537.46
-487.37
9059
-521.535
9585.64
-526.644
10079.4
-493.778
10500.7
-421.311
10818.7
-317.979
11019.7
-200.955
11109.7
-90.0255
11110.5
-0.811098
11050.2
60.3275
10954.6
95.5866
10843.1
111.499
10727.1
116.009
10610
117.062
10488.6
121.465
10354.9
133.687
10200
154.854
10017.5
182.517
9806.12
211.372
9570.64
235.487
9319.42
251.217
9061.25
258.166
8803.22
258.037
8550.1
253.117
8304.83
245.266
8069.39
235.446
7845.71
223.681
7636.33
209.373
7444.55
191.785
7274.06
170.492
7128.46
145.594
7010.72
117.744
6922.65
88.07
6864.56
58.0891
6834.91
29.645
6830.3
4.61315
6845.07
-14.7702
6871.09
-26.0175
6898.78
-27.6957
6918.47
-19.6867
6922.13
-3.65786
6905.2
16.9295
6867.06
38.137
6809.59
57.474
6737.9
71.6881
6654.55
83.3486
83.3381
1270.1
215.933
1178.55
188.42
1039.65
258.69
778.929
477.463
449.395
653.123
213.622
524.559
104.28
273.173
66.0035
89.2785
67.2774
-12.0802
81.1748
-34.4082
102.069
-46.3349
126.485
-52.5138
156.393
-63.1911
191.942
-73.2926
233.017
-82.026
280.655
-92.2271
336.457
-105.898
401.702
-122.953
477.241
-142.53
563.219
-162.944
658.784
-182.034
762.353
-198.304
872.308
-211.71
987.562
-223.271
1107.71
-234.269
1233.04
-245.909
1364.46
-259.381
1503.57
-276.003
1652.5
-296.829
1813.4
-322.073
1987.78
-350.601
2175.91
-379.701
2376.77
-406.287
2589.38
-429.759
2815.82
-455.632
3064.48
-496.135
3351.18
-566.531
3694.58
-674.849
4100.71
-799.722
4553.61
-899.087
5022.8
-941.938
5472.03
-913.013
5863.7
-806.385
6160.97
-622.534
6342.2
-393.461
6421.09
-192.082
6447.39
-91.2774
6484.55
-117.207
6576.07
-229.738
6740.54
-379.183
6981.08
-535.053
7291.89
-679.902
7663.73
-806.194
8087.01
-910.652
8549.94
-984.468
9034.55
-1011.26
9514.64
-973.864
9957.54
-864.214
10330
-690.411
10606.1
-477.117
10775.1
-258.967
10844.4
-70.1644
10837.3
67.4776
10781.6
151.307
10700.1
192.97
10606.7
209.394
10505.9
217.857
10394.7
232.64
10265.8
262.648
10110.8
309.868
9924.07
369.207
9705.54
429.902
9461.03
479.996
9199.95
512.305
8931.8
526.314
8664.11
525.729
8401.87
515.351
8148.1
499.038
7904.78
478.76
7673.92
454.551
7458.13
425.158
7260.85
389.065
7085.94
345.397
6937.17
294.367
6817.61
237.306
6729.17
176.507
6672.22
115.04
6645.22
56.6473
6644.67
5.1652
6664.69
-34.7945
6696.95
-58.2786
6731.74
-62.4821
6759.2
-47.1451
6770.81
-15.2665
6761.41
26.325
6730.08
69.4675
6678.64
108.914
6612.14
138.192
6533.63
161.858
163.579
1225.63
312.169
1128.48
285.566
941.446
445.726
624.342
794.568
320.052
957.415
160.589
684.024
95.0593
338.708
63.9376
120.409
58.2312
-6.36031
68.4944
-44.6591
87.9613
-65.7926
112.046
-76.5908
141.75
-92.8888
178.452
-109.989
223.169
-126.739
276.657
-145.711
339.14
-168.378
410.616
-194.425
491.267
-223.179
581.002
-252.677
678.903
-279.933
783.344
-302.743
892.659
-321.023
1005.72
-336.33
1122.13
-350.675
1242.19
-365.97
1366.88
-384.07
1497.83
-406.953
1637.14
-436.14
1787.1
-472.025
1950.05
-513.55
2128.24
-557.89
2323.34
-601.384
2536.52
-642.945
2770.59
-689.699
3032.86
-758.408
3336.06
-869.727
3693.51
-1032.3
4105.16
-1211.37
4551.59
-1345.51
5003.28
-1393.63
5428.21
-1337.94
5793.7
-1171.88
6065.77
-894.597
6221.5
-549.195
6270.54
-241.124
6258.66
-79.3906
6248.53
-107.083
6283.93
-265.132
6384.42
-479.677
6554.95
-705.58
6791.58
-916.53
7086.81
-1101.42
7433.45
-1257.3
7823.68
-1374.7
8246.06
-1433.63
8683.6
-1411.41
9113.7
-1294.31
9509.85
-1086.57
9845.68
-812.939
10100.8
-514.107
10266.7
-236.019
10350.2
-16.0035
10370.8
130.659
10350.5
213.258
10304.7
255.175
10239.9
282.738
10154.5
317.96
10042.8
374.418
9897.49
455.139
9714.2
552.492
9493.99
650.116
9244.22
729.761
8975.79
780.739
8699.35
802.752
8423.18
801.903
8152.7
785.83
7891.15
760.588
7640.67
729.242
7403.39
691.826
7182.16
646.39
6980.63
590.596
6802.9
523.13
6652.89
444.37
6533.8
356.401
6447.55
262.756
6394.47
168.126
6372.89
78.2202
6379.11
-1.04744
6406.85
-62.5353
6447.46
-98.8914
6490.93
-105.949
6527.13
-83.347
6547.16
-35.2961
6545.46
28.0244
6520.96
93.9641
6475.71
154.163
6414.79
199.113
6342.03
234.624
239.767
1175.93
400.492
1055.6
405.897
797.946
703.376
443.607
1148.91
198.527
1202.5
111.596
770.958
73.823
376.487
49.255
144.987
43.9526
-1.0415
53.9482
-54.6413
73.4395
-85.2741
98.3892
-101.532
129.289
-123.783
168.161
-148.855
216.151
-174.724
273.153
-202.71
338.307
-233.528
411.018
-267.133
491.339
-303.497
579.265
-340.6
674.027
-374.693
774.124
-402.838
877.97
-424.867
984.493
-442.851
1093.36
-459.536
1204.95
-477.56
1320.33
-499.451
1441.26
-527.883
1570.23
-565.107
1710.82
-612.616
1868.1
-670.826
2047.37
-737.164
2251.34
-805.345
2478.77
-870.382
2727.61
-938.53
2999.66
-1030.47
3303.23
-1173.29
3649.65
-1378.73
4039.68
-1601.4
4456.81
-1762.64
4875.91
-1812.73
5269.32
-1731.35
5607.75
-1510.31
5857.67
-1144.52
5992.67
-684.195
6017.07
-265.52
5971.86
-34.1858
5919.15
-54.3741
5902.67
-248.646
5943.36
-520.37
6049.53
-811.75
6221.16
-1088.15
6453.85
-1334.12
6742.33
-1545.77
7079.51
-1711.88
7454.89
-1809.01
7854.52
-1811.04
8261.71
-1701.5
8657.14
-1482
9019.55
-1175.35
9328.31
-822.871
9568.03
-475.741
9733.17
-181.145
9831.01
32.8182
9877.28
166.994
9886.13
246.324
9864.59
304.275
9812.52
370.03
9725.04
461.903
9595.95
584.222
9421.5
726.943
9203.91
867.712
8952.33
981.337
8679.59
1053.48
8397.88
1084.46
8116.46
1083.32
7841.3
1061
7575.82
1026.06
7322.22
982.845
7082.63
931.409
6859.97
869.05
6658.03
792.544
6481.03
700.125
6333.02
592.38
6217.21
472.214
6135.5
344.461
6088.15
215.483
6073.37
92.9938
6087.2
-14.8728
6122.91
-98.2435
6171.55
-147.534
6222.74
-157.145
6266.06
-126.664
6292.31
-61.548
6295.8
24.5417
6275.6
114.157
6234.36
195.402
6177.44
256.042
6109.54
302.517
311.96
1121.58
484.866
955.022
572.452
621.745
1036.65
269.356
1501.3
102.998
1368.86
70.9113
803.046
49.156
398.247
30.6487
163.502
29.5322
0.0890908
40.7419
-65.8396
60.7612
-105.285
86.8597
-127.623
119.276
-156.195
160.06
-189.634
210.006
-224.667
268.198
-260.899
333.128
-298.456
404.017
-338.019
481.036
-380.515
564.445
-424.006
653.761
-464.007
747.686
-496.762
844.727
-521.907
943.852
-541.974
1044.78
-560.459
1147.98
-580.762
1254.68
-606.15
1367.06
-640.261
1488.87
-686.915
1626.26
-750.013
1787.11
-831.675
1976.89
-926.939
2194.14
-1022.59
2431.08
-1107.32
2679.98
-1187.43
2939.78
-1290.27
3219.18
-1452.69
3532.99
-1692.54
3886.51
-1954.91
4267.3
-2143.43
4653.81
-2199.24
5020.83
-2098.36
5339.8
-1829.28
5574.75
-1379.47
5693.3
-802.752
5694.18
-266.391
5615.25
44.7395
5520.66
40.2179
5454.77
-182.76
5439.86
-505.453
5488.1
-859.99
5604.26
-1204.32
5786.86
-1516.71
6030.83
-1789.75
6327.93
-2008.98
6666.97
-2148.05
7035.22
-2179.3
7419.47
-2085.74
7805.65
-1868.18
8177.82
-1547.52
8518.41
-1163.46
8810.8
-768.125
9043.43
-413.773
9213.07
-136.83
9325.74
54.3263
9391.49
180.579
9416.8
278.959
9402.25
384.582
9343.62
520.534
9235.03
692.812
9072.97
888.999
8860.76
1079.93
8609.81
1232.29
8335.48
1327.81
8051.93
1368.01
7769.54
1365.71
7494.68
1335.86
7230.7
1290.04
6979.45
1234.09
6742.75
1168.12
6523.29
1088.51
6324.83
990.999
6151.69
873.263
6007.99
736.081
5897.01
583.193
5820.72
420.753
5779.4
256.81
5771.3
101.089
5792.32
-35.8899
5835.33
-141.253
5891.05
-203.259
5948.68
-214.775
5997.3
-175.282
6027.32
-91.5651
6032.97
18.8899
6013.82
133.302
5973.54
235.688
5918.13
311.454
5853.31
367.332
380.9
1048
572.831
819.088
801.363
431.159
1424.58
122.929
1809.53
34.2984
1457.49
37.2408
800.106
25.426
410.067
12.2924
176.645
15.5485
-3.15306
29.1197
-79.3991
50.1802
-126.337
77.3638
-154.8
111.071
-189.896
153.145
-231.703
203.801
-275.319
261.481
-318.575
324.341
-361.313
391.637
-405.312
463.823
-452.698
541.568
-501.749
624.77
-547.208
712.329
-584.318
802.771
-612.346
895.022
-634.223
988.8
-654.236
1084.67
-676.635
1184.16
-705.634
1290.37
-746.465
1409.05
-805.604
1548.76
-889.72
1717.45
-1000.36
1916.45
-1125.93
2137.78
-1243.93
2368.62
-1338.16
2599.27
-1418.08
2829.08
-1520.07
3068.29
-1691.9
3334.93
-1959.18
3639.87
-2259.86
3977.96
-2481.52
4334.06
-2555.34
4685.43
-2449.74
5001.47
-2145.32
5239.3
-1617.29
5356.01
-919.466
5342
-252.382
5234.24
152.502
5102.38
172.079
4991.77
-72.1429
4925.68
-439.37
4921.41
-855.715
4988.51
-1271.42
5125.35
-1653.56
5325.1
-1989.49
5580.18
-2264.06
5882.07
-2449.94
6220.34
-2517.57
6583.39
-2448.79
6959.14
-2243.93
7334.49
-1922.88
7694.63
-1523.6
8023.91
-1097.4
8308.75
-698.609
8540.67
-368.751
8717.26
-122.269
8841.27
56.5729
8916.58
203.652
8943.47
357.688
8917.73
546.27
8833.34
777.208
8686.84
1035.5
8482.86
1283.91
8235.7
1479.45
7963.78
1599.73
7683.33
1648.46
7405.65
1643.38
7137.1
1604.41
6880.43
1546.71
6636.74
1477.79
6407.17
1397.69
6194.07
1301.61
6001.17
1183.89
5832.96
1041.47
5693.81
875.234
5587.26
689.743
5515.55
492.459
5479.24
293.122
5476.83
103.502
5504.23
-63.2872
5554.01
-191.035
5616.43
-265.682
5680.07
-278.419
5733.19
-228.397
5765.38
-123.757
5770.65
13.6189
5749.29
154.661
5706.52
278.465
5649.56
368.405
5585.29
431.602
447.941
962.29
695.479
654.424
1109.23
247.632
1831.38
12.6606
2044.5
-14.2516
1484.4
9.23698
776.62
6.00089
413.308
-2.6246
185.277
3.98547
-9.75338
19.3376
-94.7427
41.3886
-148.382
69.5001
-182.905
104.167
-224.56
146.895
-274.427
197.284
-325.705
253.316
-374.605
313.007
-421.002
375.788
-468.091
442.519
-519.427
514.392
-573.62
591.705
-624.52
673.458
-666.07
758.049
-696.935
844.246
-720.42
931.718
-741.706
1021.17
-766.082
1114.65
-799.112
1216.66
-848.475
1334.92
-923.87
1478.42
-1033.21
1651.77
-1173.71
1850.43
-1324.59
2061.83
-1455.33
2271.49
-1547.82
2469.5
-1616.08
2653.58
-1704.15
2830.13
-1868.45
3017.96
-2147.01
3241.74
-2483.63
3516.75
-2756.53
3841.49
-2880.08
4194.88
-2803.12
4538.67
-2489.11
4815.37
-1893.98
4962.7
-1066.79
4955.91
-245.592
4833.17
275.235
4675.31
329.939
4529.33
73.8388
4418.48
-328.519
4365.43
-802.666
4379.19
-1285.17
4454.46
-1728.83
4590.05
-2125.08
4789.89
-2463.9
5052.21
-2712.26
5366.34
-2831.69
5717.55
-2800
6091.44
-2617.82
6474.64
-2306.07
6853.56
-1902.53
7213.85
-1457.69
7541.44
-1026.2
7825.22
-652.532
8059.27
-356.32
8241.48
-125.639
8370.52
74.6086
8443.93
284.278
8456.56
533.642
8402.16
831.606
8277.34
1160.32
8087.96
1473.29
7851.27
1716.13
7588.67
1862.33
7318.14
1918.99
7051.47
1910.06
6794.58
1861.3
6549.37
1791.92
6315.96
1711.2
6094.81
1618.84
5888.06
1508.36
5699.67
1372.28
5534.61
1206.53
5397.8
1012.05
5293.32
794.226
5223.95
561.833
5190.75
326.319
5192.68
101.568
5225.77
-96.3757
5282.26
-247.521
5351.82
-335.24
5422.15
-348.751
5480.17
-286.417
5514.06
-157.648
5517.19
10.4847
5490.73
181.123
5442.02
327.178
5380.25
430.174
5313.59
498.266
514.82
854.983
873.744
473.408
1490.8
89.6546
2215.13
-62.9466
2197.1
-49.3682
1470.83
-12.492
739.747
-8.40018
409.222
-13.9803
190.866
-5.15996
-18.5628
11.2657
-111.159
34.0754
-171.184
62.9387
-211.762
98.2217
-259.838
141.064
-317.265
190.49
-375.128
244.167
-428.279
300.097
-476.928
357.973
-525.965
419.154
-580.605
485.406
-639.869
557.366
-696.478
633.967
-742.669
713.301
-776.267
793.882
-800.999
875.328
-823.15
958.604
-849.357
1046.63
-887.137
1145.46
-947.298
1263.64
-1042.05
1407.81
-1177.39
1577.33
-1343.23
1763.12
-1510.38
1950.95
-1643.15
2125.56
-1722.44
2273.62
-1764.14
2382.81
-1813.34
2445.9
-1931.55
2489.18
-2190.29
2576.93
-2571.37
2762.17
-2941.77
3056.17
-3174.09
3434.79
-3181.74
3849.22
-2903.54
4221.01
-2265.78
4455.63
-1301.41
4500.29
-290.258
4391.62
383.91
4227.41
494.147
4063.06
238.192
3918.49
-183.949
3812.73
-696.905
3747.34
-1219.78
3729.64
-1711.12
3786.87
-2182.31
3936.82
-2613.86
4172.39
-2947.82
4473.28
-3132.59
4819.47
-3146.19
5195.42
-2993.78
5588.59
-2699.23
5986.68
-2300.62
6376.2
-1847.21
6743.03
-1393.03
7074.54
-984.041
7361.59
-643.365
7599
-363.048
7782.63
-109.021
7907.35
159.558
7966.64
474.347
7953.4
844.851
7862.57
1251.15
7699.46
1636.4
7483.3
1932.29
7238.09
2107.54
6983.52
2173.56
6731.93
2161.65
6488.96
2104.27
6255.73
2025.15
6031.56
1935.37
5816.44
1833.95
5612.66
1712.15
5424.8
1560.13
5258.74
1372.59
5120.25
1150.54
5014.22
900.257
4944.18
631.867
4911.92
358.583
4916.97
96.5182
4955.43
-134.839
5019.13
-311.22
5097.05
-413.159
5175.73
-427.434
5240.15
-350.84
5276.28
-193.778
5276.31
10.4553
5242.37
215.071
5184.55
384.991
5114.83
499.9
5042.86
570.237
583.335
724.126
1125.43
293.037
1921.89
-33.6437
2541.81
-113.496
2276.95
-77.6083
1434.94
-30.4936
692.634
-18.9445
397.677
-22.4696
194.397
-12.1929
-28.832
4.91637
-128.262
28.1084
-194.371
57.4172
-241.067
92.9991
-295.418
135.528
-359.791
183.522
-423.12
234.438
-479.193
286.329
-528.819
339.209
-578.843
394.985
-636.379
456
-700.883
523.111
-763.587
594.979
-814.536
669.235
-850.522
744.097
-875.859
819.221
-898.273
896.076
-926.211
978.705
-969.764
1074.22
-1042.82
1189.91
-1157.73
1327.7
-1315.18
1482.09
-1497.61
1641.93
-1670.22
1791.7
-1792.92
1911.6
-1842.34
1976.84
-1829.38
1953.89
-1790.4
1824.81
-1802.46
1661.94
-2027.43
1597.65
-2507.08
1698.28
-3042.39
1958.06
-3433.87
2352.45
-3576.12
2844.33
-3395.43
3351.83
-2773.28
3743.05
-1692.62
3912.63
-459.84
3872.97
423.567
3733.89
633.229
3576.23
395.859
3411.25
-18.971
3237.14
-522.796
3071.87
-1054.51
2978.71
-1617.97
3007.91
-2211.51
3151.83
-2757.77
3377.46
-3173.45
3658.9
-3414.03
3981.6
-3468.89
4337.26
-3349.43
4718.98
-3080.96
5118.18
-2699.81
5523.14
-2252.17
5919.54
-1789.43
6292.19
-1356.69
6627.55
-978.726
6916.16
-651.652
7153.93
-346.794
7337.54
-24.0535
7458.48
353.409
7504.43
798.904
7463.88
1291.69
7338.67
1761.6
7150.07
2120.9
6925.96
2331.65
6688.93
2410.6
6452.62
2397.96
6222.68
2334.21
5999.52
2248.31
5781.67
2153.22
5568.76
2046.86
5363.44
1917.47
5171.35
1752.23
4999.6
1544.33
4855.2
1294.95
4744.04
1011.41
4670.61
705.295
4637.54
391.656
4645.04
89.0168
4689.19
-178.992
4761.29
-383.321
4849.58
-501.442
4939.17
-517.031
5012.44
-424.108
5052.15
-233.492
5048.67
13.9422
5005.22
258.52
4935.45
454.755
4854.96
580.395
4775.11
650.089
655.068
576.345
1459.16
131.098
2367.14
-120.288
2793.2
-148.915
2305.58
-101.515
1387.54
-45.454
636.577
-26.7824
379.011
-28.7214
196.345
-17.5868
-39.9572
-0.0892137
-145.752
23.2074
-217.662
52.7141
-270.568
88.3219
-331.021
130.209
-401.674
176.462
-469.37
224.393
-527.12
272.141
-576.565
320.062
-626.761
370.645
-686.96
426.777
-757.012
489.377
-826.185
556.63
-881.787
625.584
-919.475
694.197
-944.47
762.343
-966.417
832.256
-996.122
909.019
-1046.53
999.421
-1133.22
1106.96
-1265.27
1228.24
-1436.47
1355
-1624.37
1474.42
-1789.63
1565.04
-1883.54
1595.46
-1872.75
1524.36
-1758.28
1306.68
-1572.71
969.971
-1465.75
685.817
-1743.27
585.623
-2406.89
643.884
-3100.65
822.314
-3612.3
1128.08
-3881.89
1577.24
-3844.59
2144.9
-3340.93
2712.78
-2260.51
3100.76
-847.812
3224.25
300.072
3162.87
694.607
3044.04
514.692
2870.13
154.945
2630.84
-283.511
2427.14
-850.809
2372.54
-1563.36
2458.33
-2297.31
2619.41
-2918.85
2821.39
-3375.43
3056.88
-3649.52
3325.56
-3737.57
3627.76
-3651.63
3962.88
-3416.08
4327.67
-3064.6
4714.45
-2638.96
5110.6
-2185.58
5500.05
-1746.14
5867.67
-1346.35
6203.58
-987.557
6501.53
-644.743
6756.53
-279.052
6955.81
154.121
7075.57
679.15
7092.82
1274.44
7005.77
1848.65
6841.08
2285.59
6633.81
2538.92
6411.14
2633.26
6188.4
2620.7
5970.81
2551.81
5757.41
2461.7
5545.31
2365.32
5333.36
2258.81
5124.48
2126.34
4925.56
1951.14
4745.37
1724.52
4592.41
1447.9
4473.92
1129.91
4395.55
783.663
4360.99
426.225
4371.23
78.7678
4422.23
-229.99
4504.67
-465.758
4606.08
-602.857
4710.03
-620.977
4795.49
-509.565
4840.76
-278.759
4833.57
21.1315
4778.67
313.42
4694.27
539.154
4600.53
674.127
4510.69
739.934
731.213
415.412
1858.78
-3.29838
2785.85
-177.719
2967.62
-175.787
2303.65
-122.154
1333.91
-57.1961
571.621
-32.2183
354.038
-33.2947
197.426
-21.7067
-51.5391
-4.04803
-163.405
19.1505
-240.856
48.6485
-300.062
84.0448
-366.415
125.034
-442.66
169.338
-513.672
214.156
-571.936
257.717
-620.125
300.741
-669.783
346.329
-732.547
397.863
-808.544
456.13
-884.451
518.623
-944.278
581.738
-982.589
643.276
-1006.01
703.555
-1026.7
765.683
-1058.25
835.043
-1115.88
915.932
-1214.1
1006.44
-1355.78
1099.45
-1529.48
1185.38
-1710.3
1245.05
-1849.3
1243.89
-1882.38
1140.22
-1769.09
899.112
-1517.17
533.869
-1207.47
197.43
-1129.31
47.337
-1593.18
22.8587
-2382.41
21.5728
-3099.37
46.9918
-3637.71
138.11
-3973
342.079
-4048.56
721.633
-3720.49
1301.11
-2839.99
1937.46
-1484.16
2362.08
-124.541
2469.79
586.898
2432.18
552.299
2270.05
317.077
2039.75
-53.2158
1943.36
-754.414
2022.41
-1642.41
2163.12
-2438.02
2309.94
-3065.67
2470.13
-3535.62
2655.96
-3835.36
2871.82
-3953.42
3119.13
-3898.94
3399.03
-3695.98
3711.65
-3377.22
4054.43
-2981.74
4421.39
-2552.54
4804.31
-2129.06
5194.56
-1736.6
5581.71
-1374.7
5947.98
-1011.01
6271.05
-602.119
6530.69
-105.526
6702.75
507.093
6755.72
1221.47
6685.97
1918.4
6527.9
2443.67
6325.24
2741.58
6110.09
2848.41
5898.69
2832.1
5694.63
2755.87
5494.21
2662.12
5291.76
2567.76
5084.29
2466.29
4874.37
2336.26
4670.03
2155.48
4481.93
1912.63
4320.45
1609.38
4194.5
1255.86
4111.27
866.889
4075.83
461.669
4090.19
64.4084
4149.99
-289.791
4245.37
-561.138
4363.43
-720.915
4486.04
-743.59
4587.95
-611.468
4641.3
-332.117
4630.21
32.2301
4561.62
382.009
4459.83
640.942
4350.66
783.292
4249.21
841.388
812.466
261.78
2310.18
-104.918
3152.55
-215.857
3078.56
-197.713
2285.51
-141.405
1277.61
-67.4229
497.643
-35.9487
322.571
-36.5671
198.053
-24.8415
-63.2562
-7.1775
-181.062
15.7776
-263.806
45.0749
-329.354
80.0408
-401.378
119.923
-482.539
162.12
-555.867
203.72
-613.533
243.042
-659.444
281.203
-707.941
321.97
-773.312
369.144
-855.716
423.129
-938.434
480.496
-1001.64
536.963
-1039.05
590.339
-1059.38
641.563
-1077.92
694.329
-1111.01
752.795
-1174.35
816.644
-1277.95
879.152
-1418.29
932.384
-1582.71
962.99
-1740.9
938.129
-1824.44
814.806
-1759.06
574.495
-1528.77
256.015
-1198.68
-8.83911
-942.614
-95.6783
-1042.47
-89.2907
-1599.56
-125.518
-2346.18
-206.989
-3017.89
-303.934
-3540.77
-397.738
-3879.2
-465.795
-3980.5
-433.491
-3752.79
-179.855
-3093.62
409.608
-2073.62
1151.79
-866.721
1579.89
158.802
1692.46
439.726
1594.05
415.491
1511.96
28.8809
1622.79
-865.248
1796.23
-1815.85
1927.78
-2569.57
2040.43
-3178.32
2170.57
-3665.76
2331.49
-3996.28
2523.97
-4145.91
2746.7
-4121.67
2999.46
-3948.74
3283.17
-3660.93
3599.52
-3298.08
3950.82
-2903.85
4338.13
-2516.37
4755.48
-2153.95
5183.52
-1802.75
5590.02
-1417.51
5941.44
-953.544
6215.16
-379.239
6394.44
327.813
6446.66
1169.25
6365.52
1999.54
6192.06
2617.13
5978.17
2955.46
5760.61
3065.97
5556.2
3036.51
5366.03
2946.03
5182.5
2845.65
4995.75
2754.52
4799.37
2662.67
4594.45
2541.19
4389.54
2360.39
4197.08
2105.08
4029.59
1776.87
3897.97
1387.48
3811.42
953.435
3776.87
496.217
3797.61
43.6755
3868.77
-360.956
3980.22
-672.587
4119.07
-859.771
4265.54
-890.051
4389.11
-735.045
4453.65
-396.657
4438.18
47.7071
4352.94
467.248
4230.59
763.289
4103.97
909.909
3989.85
955.511
898.903
125.543
2784.4
-175.904
3453.99
-242.25
3144.91
-216.045
2259.3
-159.419
1220.98
-76.919
415.147
-39.1295
284.788
-38.8906
197.82
-27.224
-74.9176
-9.67286
-198.609
12.923
-286.398
41.8519
-358.28
76.1946
-435.719
114.787
-521.129
154.727
-595.806
192.98
-651.785
227.954
-694.416
261.245
-741.23
297.372
-809.437
340.414
-898.757
390.048
-988.067
441.69
-1053.28
490.415
-1087.78
534.211
-1103.17
574.618
-1118.32
615.027
-1151.42
656.395
-1215.72
693.22
-1314.78
717.464
-1442.53
721.827
-1587.07
683.398
-1702.47
559.923
-1700.97
337.672
-1536.8
76.6282
-1267.73
-109.514
-1012.54
-152.487
-899.639
-123.1
-1071.86
-135.501
-1587.16
-213.852
-2267.83
-335.989
-2895.76
-482.234
-3394.52
-646.107
-3715.32
-820.946
-3805.66
-962.765
-3610.97
-990.197
-3066.19
-806.316
-2257.51
-339.685
-1333.35
353.515
-534.397
733.044
60.2008
837.13
311.405
1062.64
-196.628
1353.22
-1155.83
1523.46
-1986.09
1616.39
-2662.5
1705.94
-3267.87
1826.09
-3785.91
1982.88
-4153.08
2173.39
-4336.41
2394.79
-4343.07
2646.32
-4200.27
2929
-3943.61
3245.69
-3614.77
3600.4
-3258.56
3993.95
-2909.92
4416.49
-2576.49
4844.33
-2230.59
5245.46
-1818.64
5592.33
-1300.42
5867.01
-653.914
6053.42
141.402
6109.42
1113.25
6017.44
2091.52
5823.87
2810.7
5590.77
3188.56
5362.55
3294.2
5158.91
3240.15
4979.79
3125.16
4813.97
3011.47
4646.9
2921.59
4467.62
2841.95
4274.27
2734.54
4074.87
2559.78
3883.14
2296.81
3713.54
1946.48
3579.16
1521.85
3491.7
1040.9
3460.53
527.391
3490.48
13.7241
3575.85
-446.327
3706.77
-803.502
3871.12
-1024.13
4047.56
-1066.48
4199.19
-886.678
4278.56
-476.033
4257.69
68.5799
4151.71
573.228
4004.93
910.071
3858.94
1055.9
3731.72
1082.73
989.86
10.7397
3253.72
-222.805
3687.54
-261.204
3183.3
-231.282
2229.38
-177.459
1167.16
-87.3577
325.051
-42.8448
240.283
-40.7391
195.723
-29.0449
-86.604
-11.7079
-215.94
10.4242
-308.526
38.8447
-386.696
72.4002
-469.271
109.529
-558.254
147.043
-633.316
181.758
-686.498
212.197
-724.853
240.587
-769.618
272.3
-841.147
311.439
-937.894
356.498
-1033.12
401.535
-1098.32
441.072
-1127.31
473.38
-1135.48
500.192
-1145.14
523.131
-1174.36
538.702
-1231.29
539.079
-1315.15
519.977
-1423.43
472.406
-1539.5
364.375
-1594.44
176.567
-1513.16
-32.6974
-1327.54
-170.359
-1130.07
-217.734
-965.164
-216.794
-900.576
-212.225
-1076.43
-248.242
-1551.14
-342.324
-2173.75
-481.592
-2756.49
-647.249
-3228.86
-827.056
-3535.52
-1014.24
-3618.48
-1178.5
-3446.71
-1265.49
-2979.2
-1238.88
-2284.12
-1076.85
-1495.37
-801.783
-809.468
-369.68
-371.899
220.479
-278.753
774.202
-750.348
1054.75
-1436.38
1164.63
-2095.96
1231.84
-2729.71
1320.04
-3356.08
1446.5
-3912.36
1607.36
-4313.94
1797.01
-4526.06
2014.09
-4560.15
2259.7
-4445.87
2535.3
-4219.22
2842.8
-3922.27
3184.92
-3600.68
3562.06
-3287.06
3965.81
-2980.24
4375.69
-2640.47
4763.46
-2206.41
5105.46
-1642.42
5387.89
-936.34
5599.18
-69.8918
5686.98
1025.45
5609.44
2169.06
5412.12
3008.03
5166.37
3434.31
4926.95
3533.62
4720.08
3447.01
4547.51
3297.73
4396.58
3162.4
4249.13
3069.03
4089.59
3001.49
3912.27
2911.86
3723.52
2748.53
3537.37
2482.96
3369.7
2114.15
3235.67
1655.88
3149.84
1126.73
3124.75
552.485
3166.99
-28.5161
3269.23
-548.567
3423
-957.269
3618.04
-1219.17
3831.63
-1280.07
4019.16
-1074.21
4117.65
-574.528
4089.49
96.7394
3957.05
705.669
3780.95
1086.17
3613.77
1223.09
3473.82
1222.68
1083.68
-80.4334
3694.03
-253.156
3860.26
-274.831
3204.98
-243.489
2198.04
-194.382
1118.06
-97.0521
227.725
-47.19
190.429
-42.3218
190.861
-30.4653
-98.4559
-13.4134
-232.988
8.17152
-330.108
35.9507
-414.473
68.561
-501.88
104.049
-593.74
138.924
-668.19
169.825
-717.398
195.458
-750.484
218.932
-793.09
246.544
-868.759
281.978
-973.326
322.012
-1073.16
359.217
-1135.52
387.682
-1155.78
405.861
-1153.66
414.8
-1154.07
413.046
-1172.6
394.369
-1212.61
355.435
-1276.22
298.144
-1366.13
208.124
-1449.48
62.4597
-1448.77
-104.085
-1346.61
-219.443
-1212.18
-278.738
-1070.77
-316.241
-927.659
-333.563
-883.253
-340.84
-1069.15
-380.552
-1511.43
-477.014
-2077.28
-622.341
-2611.16
-798.671
-3052.53
-986.754
-3347.43
-1171.45
-3433.78
-1326.02
-3292.14
-1402.77
-2902.46
-1364.95
-2321.93
-1172.85
-1687.47
-835.765
-1146.55
-364.328
-843.334
156.835
-799.916
521.251
-1114.76
685.58
-1600.71
759.113
-2169.49
834.48
-2805.08
948.5
-3470.1
1095.68
-4059.54
1262.04
-4480.3
1443.05
-4707.07
1642.27
-4759.37
1864.84
-4668.44
2114.01
-4468.39
2392.46
-4200.71
2704.79
-3913.01
3054.77
-3637.04
3436.68
-3362.15
3829.98
-3033.77
4205.31
-2581.74
4540.51
-1977.61
4824.33
-1220.16
5052.83
-298.396
5177.11
901.167
5129.27
2216.9
4947.51
3189.79
4704.44
3677.37
4461.97
3776.09
4253.54
3655.44
4085.03
3466.24
3945.02
3302.41
3814.03
3200.02
3673.23
3142.29
3513.25
3071.83
3338.08
2923.7
3161.04
2660
2998.52
2276.67
2867.29
1787.11
2785.17
1208.85
2768.65
569.003
2826.16
-86.0259
2947.23
-669.636
3127.03
-1137.07
3358.52
-1450.66
3618.13
-1539.68
3851.74
-1307.82
3974.33
-697.118
3935.34
135.729
3768.12
872.88
3556.28
1298.02
3366.21
1413.15
3215.06
1373.84
1177.63
-150.395
4060.42
-272.799
3982.67
-284.024
3216.2
-252.581
2166.6
-208.356
1073.84
-107.242
126.618
-51.083
134.28
-43.678
183.466
-31.6138
-110.513
-14.9047
-249.691
6.06103
-351.069
33.0759
-441.483
64.5891
-533.39
98.243
-627.39
130.209
-700.154
156.916
-744.102
177.407
-770.973
196.027
-811.707
219.955
-892.684
251.77
-1005.14
286.008
-1107.39
313.75
-1163.26
328.728
-1170.75
329.183
-1154.11
314.52
-1139.41
281.062
-1139.14
226.514
-1158.06
158.549
-1208.25
80.0599
-1287.64
-26.3843
-1343.03
-155.665
-1319.49
-263.183
-1239.09
-335.464
-1139.9
-395.003
-1011.23
-439.365
-883.295
-456.098
-866.518
-464.721
-1060.52
-504.561
-1471.59
-596.32
-1985.52
-735.873
-2471.6
-909.583
-2878.82
-1096.45
-3160.56
-1269.17
-3261.06
-1390.99
-3170.32
-1412.56
-2880.9
-1307.53
-2426.95
-1085.2
-1909.8
-768.115
-1463.64
-399.346
-1212.1
-45.3924
-1153.87
181.28
-1341.43
287.758
-1707.19
364.256
-2245.98
479.052
-2919.87
633.786
-3624.83
802.129
-4227.88
969.209
-4647.38
1135.86
-4873.72
1311.01
-4934.52
1503.71
-4861.15
1719.18
-4683.86
1961.28
-4442.81
2236.96
-4188.69
2553.35
-3953.43
2906.32
-3715.12
3273.74
-3401.19
3625.22
-2933.22
3942.79
-2295.18
4219.86
-1497.23
4453.56
-532.095
4603.03
751.695
4582.72
2237.21
4427.13
3345.39
4202.25
3902.25
3969.74
4008.6
3767.05
3858.13
3604.24
3629.05
3472.8
3433.85
3354.36
3318.46
3229.02
3267.63
3085.04
3215.82
2924.06
3084.68
2757.94
2826.13
2602.49
2432.12
2475.35
1914.26
2398.03
1286.17
2392.05
574.987
2467.04
-161.022
2607.96
-810.555
2816.95
-1346.06
3091.87
-1725.58
3408.97
-1856.78
3702.48
-1601.33
3855.56
-850.197
3799.86
191.426
3585.4
1087.34
3328.48
1554.94
3113.33
1628.3
2953.89
1533.28
1267.27
-200.603
4369.85
-285.236
4067.3
-289.079
3220.05
-258.268
2135.79
-216.399
1031.97
-118.428
28.6494
-56.439
72.297
-44.8077
171.842
-32.587
-122.73
-16.2809
-265.994
4.00072
-371.348
30.138
-467.619
60.4049
-563.656
92.0091
-658.993
120.722
-728.865
142.742
-766.121
157.737
-785.966
171.72
-825.688
192.447
-913.41
220.499
-1033.19
247.776
-1134.67
264.004
-1179.49
262.523
-1169.27
240.898
-1132.49
197.399
-1095.91
131.736
-1073.48
54.1274
-1080.45
-20.9472
-1133.17
-100.054
-1208.53
-198.166
-1244.92
-300.511
-1217.14
-385.701
-1153.9
-458.021
-1067.58
-519.096
-950.152
-556.434
-845.956
-569.895
-853.055
-581.19
-1049.23
-620.944
-1431.83
-705.99
-1900.48
-833.485
-2344.11
-992.633
-2719.67
-1163.61
-2989.59
-1314.71
-3109.96
-1410.98
-3074.04
-1422.61
-2869.27
-1333.37
-2516.19
-1134.62
-2108.56
-842.509
-1755.75
-532.131
-1522.48
-285.395
-1400.6
-154.747
-1472.08
-79.2729
-1782.66
24.2349
-2349.49
179.626
-3075.26
358.564
-3803.77
532.616
-4401.93
692.972
-4807.74
843.729
-5024.47
995.722
-5086.52
1159.71
-5025.14
1341.68
-4865.83
1545.94
-4647.07
1781.46
-4424.22
2058.79
-4230.75
2374.99
-4031.32
2706.04
-3732.24
3021.87
-3249.05
3311.69
-2585
3578.49
-1764.04
3815.08
-768.677
3983.36
583.405
3981.71
2238.86
3854.46
3472.64
3659.04
4097.67
3449.96
4217.68
3263.4
4044.68
3111.55
3780.91
2989.08
3556.31
2880.35
3427.2
2766.66
3381.32
2635.81
3346.66
2487.97
3232.52
2333.07
2981.02
2185.26
2579.94
2061.98
2037.54
1989.21
1358.94
1995.17
569.025
2088.21
-254.068
2248.63
-970.974
2489.05
-1586.47
2810.89
-2047.42
3190
-2235.89
3553.32
-1964.65
3747.88
-1044.76
3678.26
261.038
3406.91
1358.69
3094.67
1867.18
2852.43
1870.53
2689.26
1696.45
1346.74
-235.157
4619.51
-292.365
4124.51
-290.123
3217.81
-260.241
2105.9
-218.611
990.34
-124.257
-65.7007
-61.4027
9.45036
-45.6941
156.145
-33.4563
-134.961
-17.6225
-281.822
1.91886
-390.886
27.0742
-492.77
55.9382
-592.517
85.2408
-688.292
110.265
-753.886
127.005
-782.858
136.222
-795.181
145.999
-835.462
163.978
-931.388
187.757
-1056.97
206.503
-1153.42
208.827
-1181.81
187.648
-1148.09
140.387
-1085.22
68.6619
-1024.18
-15.7696
-989.044
-92.7088
-1003.51
-159.382
-1066.5
-236.245
-1131.67
-330.369
-1150.79
-424.893
-1122.62
-508.344
-1070.45
-579.763
-996.155
-633.824
-896.09
-665.051
-814.727
-678.684
-839.421
-693.617
-1034.29
-735.496
-1389.95
-818.612
-1817.36
-939.964
-2222.76
-1089.6
-2570.04
-1250.41
-2828.78
-1395.09
-2965.28
-1493.2
-2975.93
-1514.04
-2848.42
-1432.99
-2597.24
-1242.52
-2299.02
-973.285
-2024.98
-705.521
-1790.24
-517.228
-1588.9
-432.108
-1557.2
-367.97
-1846.8
-253.526
-2463.93
-91.2044
-3237.59
84.8212
-3979.79
251.017
-4568.13
400.869
-4957.59
537.675
-5161.28
671.128
-5219.97
811.749
-5165.76
965.321
-5019.4
1136.01
-4817.76
1333.97
-4622.18
1571.53
-4468.32
1845.41
-4305.19
2130.45
-4017.28
2400.4
-3519
2652.72
-2837.32
2902.48
-2013.8