/*--------------------------------*- C++ -*----------------------------------*\
| =========                 |                                                 |
| \\      /  F ield         | OpenFOAM: The Open Source CFD Toolbox           |
|  \\    /   O peration     | Version:  4.1                                   |
|   \\  /    A nd           | Web:      www.OpenFOAM.org                      |
|    \\/     M anipulation  |                                                 |
\*---------------------------------------------------------------------------*/
FoamFile
{
    version     2.0;
    format      ascii;
    class       volVectorField;
    location    "1100";
    object      U;
}
// * * * * * * * * * * * * * * * * * * * * * * * * * * * * * * * * * * * * * //

dimensions      [0 1 -1 0 0 0 0];

internalField   nonuniform List<vector> 
26785
(
(9.45044e-16 0.0706768 11.0613)
(8.55545e-16 0.0579964 9.83455)
(5.36531e-15 0.0599929 8.75745)
(-1.74003e-15 0.0862977 7.43808)
(-1.74737e-14 0.119231 5.09468)
(-4.5261e-14 0.108274 2.44871)
(6.05528e-15 0.0584927 0.853602)
(2.03524e-14 0.0137075 0.310694)
(5.76003e-14 -0.00584206 0.2784)
(-1.91168e-14 -0.00782279 0.369187)
(4.57065e-14 -0.00892215 0.49876)
(6.78909e-14 -0.00930917 0.631155)
(5.35575e-14 -0.0106658 0.778702)
(4.39301e-14 -0.0118438 0.9496)
(3.64997e-14 -0.012378 1.1276)
(2.91024e-14 -0.0127341 1.30949)
(2.62319e-14 -0.0136454 1.50527)
(2.33462e-14 -0.015489 1.72601)
(2.1067e-14 -0.0181754 1.97968)
(8.77828e-15 -0.0212527 2.27036)
(7.54077e-15 -0.0242011 2.59664)
(8.49105e-15 -0.0267084 2.95186)
(-9.50811e-16 -0.028776 3.32745)
(-1.37672e-15 -0.0305954 3.71672)
(-7.54741e-15 -0.0323735 4.11644)
(-8.84395e-15 -0.034272 4.52629)
(-1.01696e-14 -0.0364396 4.94811)
(-1.04718e-14 -0.0390651 5.38573)
(-1.26748e-14 -0.042324 5.84506)
(-1.61543e-14 -0.0462824 6.33318)
(-2.02273e-14 -0.0507976 6.85635)
(-1.54948e-14 -0.0554276 7.41702)
(-1.41768e-14 -0.059591 8.01112)
(-1.14407e-14 -0.0630532 8.62916)
(-1.36589e-14 -0.0665895 9.26469)
(-1.18227e-14 -0.072087 9.92645)
(-9.50278e-15 -0.0820291 10.647)
(-8.20067e-15 -0.0981772 11.4839)
(-7.26531e-15 -0.117943 12.4896)
(-6.46947e-15 -0.135014 13.6616)
(-4.49474e-15 -0.14377 14.9311)
(-3.31136e-15 -0.140433 16.1923)
(-2.60003e-15 -0.122829 17.3275)
(-1.95534e-15 -0.0906012 18.2162)
(-1.28836e-15 -0.0500528 18.7628)
(-5.89923e-16 -0.0148534 18.9582)
(-3.0297e-16 0.0019715 18.9157)
(-3.48552e-17 -0.00322697 18.8281)
(2.83272e-16 -0.0231971 18.8622)
(6.83003e-16 -0.0494546 19.098)
(1.50998e-15 -0.0768437 19.5507)
(2.23601e-15 -0.102509 20.2045)
(2.9164e-15 -0.124959 21.0298)
(3.51104e-15 -0.142605 21.9931)
(4.04915e-15 -0.152265 23.0518)
(4.28415e-15 -0.149694 24.1414)
(4.94379e-15 -0.131972 25.1722)
(5.60275e-15 -0.0998696 26.0427)
(5.81482e-15 -0.0583972 26.6646)
(7.02488e-15 -0.015056 26.9889)
(8.10395e-15 0.0230534 27.0183)
(9.0483e-15 0.0517056 26.7999)
(9.46272e-15 0.0702898 26.4067)
(1.1275e-14 0.0803759 25.9119)
(1.20656e-14 0.0842687 25.3727)
(1.24899e-14 0.0844817 24.8261)
(1.27205e-14 0.0835593 24.2893)
(1.27882e-14 0.0838016 23.7613)
(1.29002e-14 0.0867967 23.2281)
(1.24477e-14 0.0929682 22.6695)
(1.4349e-14 0.101458 22.0678)
(1.41051e-14 0.110398 21.4147)
(1.41895e-14 0.117717 20.7154)
(1.40612e-14 0.122134 19.9863)
(1.40322e-14 0.123494 19.2478)
(1.27471e-14 0.122382 18.5178)
(1.16109e-14 0.119599 17.8085)
(1.17482e-14 0.115799 17.1268)
(1.1942e-14 0.111328 16.4764)
(1.19479e-14 0.106208 15.8598)
(1.16893e-14 0.100245 15.2803)
(1.14149e-14 0.0931992 14.7425)
(1.1121e-14 0.0849366 14.2521)
(1.0663e-14 0.0755022 13.8151)
(9.81065e-15 0.0651289 13.4365)
(9.17673e-15 0.0542142 13.1194)
(8.51252e-15 0.0432892 12.8644)
(7.79156e-15 0.0329965 12.6688)
(6.80863e-15 0.0239916 12.5267)
(5.86404e-15 0.0170347 12.4287)
(5.0174e-15 0.0129756 12.3613)
(4.07577e-15 0.012333 12.3078)
(3.1024e-15 0.0151384 12.2502)
(2.10159e-15 0.02074 12.1715)
(1.12444e-15 0.0278684 12.0617)
(1.51024e-16 0.0351201 11.9128)
(-7.87729e-16 0.041637 11.7383)
(-1.76068e-15 0.0462136 11.5135)
(-2.58312e-15 0.0499679 11.3385)
(-3.99283e-15 0.0491806 10.9796)
(1.26151e-15 0.175116 10.7618)
(2.79085e-16 0.150889 9.62511)
(3.30063e-15 0.174469 8.562)
(-6.84075e-15 0.278966 6.94855)
(-1.51412e-14 0.370008 4.28081)
(-4.53177e-14 0.299897 1.9415)
(3.1492e-14 0.155506 0.824997)
(1.37271e-14 0.0502852 0.498949)
(-3.52144e-14 -0.0080602 0.396694)
(2.1366e-14 -0.0184192 0.43772)
(5.66474e-14 -0.0221623 0.533809)
(7.05805e-14 -0.0235833 0.643838)
(4.97748e-14 -0.0280084 0.7706)
(3.93342e-14 -0.0323513 0.925041)
(1.54419e-14 -0.0354863 1.0972)
(7.71051e-15 -0.0388863 1.28877)
(2.05088e-14 -0.0442624 1.50938)
(1.54111e-14 -0.0519902 1.76513)
(7.76441e-15 -0.0614935 2.05842)
(1.40255e-14 -0.0715723 2.38964)
(1.05757e-15 -0.0808785 2.75525)
(9.68519e-15 -0.0885512 3.14713)
(3.82212e-15 -0.0945774 3.55542)
(2.70031e-15 -0.0995272 3.97233)
(2.73621e-15 -0.104092 4.39383)
(-3.06045e-15 -0.108888 4.81932)
(-4.72407e-15 -0.114499 5.2509)
(-5.90904e-15 -0.121583 5.693)
(-6.12621e-15 -0.130688 6.15214)
(-9.58369e-15 -0.141951 6.63558)
(-5.92428e-15 -0.154771 7.1491)
(-4.38868e-15 -0.167586 7.69453)
(-3.08769e-15 -0.178532 8.26847)
(-1.72118e-15 -0.187097 8.86456)
(-2.0939e-15 -0.196141 9.48165)
(-1.32635e-15 -0.212161 10.1351)
(-1.17122e-15 -0.243435 10.8645)
(-8.72757e-16 -0.294825 11.7309)
(-5.15795e-16 -0.356079 12.7783)
(3.19609e-17 -0.405586 13.9827)
(4.92324e-16 -0.426128 15.2554)
(1.59924e-15 -0.408374 16.4832)
(2.08093e-15 -0.348575 17.5539)
(2.35971e-15 -0.247694 18.359)
(2.48296e-15 -0.124733 18.8141)
(2.68915e-15 -0.0192373 18.9132)
(2.95617e-15 0.030766 18.7659)
(3.21043e-15 0.0141269 18.563)
(3.1819e-15 -0.0473971 18.4732)
(3.46428e-15 -0.127787 18.5784)
(3.38792e-15 -0.210736 18.8945)
(3.53669e-15 -0.287098 19.4044)
(3.75841e-15 -0.352917 20.0772)
(3.83728e-15 -0.40558 20.8815)
(4.02631e-15 -0.438831 21.7872)
(4.01466e-15 -0.44251 22.7543)
(4.3721e-15 -0.407199 23.7244)
(4.7674e-15 -0.330306 24.6208)
(4.31669e-15 -0.219793 25.3598)
(4.24661e-15 -0.0930755 25.8696)
(4.02866e-15 0.0284327 26.1106)
(5.56333e-15 0.126845 26.0865)
(6.75281e-15 0.193806 25.8461)
(6.23349e-15 0.231307 25.4649)
(6.48371e-15 0.246935 25.0099)
(6.70688e-15 0.249838 24.5269)
(7.13553e-15 0.248928 24.0373)
(6.15152e-15 0.251581 23.5418)
(1.14321e-14 0.26246 23.0273)
(1.25538e-14 0.282606 22.4753)
(1.22655e-14 0.309307 21.8704)
(1.37652e-14 0.336902 21.2065)
(1.39293e-14 0.359154 20.4915)
(1.39603e-14 0.372283 19.7442)
(1.26047e-14 0.375951 18.987)
(1.2468e-14 0.372053 18.2391)
(1.26547e-14 0.363095 17.5132)
(1.28595e-14 0.351111 16.8165)
(1.38541e-14 0.337159 16.1526)
(1.40261e-14 0.321288 15.5241)
(1.38849e-14 0.302885 14.9343)
(1.35878e-14 0.281192 14.3881)
(1.31106e-14 0.25578 13.8913)
(1.27873e-14 0.226776 13.4503)
(1.21946e-14 0.194884 13.0702)
(1.12997e-14 0.161307 12.7543)
(1.00823e-14 0.127655 12.5032)
(9.44912e-15 0.0958843 12.3143)
(8.78342e-15 0.0679955 12.1816)
(7.90049e-15 0.0463481 12.095)
(6.82414e-15 0.0335348 12.0409)
(5.806e-15 0.0310864 12.0022)
(4.89261e-15 0.0391019 11.9604)
(3.72879e-15 0.0557938 11.8985)
(2.77363e-15 0.0774294 11.8048)
(1.74319e-15 0.0996694 11.6706)
(6.3445e-16 0.119809 11.509)
(-4.89204e-16 0.1342 11.2958)
(-1.41831e-15 0.14593 11.1299)
(-2.91421e-15 0.144624 10.7827)
(5.86011e-16 0.281062 10.3623)
(5.01281e-15 0.248829 9.30831)
(1.57613e-15 0.31339 8.10625)
(-1.377e-14 0.504382 5.93342)
(-1.65847e-14 0.609522 3.0627)
(-5.07738e-14 0.440943 1.36763)
(5.77444e-14 0.215335 0.705561)
(4.66794e-15 0.0754488 0.507766)
(6.72127e-15 -0.00535396 0.3533)
(2.95438e-14 -0.0244257 0.369169)
(5.4298e-14 -0.0330827 0.451801)
(7.5105e-14 -0.0369608 0.563005)
(4.17973e-14 -0.0452478 0.68965)
(3.5631e-14 -0.0538541 0.847002)
(3.50167e-14 -0.0614193 1.03401)
(6.25326e-15 -0.0698875 1.25453)
(5.13215e-15 -0.0809642 1.51071)
(-5.12477e-15 -0.0947014 1.80001)
(-1.65199e-15 -0.110408 2.12042)
(-5.7369e-15 -0.126558 2.47107)
(-6.05786e-15 -0.141181 2.84846)
(7.58396e-15 -0.152917 3.24482)
(1.09053e-14 -0.161751 3.65071)
(3.79478e-15 -0.168663 4.05867)
(3.73591e-15 -0.174887 4.46504)
(1.78169e-15 -0.181543 4.86973)
(-3.74159e-15 -0.18967 5.27539)
(-2.72316e-15 -0.200374 5.68695)
(-1.61255e-15 -0.214495 6.1112)
(-6.43759e-16 -0.232103 6.55555)
(2.15958e-16 -0.252126 7.02709)
(2.77218e-15 -0.272303 7.53282)
(3.29975e-15 -0.290326 8.07869)
(8.57715e-16 -0.306192 8.66747)
(4.61718e-16 -0.32517 9.3023)
(-2.24804e-16 -0.358003 9.99679)
(-1.05134e-15 -0.417265 10.7827)
(-1.6234e-15 -0.507877 11.7064)
(-1.32962e-15 -0.608929 12.7907)
(-9.63271e-16 -0.683746 13.9948)
(-4.65281e-16 -0.706906 15.2274)
(2.44394e-16 -0.667058 16.3867)
(9.20033e-16 -0.56063 17.3777)
(1.59808e-15 -0.38921 18.1059)
(2.28538e-15 -0.182137 18.4903)
(2.87761e-15 -0.00292599 18.5163)
(3.30417e-15 0.0854661 18.2785)
(3.60124e-15 0.0628175 17.9597)
(3.94036e-15 -0.0352345 17.7306)
(4.41834e-15 -0.165374 17.6766)
(4.95095e-15 -0.300212 17.8184)
(5.29099e-15 -0.424148 18.1448)
(5.55362e-15 -0.53107 18.6297)
(5.93743e-15 -0.618849 19.2471)
(6.31119e-15 -0.680826 19.9744)
(6.76976e-15 -0.703857 20.7843)
(7.46197e-15 -0.673461 21.6381)
(6.62328e-15 -0.58167 22.4841)
(6.14488e-15 -0.433287 23.2602)
(4.49446e-15 -0.247395 23.901)
(3.55976e-15 -0.053315 24.3511)
(3.38211e-15 0.11825 24.579)
(3.70271e-15 0.246038 24.5869)
(3.62962e-15 0.324874 24.4181)
(4.98502e-15 0.364217 24.1341)
(6.29945e-15 0.379578 23.7847)
(4.32359e-15 0.386919 23.3971)
(4.29424e-15 0.399215 22.9771)
(4.76574e-15 0.424348 22.5157)
(5.19608e-15 0.463932 21.9982)
(5.48268e-15 0.513344 21.4119)
(6.16902e-15 0.563018 20.754)
(5.57909e-15 0.602456 20.0354)
(4.32619e-15 0.625484 19.2787)
(4.32149e-15 0.63186 18.5093)
(4.67881e-15 0.62509 17.7484)
(5.16715e-15 0.60962 17.01)
(5.63185e-15 0.588998 16.3018)
(6.02392e-15 0.565039 15.6278)
(6.28539e-15 0.537813 14.9908)
(6.38658e-15 0.506244 14.3943)
(6.3307e-15 0.469035 13.8435)
(6.15554e-15 0.425463 13.3449)
(5.92181e-15 0.375774 12.905)
(5.5536e-15 0.321186 12.5291)
(5.00922e-15 0.263755 12.2206)
(4.32959e-15 0.206212 11.9799)
(3.50571e-15 0.151869 11.8042)
(2.66992e-15 0.104132 11.6873)
(1.25568e-15 0.0670624 11.6181)
(3.10969e-16 0.0449987 11.5827)
(-6.06986e-16 0.0404213 11.5634)
(-1.59003e-15 0.0534643 11.541)
(-2.40271e-15 0.0814032 11.498)
(-2.99899e-15 0.118113 11.4221)
(-3.44091e-15 0.156094 11.3037)
(-3.72589e-15 0.190549 11.1562)
(-3.97444e-15 0.215456 10.9561)
(-4.15376e-15 0.235371 10.8007)
(-4.66538e-15 0.234942 10.4694)
(5.48353e-16 0.379616 9.93658)
(6.76418e-15 0.352523 8.93375)
(1.31293e-15 0.488961 7.35453)
(-1.51379e-14 0.753881 4.54162)
(-1.37316e-14 0.808362 1.85211)
(-2.15328e-14 0.524037 0.894913)
(2.61738e-14 0.249786 0.53098)
(-5.49612e-14 0.0944081 0.411356)
(-4.39042e-15 -0.00136218 0.262849)
(1.13863e-14 -0.0303134 0.283958)
(4.85044e-14 -0.0455216 0.364372)
(7.9833e-14 -0.0524087 0.482873)
(3.25171e-14 -0.0643821 0.61692)
(4.22053e-14 -0.0778078 0.784827)
(2.28685e-14 -0.0907696 0.989249)
(4.82577e-16 -0.104828 1.23096)
(-8.19671e-15 -0.121235 1.50496)
(4.10881e-15 -0.140022 1.80452)
(6.63705e-16 -0.160816 2.1269)
(-1.12627e-15 -0.181978 2.472)
(1.38206e-16 -0.20097 2.83747)
(8.46946e-15 -0.215934 3.21666)
(6.46709e-15 -0.226832 3.60097)
(4.29516e-15 -0.235044 3.98353)
(3.14651e-15 -0.242326 4.3612)
(3.56694e-15 -0.250287 4.73439)
(2.85133e-15 -0.260403 5.1063)
(2.74348e-15 -0.274199 5.48235)
(2.56318e-15 -0.2928 5.87002)
(2.11542e-15 -0.316497 6.27917)
(3.94521e-15 -0.344651 6.72423)
(3.45301e-15 -0.375402 7.22436)
(1.49865e-15 -0.406028 7.79417)
(-2.57906e-16 -0.435457 8.43247)
(-3.93953e-15 -0.469081 9.1267)
(-3.33195e-15 -0.519959 9.87061)
(-5.43632e-15 -0.603924 10.6784)
(-5.19985e-15 -0.726348 11.5862)
(-2.91589e-15 -0.857715 12.6172)
(-3.35343e-15 -0.949313 13.7389)
(-2.79188e-15 -0.969999 14.8739)
(-1.48598e-15 -0.907134 15.9353)
(-9.15164e-16 -0.756616 16.841)
(-2.3087e-16 -0.518319 17.5023)
(8.43022e-16 -0.228872 17.8339)
(1.91944e-15 0.0259407 17.8072)
(2.5266e-15 0.157889 17.4988)
(3.34078e-15 0.13527 17.0823)
(4.25008e-15 0.00670783 16.7303)
(4.85288e-15 -0.168255 16.5315)
(5.45865e-15 -0.352171 16.5143)
(5.89407e-15 -0.523095 16.679)
(7.40865e-15 -0.672226 17.0094)
(9.36048e-15 -0.79731 17.4864)
(1.12042e-14 -0.890962 18.0899)
(1.21887e-14 -0.93781 18.7928)
(1.29771e-14 -0.920535 19.5597)
(1.20515e-14 -0.828359 20.3496)
(1.08947e-14 -0.663593 21.1174)
(8.11898e-15 -0.44396 21.8138)
(6.44453e-15 -0.200204 22.3883)
(3.92365e-15 0.0311174 22.7985)
(2.80236e-15 0.219165 23.0213)
(2.15149e-15 0.348402 23.0629)
(2.57897e-15 0.423337 22.9628)
(6.20165e-16 0.462637 22.7656)
(8.28088e-16 0.488303 22.4999)
(4.17349e-15 0.518755 22.1749)
(4.76082e-15 0.565271 21.7855)
(6.20594e-15 0.630313 21.3197)
(3.33092e-15 0.707537 20.7675)
(2.88719e-15 0.783395 20.128)
(1.19265e-15 0.842919 19.4158)
(2.22511e-15 0.877561 18.6579)
(3.89048e-15 0.887451 17.884)
(2.7572e-15 0.87802 17.1179)
(3.01076e-15 0.855907 16.3753)
(1.85867e-15 0.826334 15.6645)
(1.10498e-15 0.791953 14.9896)
(4.42249e-16 0.752854 14.3532)
(-1.77363e-16 0.707472 13.7591)
(-8.68582e-16 0.653943 13.2125)
(-1.57051e-15 0.591268 12.72)
(-2.39028e-15 0.519854 12.2885)
(-3.1199e-15 0.441497 11.9233)
(-3.87221e-15 0.359161 11.6276)
(-4.1825e-15 0.276744 11.4018)
(-5.03426e-15 0.198961 11.2427)
(-5.71895e-15 0.130698 11.1441)
(-6.84314e-15 0.0778424 11.0936)
(-7.30247e-15 0.0464223 11.0773)
(-8.12474e-15 0.0398557 11.0766)
(-8.74211e-15 0.0582521 11.0717)
(-9.15838e-15 0.0979773 11.0446)
(-9.30176e-15 0.15048 10.9829)
(-9.30483e-15 0.204906 10.8764)
(-9.19318e-15 0.254091 10.7392)
(-8.95191e-15 0.28984 10.5496)
(-8.58945e-15 0.317656 10.4028)
(-8.02227e-15 0.319185 10.0877)
(1.0795e-15 0.463942 9.5277)
(5.79154e-15 0.47296 8.46699)
(-4.6654e-15 0.709934 6.26612)
(-1.29837e-14 1.00558 3.00236)
(-4.51094e-15 0.950037 0.886754)
(-1.48492e-14 0.56107 0.537051)
(2.6636e-14 0.269322 0.350305)
(-3.61421e-14 0.107993 0.275008)
(-1.57041e-14 0.000604275 0.165048)
(-1.60355e-14 -0.0378621 0.204116)
(4.43381e-14 -0.059283 0.287481)
(7.61109e-14 -0.0694357 0.41374)
(2.18061e-14 -0.0850411 0.557336)
(1.41255e-14 -0.103483 0.736476)
(4.14074e-15 -0.122112 0.953898)
(-1.32814e-14 -0.141541 1.20632)
(-7.43274e-15 -0.162489 1.48409)
(-1.84073e-15 -0.185317 1.77909)
(-7.6118e-16 -0.210247 2.08937)
(6.32327e-16 -0.235643 2.4164)
(1.11958e-15 -0.258418 2.75966)
(4.52988e-16 -0.276159 3.11397)
(-8.37798e-16 -0.288742 3.47153)
(5.61047e-16 -0.297905 3.82585)
(1.54882e-15 -0.305934 4.17402)
(3.48759e-15 -0.314945 4.51686)
(1.83335e-15 -0.326864 4.85808)
(2.08934e-15 -0.343694 5.20392)
(2.48208e-15 -0.367193 5.56435)
(3.38547e-16 -0.398793 5.9562)
(-1.42779e-15 -0.439217 6.40559)
(-4.34866e-15 -0.486335 6.93906)
(-7.22355e-15 -0.534202 7.56238)
(-7.14331e-15 -0.577744 8.25097)
(-8.00885e-15 -0.621635 8.96854)
(-8.25766e-15 -0.682594 9.69491)
(-7.11063e-15 -0.782341 10.442)
(-5.56614e-15 -0.929599 11.2553)
(-4.60903e-15 -1.08762 12.1744)
(-4.12808e-15 -1.19535 13.1825)
(-4.18022e-15 -1.21537 14.2145)
(-4.24103e-15 -1.13303 15.1925)
(-4.16172e-15 -0.942871 16.0389)
(-3.25745e-15 -0.641128 16.6615)
(-2.05016e-15 -0.26953 16.9615)
(-8.15029e-16 0.064149 16.8929)
(4.17444e-16 0.245363 16.5165)
(1.59999e-15 0.22824 16.0048)
(2.76922e-15 0.0744597 15.5367)
(3.46013e-15 -0.14104 15.205)
(4.87881e-15 -0.372383 15.0454)
(6.93107e-15 -0.591714 15.0717)
(1.05757e-14 -0.786888 15.2796)
(1.41837e-14 -0.954281 15.6535)
(1.69003e-14 -1.08444 16.17)
(1.79452e-14 -1.15942 16.7979)
(1.79265e-14 -1.16011 17.5013)
(1.67592e-14 -1.07475 18.2447)
(1.65525e-14 -0.904521 18.994)
(1.42594e-14 -0.665716 19.7133)
(1.41501e-14 -0.38848 20.3623)
(1.097e-14 -0.111477 20.8999)
(8.8776e-15 0.128376 21.2928)
(7.67974e-15 0.308213 21.5259)
(5.92881e-15 0.425113 21.6076)
(9.11425e-15 0.49643 21.568)
(9.65681e-15 0.548469 21.4329)
(1.22533e-14 0.604544 21.2138)
(1.17319e-14 0.679304 20.9081)
(1.41002e-14 0.776228 20.5059)
(1.35246e-14 0.887273 19.9978)
(1.30185e-14 0.994449 19.3848)
(1.00727e-14 1.07767 18.6855)
(9.55936e-15 1.12589 17.9327)
(9.94778e-15 1.13994 17.1615)
(1.03429e-14 1.12769 16.3993)
(1.00987e-14 1.09841 15.663)
(7.60038e-15 1.05929 14.9611)
(5.49053e-15 1.01397 14.297)
(2.80689e-15 0.962581 13.6727)
(4.60108e-16 0.903012 13.0911)
(-1.3494e-15 0.832758 12.5573)
(-2.89414e-15 0.750517 12.0781)
(-4.58298e-15 0.656872 11.6603)
(-6.34029e-15 0.554231 11.3095)
(-7.44002e-15 0.446493 11.0289)
(-8.40592e-15 0.338745 10.8191)
(-9.15437e-15 0.237122 10.6767)
(-9.77514e-15 0.148076 10.5958)
(-9.71285e-15 0.0794718 10.5631)
(-1.004e-14 0.0389555 10.5645)
(-1.00765e-14 0.0309047 10.5805)
(-1.02386e-14 0.0553801 10.5905)
(-1.02744e-14 0.107787 10.5757)
(-1.0279e-14 0.176994 10.5237)
(-1.02929e-14 0.24852 10.4238)
(-1.03179e-14 0.312513 10.2913)
(-1.02422e-14 0.358875 10.1077)
(-1.01126e-14 0.393689 9.96602)
(-9.66432e-15 0.397482 9.66504)
(1.80765e-15 0.556157 9.03963)
(5.01541e-15 0.628093 7.77013)
(-9.98409e-15 0.967833 4.86192)
(-5.8252e-15 1.23212 1.56873)
(2.20768e-15 1.03085 0.217361)
(6.94265e-16 0.565057 0.254746)
(5.96791e-14 0.279184 0.187788)
(2.81623e-14 0.115221 0.135488)
(-2.48886e-14 -0.00297196 0.0662524)
(-4.23288e-14 -0.0476516 0.130763)
(4.32001e-14 -0.0740984 0.222999)
(4.79585e-14 -0.0877152 0.356664)
(7.52571e-15 -0.107074 0.508712)
(-3.77004e-15 -0.130591 0.696993)
(-4.78094e-15 -0.154679 0.922044)
(-6.98714e-15 -0.178756 1.17681)
(-1.8611e-15 -0.203216 1.44906)
(-1.99521e-15 -0.229092 1.7307)
(-5.36944e-15 -0.257372 2.02128)
(-4.97995e-15 -0.286484 2.32451)
(-3.94555e-15 -0.31276 2.64221)
(-1.05873e-14 -0.333128 2.97073)
(-5.66857e-15 -0.34728 3.30267)
(4.412e-15 -0.357279 3.63131)
(1.52329e-15 -0.365956 3.95363)
(3.59226e-15 -0.375968 4.27065)
(3.84036e-15 -0.389761 4.58668)
(2.04838e-15 -0.410105 4.90972)
(2.30313e-15 -0.440136 5.25501)
(-1.36437e-15 -0.483201 5.64901)
(-4.16943e-15 -0.540702 6.12469)
(-8.96747e-15 -0.6074 6.7002)
(-1.04942e-14 -0.671301 7.35747)
(-1.09623e-14 -0.723207 8.04875)
(-9.78391e-15 -0.769306 8.72718)
(-7.44779e-15 -0.832532 9.37338)
(-6.42121e-15 -0.942419 10.0052)
(-5.41801e-15 -1.11224 10.6767)
(-5.17451e-15 -1.29788 11.4421)
(-5.32663e-15 -1.42513 12.3082)
(-6.54751e-15 -1.44976 13.234)
(-7.31807e-15 -1.354 14.1549)
(-6.91602e-15 -1.12952 14.9916)
(-6.06764e-15 -0.766375 15.6348)
(-4.88757e-15 -0.30953 15.9564)
(-3.46808e-15 0.110089 15.8838)
(-1.92216e-15 0.348442 15.4571)
(-3.9251e-16 0.342219 14.8643)
(1.10453e-15 0.167643 14.2945)
(3.02695e-15 -0.0850928 13.8429)
(6.1368e-15 -0.363701 13.5536)
(1.02265e-14 -0.63489 13.4591)
(1.36515e-14 -0.881172 13.5616)
(1.57558e-14 -1.09503 13.8382)
(1.69086e-14 -1.26423 14.263)
(1.75236e-14 -1.36941 14.8103)
(1.81031e-14 -1.39123 15.4511)
(1.75713e-14 -1.31816 16.1539)
(1.81933e-14 -1.15122 16.8875)
(1.68898e-14 -0.90552 17.6208)
(1.56094e-14 -0.60951 18.3207)
(1.226e-14 -0.301258 18.9501)
(1.01961e-14 -0.0202397 19.4737)
(7.76314e-15 0.205017 19.8664)
(7.54108e-15 0.366854 20.1197)
(9.74784e-15 0.477882 20.2396)
(1.18387e-14 0.56459 20.2424)
(1.27797e-14 0.653835 20.1388)
(1.26953e-14 0.763745 19.9273)
(1.54201e-14 0.899196 19.5983)
(1.51536e-14 1.05048 19.1429)
(1.32347e-14 1.19443 18.5636)
(1.2609e-14 1.30491 17.8841)
(1.27492e-14 1.36818 17.1445)
(9.0556e-15 1.38638 16.3861)
(8.27835e-15 1.37056 15.6394)
(8.37023e-15 1.3332 14.922)
(6.95929e-15 1.28386 14.2415)
(5.76678e-15 1.22734 13.5997)
(4.28592e-15 1.16376 12.997)
(2.70367e-15 1.09031 12.4353)
(1.02496e-15 1.00366 11.9194)
(-5.58533e-16 0.902109 11.4562)
(-1.85355e-15 0.786375 11.0531)
(-3.62963e-15 0.659475 10.7163)
(-5.46071e-15 0.526246 10.4494)
(-6.54583e-15 0.392964 10.2534)
(-7.1981e-15 0.267198 10.1257)
(-7.55339e-15 0.157093 10.0604)
(-7.78062e-15 0.0727119 10.0442)
(-7.34938e-15 0.0233453 10.0624)
(-7.14555e-15 0.0144029 10.0944)
(-7.05471e-15 0.0459753 10.1184)
(-7.04568e-15 0.112446 10.1137)
(-7.1144e-15 0.199778 10.068)
(-7.32621e-15 0.28936 9.9695)
(-7.64525e-15 0.368178 9.83586)
(-8.03693e-15 0.424523 9.65249)
(-8.4092e-15 0.464961 9.51137)
(-8.82997e-15 0.470502 9.22051)
(2.10955e-15 0.645063 8.61562)
(1.2414e-16 0.823391 6.81075)
(-1.03903e-14 1.23979 3.27763)
(2.83023e-15 1.41174 0.42369)
(-6.91946e-16 1.05705 -0.223514)
(-1.36375e-14 0.546684 0.0234931)
(3.90483e-14 0.279635 0.0526675)
(1.66097e-15 0.119229 0.021551)
(-2.99287e-14 -0.00878933 -0.0136442)
(-1.68254e-15 -0.0591279 0.0682871)
(4.20806e-14 -0.0899347 0.16937)
(1.60653e-14 -0.107017 0.309566)
(2.6171e-16 -0.130165 0.468528)
(-4.28797e-15 -0.158621 0.663269)
(-6.07226e-15 -0.187646 0.891227)
(-8.07014e-15 -0.215494 1.14243)
(-2.70608e-15 -0.242484 1.40338)
(3.39348e-15 -0.270557 1.66678)
(-1.40268e-14 -0.301606 1.93414)
(-1.72854e-14 -0.334184 2.212)
(-2.01191e-14 -0.363973 2.50475)
(-1.56019e-14 -0.38707 2.80992)
(-3.57074e-15 -0.40284 3.1197)
(3.08172e-15 -0.413647 3.42649)
(3.81698e-15 -0.422921 3.72672)
(5.07241e-15 -0.43395 4.02159)
(3.08914e-15 -0.449895 4.31639)
(5.70904e-16 -0.474826 4.62244)
(4.00667e-15 -0.513929 4.96223)
(-2.22004e-15 -0.572121 5.36909)
(-6.39149e-15 -0.649176 5.87068)
(-9.7929e-15 -0.734118 6.46405)
(-1.14645e-14 -0.808742 7.10928)
(-1.13739e-14 -0.861876 7.74945)
(-1.06466e-14 -0.903252 8.33874)
(-7.87659e-15 -0.962681 8.85896)
(-6.52749e-15 -1.07738 9.31965)
(-5.80546e-15 -1.26658 9.7616)
(-6.32541e-15 -1.48182 10.2615)
(-7.03522e-15 -1.63759 10.8971)
(-8.63526e-15 -1.68113 11.6894)
(-9.0684e-15 -1.58663 12.5911)
(-9.08564e-15 -1.3383 13.5062)
(-8.25422e-15 -0.916303 14.2839)
(-7.17222e-15 -0.367016 14.7397)
(-5.79489e-15 0.151837 14.7506)
(-4.16033e-15 0.459722 14.3231)
(-2.32951e-15 0.470439 13.6836)
(-2.44955e-16 0.281428 13.044)
(3.27591e-15 -0.00356459 12.4928)
(7.09243e-15 -0.328965 12.0893)
(9.49232e-15 -0.65492 11.8786)
(9.29698e-15 -0.953869 11.8465)
(8.70944e-15 -1.21434 11.9698)
(9.39593e-15 -1.42526 12.2543)
(1.07333e-14 -1.56706 12.7024)
(1.31949e-14 -1.61785 13.2898)
(1.38801e-14 -1.5643 13.9756)
(1.54509e-14 -1.40722 14.7192)
(1.57161e-14 -1.16171 15.4851)
(1.50849e-14 -0.855632 16.2413)
(1.36946e-14 -0.526333 16.9543)
(1.24782e-14 -0.213868 17.5897)
(8.32846e-15 0.0500926 18.1173)
(7.7215e-15 0.253228 18.5196)
(4.50413e-15 0.406081 18.7939)
(5.40825e-15 0.533212 18.9422)
(6.95159e-15 0.662422 18.9661)
(4.67891e-15 0.814552 18.8615)
(4.88726e-15 0.995655 18.619)
(1.1508e-15 1.19409 18.2301)
(2.20565e-15 1.38058 17.6988)
(9.793e-16 1.52173 17.0536)
(-1.90518e-16 1.60113 16.342)
(-1.20422e-15 1.62311 15.611)
(-1.98955e-15 1.60282 14.8936)
(-3.54575e-15 1.5567 14.207)
(-3.88128e-15 1.49703 13.5574)
(-2.9605e-15 1.42982 12.9446)
(-2.18411e-15 1.35506 12.3671)
(-1.9411e-15 1.2689 11.826)
(-1.74958e-15 1.16696 11.3263)
(-1.72361e-15 1.04693 10.8758)
(-1.55121e-15 0.909657 10.4832)
(-2.01906e-15 0.758753 10.1554)
(-2.51346e-15 0.599993 9.89745)
(-2.9048e-15 0.440857 9.71115)
(-3.297e-15 0.290388 9.59475)
(-2.75283e-15 0.158618 9.54298)
(-2.91988e-15 0.0581003 9.54239)
(-2.36103e-15 -8.97008e-05 9.57762)
(-2.15229e-15 -0.00936897 9.62671)
(-2.19618e-15 0.0305879 9.66567)
(-2.16177e-15 0.113135 9.67124)
(-2.29452e-15 0.220843 9.62998)
(-2.80752e-15 0.33009 9.52869)
(-3.60532e-15 0.423963 9.38799)
(-4.60595e-15 0.489379 9.19862)
(-5.55981e-15 0.533676 9.05302)
(-7.01072e-15 0.539498 8.76697)
(2.43262e-15 0.76451 8.12406)
(-3.67189e-15 1.06372 5.57262)
(-7.13645e-15 1.50024 1.7217)
(9.38446e-15 1.53154 -0.366853)
(-3.91355e-15 1.04771 -0.522496)
(-1.39511e-14 0.518324 -0.162315)
(2.22827e-15 0.275537 -0.0464877)
(-4.46116e-14 0.121614 -0.0638302)
(1.92296e-14 -0.0161049 -0.0749758)
(2.84674e-14 -0.0718073 0.0167448)
(8.20447e-15 -0.106549 0.124862)
(1.44424e-14 -0.127102 0.270639)
(-1.305e-15 -0.153999 0.434826)
(-6.23854e-15 -0.187111 0.633466)
(-8.89018e-15 -0.220405 0.860684)
(1.10037e-15 -0.251113 1.10442)
(-1.68827e-15 -0.279714 1.35076)
(-1.38747e-14 -0.309261 1.59354)
(-2.73808e-14 -0.342696 1.83664)
(-2.30471e-14 -0.378741 2.08973)
(-1.58256e-14 -0.412281 2.35974)
(-1.26484e-14 -0.43833 2.64466)
(7.37979e-16 -0.455779 2.93534)
(3.42507e-15 -0.467313 3.22259)
(2.72908e-15 -0.47708 3.5022)
(5.70691e-15 -0.489157 3.77577)
(6.12784e-15 -0.507761 4.05053)
(5.44866e-15 -0.538832 4.34274)
(4.76493e-16 -0.58964 4.68159)
(-5.23483e-15 -0.665023 5.09897)
(-1.07722e-14 -0.760636 5.60494)
(-1.26367e-14 -0.859233 6.17474)
(-1.20378e-14 -0.938319 6.75913)
(-1.07131e-14 -0.986495 7.30185)
(-9.22695e-15 -1.01693 7.75471)
(-5.94564e-15 -1.06417 8.08207)
(-5.54817e-15 -1.17111 8.24715)
(-6.6389e-15 -1.3692 8.25389)
(-8.07519e-15 -1.61846 8.27509)
(-9.16291e-15 -1.82704 8.55762)
(-1.10069e-14 -1.92384 9.19458)
(-1.19527e-14 -1.86213 10.131)
(-1.18446e-14 -1.6107 11.2423)
(-1.08544e-14 -1.13481 12.3238)
(-9.54064e-15 -0.47956 13.1016)
(-8.09397e-15 0.163305 13.358)
(-6.19563e-15 0.563779 13.0405)
(-4.39036e-15 0.601624 12.4183)
(-2.15965e-15 0.407507 11.7624)
(1.10564e-15 0.0984967 11.153)
(2.34243e-15 -0.269124 10.656)
(1.2014e-15 -0.642991 10.2864)
(-1.84693e-16 -0.985639 10.0221)
(6.99717e-16 -1.29361 9.92274)
(3.42363e-15 -1.56004 10.0648)
(5.90623e-15 -1.75607 10.4484)
(9.72761e-15 -1.8498 11.0176)
(1.11448e-14 -1.82497 11.7098)
(1.35819e-14 -1.68405 12.4767)
(1.40894e-14 -1.44412 13.2832)
(1.5064e-14 -1.13364 14.0999)
(1.54452e-14 -0.789608 14.8957)
(1.46706e-14 -0.452038 15.6366)
(1.30529e-14 -0.154176 16.2903)
(1.16613e-14 0.0879838 16.8327)
(9.58302e-15 0.281234 17.2513)
(1.00715e-14 0.451042 17.5432)
(1.40373e-14 0.625793 17.7025)
(1.12169e-14 0.826818 17.7205)
(9.2714e-15 1.06034 17.5873)
(5.40061e-15 1.31259 17.2922)
(3.44865e-15 1.54735 16.836)
(1.19082e-15 1.72285 16.2487)
(-4.21029e-16 1.82002 15.584)
(-3.8927e-15 1.84625 14.8947)
(-5.26939e-15 1.82171 14.2163)
(-6.70053e-15 1.76732 13.5664)
(-8.44645e-15 1.69839 12.9497)
(-8.4543e-15 1.62213 12.3645)
(-8.03035e-15 1.53812 11.8079)
(-6.95951e-15 1.44117 11.2808)
(-5.76509e-15 1.32545 10.7893)
(-4.5957e-15 1.18797 10.343)
(-3.9138e-15 1.02965 9.95237)
(-3.01842e-15 0.85476 9.6261)
(-2.63996e-15 0.670042 9.37041)
(-2.19464e-15 0.484208 9.18859)
(-1.83658e-15 0.307851 9.08011)
(-1.62683e-15 0.153174 9.04019)
(-7.45095e-16 0.0355995 9.05526)
(-4.60106e-16 -0.0318263 9.10909)
(-5.16215e-16 -0.041112 9.1778)
(-4.99857e-16 0.00869728 9.23467)
(-3.69797e-16 0.110017 9.2524)
(-4.56915e-16 0.241384 9.21553)
(-6.26075e-16 0.372851 9.10836)
(-1.06852e-15 0.482494 8.95534)
(-1.78531e-15 0.555979 8.75392)
(-2.68961e-15 0.602139 8.59892)
(-4.7775e-15 0.605897 8.31208)
(3.99113e-15 0.925521 7.47345)
(-5.32431e-15 1.33532 4.11731)
(-1.22461e-15 1.72935 0.395777)
(1.40247e-14 1.59289 -0.87263)
(-2.17629e-15 1.0175 -0.746222)
(5.55703e-15 0.479899 -0.327131)
(1.52059e-14 0.266639 -0.118602)
(-1.81412e-14 0.122825 -0.126325)
(1.04643e-14 -0.0244057 -0.121844)
(3.06296e-14 -0.0849268 -0.0230404)
(8.69822e-15 -0.123575 0.0891593)
(1.36175e-14 -0.147699 0.238361)
(-3.89795e-15 -0.17829 0.406142)
(-7.55911e-15 -0.215698 0.606455)
(-1.02585e-14 -0.252539 0.830277)
(-1.13102e-14 -0.285227 1.06413)
(-7.6611e-15 -0.31461 1.29409)
(-2.24892e-14 -0.345038 1.51537)
(-3.26246e-14 -0.38065 1.73441)
(-1.87356e-14 -0.420344 1.96415)
(-1.65887e-14 -0.457985 2.21377)
(-1.36663e-14 -0.487199 2.4808)
(5.28906e-16 -0.506276 2.75378)
(-2.59328e-15 -0.518317 3.02159)
(3.74842e-15 -0.528377 3.27954)
(8.47081e-15 -0.541579 3.53033)
(7.27135e-15 -0.563619 3.78448)
(5.23886e-16 -0.602601 4.06393)
(-6.38066e-15 -0.666882 4.39983)
(-9.72915e-15 -0.758878 4.81113)
(-1.3362e-14 -0.869012 5.28506)
(-1.14345e-14 -0.975411 5.78509)
(-9.33998e-15 -1.0531 6.26218)
(-8.05242e-15 -1.08997 6.65446)
(-6.80581e-15 -1.09963 6.89111)
(-5.55529e-15 -1.11534 6.88559)
(-7.3346e-15 -1.18504 6.51653)
(-8.54741e-15 -1.37442 5.81748)
(-9.34162e-15 -1.67978 5.24903)
(-1.03494e-14 -1.99295 5.21447)
(-1.26584e-14 -2.19594 5.72388)
(-1.37975e-14 -2.21316 6.6742)
(-1.45119e-14 -1.99608 7.97234)
(-1.38137e-14 -1.48423 9.43857)
(-1.21843e-14 -0.709496 10.7273)
(-1.02737e-14 0.0936324 11.4712)
(-7.98571e-15 0.627858 11.478)
(-5.95653e-15 0.715614 10.9882)
(-4.09304e-15 0.526928 10.3879)
(-2.63312e-15 0.210234 9.79218)
(-3.40052e-15 -0.178242 9.20529)
(-5.00985e-15 -0.574853 8.5886)
(-3.35455e-15 -0.956339 8.06857)
(9.22729e-16 -1.33544 7.86526)
(4.84446e-15 -1.68365 8.01326)
(6.7115e-15 -1.9465 8.411)
(9.78767e-15 -2.08668 8.9654)
(1.07502e-14 -2.09294 9.62354)
(1.2969e-14 -1.97272 10.3568)
(1.61617e-14 -1.74505 11.1465)
(1.97581e-14 -1.43791 11.9739)
(2.09884e-14 -1.08701 12.8138)
(2.08583e-14 -0.731806 13.633)
(2.00605e-14 -0.406455 14.3951)
(2.13385e-14 -0.128983 15.0658)
(2.00854e-14 0.104895 15.6205)
(2.13038e-14 0.317763 16.0476)
(2.37005e-14 0.53929 16.3505)
(2.14967e-14 0.792178 16.5192)
(1.9012e-14 1.08272 16.535)
(1.26799e-14 1.3954 16.3737)
(9.61219e-15 1.68597 16.0235)
(7.3093e-15 1.90195 15.5129)
(6.53137e-15 2.02095 14.9048)
(7.60569e-15 2.05397 14.2614)
(4.39882e-15 2.02697 13.6228)
(-5.13068e-16 1.96608 13.0079)
(-3.7167e-15 1.88997 12.4205)
(-6.15615e-15 1.80713 11.8572)
(-7.10227e-15 1.71649 11.314)
(-7.19103e-15 1.61102 10.792)
(-6.77281e-15 1.48315 10.2989)
(-6.11238e-15 1.32902 9.84709)
(-5.0666e-15 1.14974 9.44944)
(-4.29352e-15 0.950346 9.11686)
(-3.85202e-15 0.738588 8.85727)
(-3.38698e-15 0.524474 8.67554)
(-2.72247e-15 0.320265 8.57264)
(-2.06183e-15 0.140746 8.54406)
(-1.48298e-15 0.00459532 8.5761)
(-8.80978e-16 -0.0729846 8.65147)
(-4.55729e-16 -0.0822417 8.74389)
(-2.45336e-16 -0.0209439 8.82328)
(1.44588e-16 0.10262 8.85672)
(3.89567e-16 0.262125 8.82547)
(2.9909e-16 0.419458 8.71014)
(-5.71852e-17 0.546159 8.54001)
(-6.74314e-16 0.626657 8.32092)
(-1.44553e-15 0.672487 8.15211)
(-3.64465e-15 0.671045 7.85946)
(2.38572e-15 1.12587 6.63336)
(-5.11659e-15 1.61768 2.58295)
(4.16361e-15 1.90855 -0.563389)
(1.57375e-14 1.61226 -1.20111)
(1.88074e-15 0.976311 -0.930246)
(7.38088e-15 0.4353 -0.470138)
(-1.54718e-14 0.252477 -0.173551)
(-5.16205e-15 0.123254 -0.170969)
(1.79228e-15 -0.0332285 -0.157516)
(-1.79803e-15 -0.0983125 -0.0537145)
(5.35566e-16 -0.140739 0.060412)
(7.37633e-15 -0.168582 0.211375)
(-6.41946e-15 -0.202805 0.381326)
(-1.24967e-14 -0.244101 0.581453)
(-1.24086e-14 -0.283765 0.799994)