/*--------------------------------*- C++ -*----------------------------------*\
| =========                 |                                                 |
| \\      /  F ield         | OpenFOAM: The Open Source CFD Toolbox           |
|  \\    /   O peration     | Version:  4.1                                   |
|   \\  /    A nd           | Web:      www.OpenFOAM.org                      |
|    \\/     M anipulation  |                                                 |
\*---------------------------------------------------------------------------*/
FoamFile
{
    version     2.0;
    format      ascii;
    class       volScalarField;
    location    "100";
    object      p;
}
// * * * * * * * * * * * * * * * * * * * * * * * * * * * * * * * * * * * * * //

dimensions      [0 2 -2 0 0 0 0];

internalField   nonuniform List<scalar> 
26785
(
0.300034
0.317942
0.320516
0.311424
0.304138
0.297118
0.288927
0.280342
0.271721
0.263076
0.254494
0.246074
0.237879
0.229954
0.222332
0.215032
0.208058
0.201404
0.195055
0.18899
0.183184
0.177606
0.172224
0.167003
0.161906
0.156895
0.151933
0.146988
0.142034
0.137052
0.132034
0.126982
0.121908
0.116836
0.111798
0.106834
0.101991
0.097319
0.0928702
0.0886962
0.0848457
0.0813626
0.0782839
0.0756389
0.0734481
0.0717228
0.0704652
0.0696689
0.0693178
0.0693887
0.0698507
0.0706677
0.0717979
0.0731965
0.0748151
0.0766055
0.0785188
0.0805078
0.0825238
0.0845204
0.0864553
0.0882886
0.0899816
0.0914988
0.0928081
0.0938813
0.0946946
0.0952288
0.0954691
0.0954055
0.0950323
0.0943484
0.0933561
0.0920621
0.0904757
0.0886096
0.0864785
0.0840994
0.0814906
0.0786714
0.0756618
0.0724819
0.0691514
0.0656893
0.0621132
0.05844
0.0546849
0.0508611
0.0469807
0.0430543
0.0390858
0.035084
0.0310276
0.0269024
0.0227366
0.0185534
0.0143644
0.0101922
0.00603671
0.0019957
0.299958
0.317896
0.320484
0.311391
0.304108
0.29709
0.288902
0.28032
0.271701
0.263059
0.254479
0.246061
0.237867
0.229944
0.222324
0.215024
0.208052
0.201398
0.19505
0.188987
0.183181
0.177605
0.172225
0.167006
0.16191
0.1569
0.15194
0.146997
0.142044
0.137063
0.132045
0.126993
0.121919
0.116846
0.111807
0.106841
0.101996
0.0973208
0.092869
0.0886918
0.084838
0.0813515
0.0782696
0.0756217
0.0734282
0.0717007
0.0704414
0.069644
0.0692922
0.0693631
0.0698256
0.0706438
0.0717756
0.0731762
0.0747973
0.0765905
0.0785068
0.0804991
0.0825186
0.0845187
0.0864573
0.0882944
0.0899912
0.0915123
0.0928253
0.0939021
0.0947188
0.095256
0.0954991
0.095438
0.0950669
0.0943847
0.0933938
0.0921007
0.090515
0.0886492
0.0865181
0.0841388
0.0815294
0.0787094
0.0756988
0.0725178
0.0691861
0.0657226
0.0621452
0.0584706
0.0547141
0.0508889
0.0470073
0.0430798
0.0391105
0.0351103
0.0310535
0.0269239
0.0227541
0.0185674
0.0143751
0.0101995
0.00604113
0.00199596
0.299723
0.317853
0.320409
0.311299
0.304025
0.297011
0.288826
0.280249
0.271637
0.263
0.254426
0.246013
0.237825
0.229906
0.222289
0.214994
0.208024
0.201374
0.195029
0.188968
0.183166
0.177593
0.172216
0.167001
0.16191
0.156904
0.151947
0.147007
0.142057
0.137078
0.132062
0.12701
0.121936
0.116862
0.11182
0.10685
0.102001
0.0973207
0.092863
0.0886795
0.0848192
0.0813262
0.0782382
0.0755845
0.073386
0.0716542
0.0703917
0.069592
0.0692392
0.0693102
0.0697739
0.0705944
0.0717295
0.0731344
0.0747604
0.0765593
0.0784818
0.0804809
0.0825075
0.0845147
0.0864607
0.0883055
0.0900101
0.0915389
0.0928594
0.0939434
0.0947668
0.0953102
0.0955589
0.0955026
0.0951358
0.0944569
0.0934688
0.0921777
0.0905932
0.088728
0.0865968
0.0842168
0.0816063
0.0787847
0.0757722
0.072589
0.0692548
0.0657888
0.0622087
0.0585314
0.0547722
0.0509443
0.0470602
0.0431306
0.0391597
0.0351609
0.0311022
0.0269646
0.0227873
0.0185941
0.0143953
0.0102133
0.00604979
0.00199769
0.299347
0.317828
0.320296
0.311156
0.303895
0.296882
0.2887
0.280132
0.271527
0.262899
0.254334
0.24593
0.237749
0.229837
0.222227
0.214938
0.207974
0.201329
0.194989
0.188933
0.183136
0.177569
0.172199
0.16699
0.161905
0.156906
0.151955
0.14702
0.142075
0.1371
0.132086
0.127035
0.12196
0.116884
0.111838
0.106864
0.102007
0.0973189
0.0928523
0.0886591
0.0847888
0.081286
0.0781884
0.075526
0.0733197
0.0715815
0.070314
0.069511
0.0691565
0.0692277
0.0696934
0.0705175
0.0716578
0.0730693
0.0747032
0.0765109
0.078443
0.0804526
0.0824902
0.0845086
0.0864661
0.0883228
0.0900394
0.09158
0.092912
0.094007
0.0948406
0.0953935
0.0956506
0.0956018
0.0952413
0.0945677
0.0935836
0.0922954
0.0907128
0.0888483
0.0867171
0.0843361
0.0817237
0.0788997
0.0758842
0.0726976
0.0693597
0.0658897
0.0623056
0.0586242
0.0548608
0.0510289
0.0471411
0.0432083
0.039235
0.0352367
0.031174
0.0270253
0.0228374
0.0186343
0.0144259
0.0102343
0.00606297
0.00200061
0.2988
0.317775
0.320144
0.310969
0.303722
0.296708
0.288528
0.279969
0.271374
0.262756
0.254202
0.245809
0.237639
0.229737
0.222137
0.214855
0.207899
0.201262
0.194929
0.188881
0.183092
0.177533
0.172172
0.166972
0.161896
0.156905
0.151963
0.147036
0.142097
0.137127
0.132117
0.127068
0.121992
0.116913
0.111862
0.10688
0.102015
0.0973157
0.0928368
0.0886306
0.0847468
0.0812306
0.0781202
0.0754459
0.0732291
0.0714821
0.0702079
0.0694004
0.0690438
0.0691152
0.0695836
0.0704126
0.07156
0.0729806
0.0746252
0.0764449
0.0783902
0.080414
0.0824666
0.0845003
0.0864735
0.0883462
0.0900789
0.0916356
0.0929831
0.0940929
0.0949404
0.0955061
0.0957746
0.0957358
0.0953838
0.0947171
0.0937384
0.0924541
0.0908739
0.0890106
0.0868791
0.0844967
0.0818819
0.0790546
0.0760351
0.0728439
0.069501
0.0660257
0.0624362
0.0587493
0.0549805
0.0511432
0.0472503
0.0433131
0.0393365
0.0353374
0.031268
0.0271051
0.0229037
0.0186878
0.0144666
0.0102624
0.00608032
0.00200479
0.298402
0.317698
0.319944
0.310737
0.303508
0.29649
0.288312
0.279763
0.271179
0.262573
0.254032
0.245652
0.237495
0.229605
0.222016
0.214746
0.2078
0.201172
0.19485
0.188811
0.183033
0.177485
0.172134
0.166946
0.161882
0.156903
0.151972
0.147055
0.142124
0.137161
0.132155
0.127108
0.122032
0.116949
0.111892
0.106901
0.102024
0.0973111
0.0928169
0.0885941
0.0846933
0.0811601
0.0780334
0.0753441
0.0731141
0.071356
0.0700733
0.06926
0.0689007
0.0689725
0.0694442
0.0702795
0.0714359
0.0728678
0.074526
0.0763611
0.078323
0.0803648
0.0824364
0.0844896
0.0864826
0.0883756
0.0901288
0.0917057
0.0930729
0.0942013
0.0950663
0.0956479
0.0959308
0.0959046
0.0955633
0.0949054
0.0939335
0.0926541
0.091077
0.089215
0.0870832
0.084699
0.0820812
0.0792497
0.0762252
0.0730283
0.0696791
0.0661973
0.062601
0.0589072
0.0551315
0.0512874
0.0473884
0.0434456
0.0394647
0.0354629
0.0313838
0.0272037
0.022986
0.0187543
0.0145175
0.0102977
0.00610199
0.00201048
0.298216
0.317619
0.319706
0.310464
0.303255
0.296232
0.288055
0.279516
0.270944
0.262351
0.253824
0.245459
0.237317
0.229442
0.221866
0.214609
0.207676
0.20106
0.194749
0.188723
0.182958
0.177423
0.172087
0.166913
0.161864
0.156899
0.151981
0.147076
0.142156
0.137201
0.132201
0.127156
0.122079
0.116992
0.111927
0.106926
0.102034
0.0973054
0.0927926
0.0885499
0.0846285
0.0810747
0.0779283
0.0752208
0.0729747
0.0712031
0.06991
0.0690897
0.0687271
0.0687993
0.0692751
0.0701178
0.071285
0.0727308
0.0744054
0.076259
0.0782412
0.0803048
0.0823994
0.0844763
0.0864934
0.0884109
0.0901888
0.0917901
0.093181
0.094332
0.095218
0.095819
0.0961192
0.0961082
0.0957797
0.0951324
0.0941688
0.0928953
0.0913219
0.0894616
0.0873295
0.0849432
0.0823217
0.0794852
0.0764547
0.0732509
0.0698943
0.0664045
0.0628001
0.059098
0.055314
0.0514619
0.0475555
0.0436059
0.03962
0.0356129
0.0315206
0.0273207
0.023084
0.0188337
0.0145784
0.0103401
0.00612787
0.00201773
0.297905
0.317503
0.31943
0.310155
0.302966
0.295935
0.287758
0.27923
0.270671
0.262092
0.253581
0.245232
0.237106
0.229247
0.221688
0.214446
0.207526
0.200925
0.194629
0.188617
0.182866
0.177348
0.172029
0.166872
0.16184
0.156893
0.151991
0.147101
0.142193
0.137247
0.132254
0.127212
0.122134
0.117042
0.111969
0.106955
0.102047
0.0972988
0.0927642
0.0884981
0.0845524
0.0809745
0.0778049
0.0750759
0.0728108
0.0710234
0.0697179
0.0688894
0.0685228
0.0685954
0.0690758
0.0699274
0.0711072
0.0725692
0.0742631
0.0761385
0.0781445
0.0802336
0.0823553
0.0844602
0.0865055
0.0884518
0.0902588
0.0918887
0.0933073
0.0944847
0.0953955
0.0960192
0.0963397
0.0963465
0.0960332
0.0953983
0.0944443
0.0931779
0.0916089
0.0897505
0.087618
0.0852293
0.0826035
0.0797613
0.0767238
0.0735121
0.0701467
0.0666477
0.0630338
0.0593221
0.0555284
0.0516669
0.0477519
0.0437942
0.0398026
0.0357874
0.0316779
0.0274556
0.0231974
0.0189258
0.0146491
0.0103896
0.00615795
0.0020266
0.297503
0.31741
0.319131
0.309809
0.302641
0.295602
0.287425
0.278909
0.270363
0.261798
0.253303
0.244972
0.236864
0.229023
0.22148
0.214255
0.207353
0.200767
0.194487
0.188493
0.18276
0.17726
0.17196
0.166825
0.161813
0.156885
0.152002
0.147129
0.142235
0.137301
0.132315
0.127277
0.122198
0.117101
0.112017
0.106988
0.102062
0.0972917
0.0927321
0.088439
0.0844655
0.0808598
0.0776634
0.0749097
0.0726226
0.0708168
0.0694971
0.068659
0.0682876
0.0683606
0.0688464
0.069708
0.0709023
0.0723827
0.0740987
0.075999
0.0780324
0.0801508
0.0823038
0.0844409
0.0865188
0.0884982
0.0903384
0.0920011
0.0934516
0.0946594
0.0955986
0.0962483
0.0965923
0.0966195
0.0963237
0.0957031
0.0947602
0.0935019
0.091938
0.0900818
0.0879491
0.0855576
0.082927
0.0800783
0.0770328
0.0738119
0.0704366
0.0669272
0.0633024
0.0595796
0.0557749
0.0519026
0.0479779
0.0440108
0.0400126
0.0359863
0.0318555
0.0276081
0.0233259
0.0190303
0.0147295
0.0104462
0.00619215
0.00203707
0.296971
0.317296
0.318804
0.309433
0.302285
0.295234
0.287056
0.278552
0.27002
0.26147
0.252993
0.24468
0.236591
0.228769
0.221246
0.214039
0.207155
0.200587
0.194326
0.18835
0.182638
0.17716
0.171883
0.16677
0.161781
0.156876
0.152014
0.14716
0.142282
0.137361
0.132383
0.12735
0.12227
0.117167
0.112072
0.107027
0.10208
0.0972845
0.0926966
0.088373
0.0843679
0.0807307
0.077504
0.0747221
0.0724101
0.0705833
0.0692474
0.0683982
0.0680215
0.0680947
0.0685864
0.0694592
0.0706697
0.0721709
0.0739118
0.0758403
0.0779047
0.0800561
0.0822444
0.0844181
0.0865328
0.0885495
0.0904273
0.0921272
0.0936137
0.0948559
0.0958272
0.0965063
0.0968768
0.0969272
0.0966511
0.0960467
0.0951166
0.0938674
0.0923094
0.0904559
0.0883228
0.0859283
0.0832924
0.0804363
0.0773818
0.0741507
0.0707642
0.067243
0.063606
0.0598708
0.0560536
0.0521693
0.0482336
0.0442558
0.0402501
0.0362095
0.032053
0.0277781
0.0234694
0.019147
0.0148195
0.0105097
0.00623042
0.00204913
0.29658
0.317141
0.318436
0.309023
0.301897
0.294833
0.286654
0.278163
0.269644
0.261111
0.252652
0.244359
0.23629
0.228488
0.220985
0.213798
0.206933
0.200386
0.194145
0.188191
0.182501
0.177047
0.171795
0.166709
0.161746
0.156866
0.152028
0.147195
0.142336
0.137428
0.132461
0.127432
0.122352
0.117242
0.112135
0.107072
0.102101
0.0972775
0.0926581
0.0883004
0.08426
0.0805875
0.0773268
0.0745134
0.0721734
0.070323
0.0689687
0.0681071
0.0677241
0.0677974
0.0682955
0.0691808
0.0704093
0.0719336
0.073702
0.0756619
0.0777608
0.0799491
0.0821768
0.0843914
0.0865472
0.0886056
0.0905254
0.0922667
0.0937934
0.0950739
0.0960811
0.0967932
0.0971932
0.0972696
0.0970156
0.0964295
0.0955136
0.0942747
0.0927233
0.0908728
0.0887394
0.0863416
0.0836998
0.0808356
0.0777712
0.0745287
0.0711299
0.0675956
0.063945
0.0601959
0.056365
0.0524673
0.0485193
0.0445294
0.0405154
0.036457
0.0322704
0.0279653
0.0236277
0.0192759
0.014919
0.01058
0.00627271
0.00206274
0.296455
0.316991
0.31804
0.308585
0.30148
0.294401
0.28622
0.277742
0.269238
0.260721
0.252281
0.244008
0.235961
0.22818
0.220698
0.213533
0.206689
0.200164
0.193945
0.188015
0.18235
0.176923
0.171699
0.166641
0.161708
0.156856
0.152043
0.147234
0.142395
0.137503
0.132547
0.127523
0.122442
0.117326
0.112205
0.107122
0.102126
0.0972712
0.0926169
0.0882216
0.0841421
0.0804306
0.0771322
0.0742837
0.0719125
0.0700359
0.0686611
0.0677854
0.0673952
0.0674685
0.0679736
0.0688724
0.0701206
0.0716702
0.0734689
0.0754633
0.0776002
0.0798292
0.0821004
0.0843603
0.0865616
0.0886662
0.0906322
0.0924194
0.0939905
0.0953134
0.0963602
0.0971087
0.0975416
0.0976468
0.0974174
0.0968514
0.0959513
0.094724
0.09318
0.0913329
0.0891993
0.0867979
0.0841497
0.0812767
0.0782013
0.0749463
0.0715339
0.0679851
0.0643196
0.0605552
0.0567092
0.0527969
0.0488353
0.044832
0.0408086
0.0367288
0.0325075
0.0281696
0.0238006
0.0194168
0.0150278
0.0106571
0.00631898
0.00207786
0.296245
0.316805
0.317615
0.308122
0.301036
0.29394
0.285757
0.277292
0.268803
0.260302
0.251882
0.243631
0.235605
0.227847
0.220387
0.213244
0.206424
0.199921
0.193727
0.187823
0.182186
0.176788
0.171595
0.166569
0.161666
0.156844
0.152061
0.147277
0.14246
0.137586
0.132642
0.127624
0.122543
0.117418
0.112283
0.107178
0.102154
0.0972661
0.0925737
0.0881371
0.0840147
0.0802602
0.0769203
0.0740332
0.0716276
0.0697219
0.0683243
0.0674329
0.0670346
0.0671076
0.06762
0.0685336
0.0698032
0.0713802
0.0732119
0.075244
0.0774225
0.0796959
0.0820148
0.0843243
0.0865755
0.0887307
0.0907475
0.0925848
0.0942047
0.0955741
0.0966645
0.097453
0.0979219
0.0980587
0.0978564
0.0973127
0.0964301
0.0952156
0.0936797
0.0918366
0.0897027
0.0872976
0.0846424
0.0817597
0.0786725
0.0754039
0.0719766
0.0684121
0.0647302
0.0609492
0.0570868
0.0531585
0.049182
0.0451639
0.0411298
0.0370248
0.0327641
0.0283911
0.0239883
0.0195698
0.0151459
0.0107408
0.00636919
0.00209446
0.295963
0.316632
0.31717
0.307633
0.300566
0.293452
0.285266
0.276814
0.26834
0.259857
0.251457
0.243227
0.235224
0.227489
0.220053
0.212934
0.206137
0.19966
0.193491
0.187615
0.182009
0.176642
0.171483
0.166491
0.161622
0.156833
0.152081
0.147325
0.142532
0.137677
0.132746
0.127735
0.122653
0.117521
0.11237
0.107242
0.102187
0.0972628
0.0925289
0.0880474
0.0838782
0.0800768
0.0766915
0.0737622
0.0713188
0.0693811
0.0679584
0.0670495
0.0666421
0.0667144
0.0672346
0.0681638
0.0694565
0.0710632
0.0729305
0.0750033
0.077227
0.0795486
0.0819193
0.0842829
0.0865887
0.0887988
0.0908708
0.0927628
0.0944358
0.0958558
0.0969938
0.097826
0.0983342
0.0985057
0.0983329
0.0978137
0.0969503
0.0957498
0.094223
0.0923842
0.0902502
0.0878411
0.0851784
0.0822853
0.0791853
0.0759019
0.0724585
0.0688769
0.0651772
0.0613782
0.0574979
0.0535525
0.0495598
0.0455254
0.0414791
0.0373449
0.0330402
0.0286297
0.0241907
0.0197346
0.0152734
0.0108313
0.00642334
0.0021125
0.295575
0.316446
0.316706
0.307121
0.300071
0.292937
0.284748
0.27631
0.26785
0.259385
0.251006
0.242799
0.234819
0.227108
0.219697
0.212602
0.205831
0.19938
0.193239
0.187393
0.181819
0.176487
0.171364
0.166408
0.161576
0.156823
0.152103
0.147377
0.14261
0.137776
0.13286
0.127856
0.122774
0.117634
0.112466
0.107313
0.102226
0.0972617
0.092483
0.0879529
0.083733
0.0798807
0.0764461
0.0734707
0.0709861
0.0690134
0.0675631
0.066635
0.0662173
0.0662885
0.0668167
0.0677626
0.06908
0.0707186
0.0726241
0.0747408
0.0770129
0.0793868
0.0818133
0.0842354
0.0866004
0.0888701
0.0910019
0.092953
0.0946835
0.0961585
0.097348
0.0982277
0.0987786
0.0989877
0.0988472
0.0983545
0.0975121
0.0963269
0.0948101
0.0929761
0.0908422
0.0884288
0.0857582
0.0828539
0.07974
0.0764408
0.0729799
0.0693798
0.065661
0.0618427
0.0579432
0.0539794
0.0499691
0.045917
0.0418566
0.0376889
0.0333358
0.0288855
0.0244079
0.0199116
0.0154102
0.0109285
0.00648142
0.00213198
0.295302
0.316216
0.316207
0.306586
0.299553
0.292397
0.284206
0.27578
0.267336
0.258889
0.250531
0.242347
0.234391
0.226705
0.219319
0.21225
0.205505
0.199082
0.192972
0.187158
0.181618
0.176323
0.171238
0.166321
0.161528
0.156812
0.152129
0.147435
0.142696
0.137884
0.132983
0.127988
0.122907
0.117757
0.112572
0.107392
0.10227
0.0972636
0.0924368
0.0878542
0.0835797
0.0796723
0.0761843
0.0731589
0.0706296
0.0686188
0.0671383
0.066189
0.0657597
0.0658295
0.066366
0.0673295
0.0686731
0.0703457
0.072292
0.0744556
0.0767797
0.0792098
0.0816961
0.0841812
0.0866102
0.088944
0.0911402
0.0931551
0.0949476
0.0964819
0.0977271
0.098658
0.0992552
0.099505
0.0993994
0.0989356
0.0981159
0.0969475
0.0954415
0.0936129
0.0914792
0.0890614
0.0863822
0.083466
0.0803373
0.077021
0.0735414
0.0699215
0.0661821
0.0623431
0.0584231
0.0544397
0.0504104
0.0463396
0.042262
0.0380564
0.033651
0.0291588
0.0246399
0.0201006
0.0155563
0.0110324
0.00654344
0.00215287
0.295282
0.315987
0.315686
0.30603
0.299011
0.291833
0.283639
0.275227
0.266798
0.258369
0.250033
0.241872
0.233941
0.226281
0.218921
0.211879
0.205162
0.198768
0.192689
0.186909
0.181406
0.17615
0.171105
0.16623
0.161479
0.156803
0.152157
0.147498
0.142788
0.138001
0.133117
0.128132
0.12305
0.117892
0.112688
0.10748
0.10232
0.0972691
0.0923907
0.087752
0.0834187
0.0794521
0.0759065
0.0728273
0.0702495
0.0681973
0.0666839
0.0657113
0.0652692
0.0653368
0.0658818
0.0668638
0.0682352
0.0699438
0.0719336
0.074147
0.0765266
0.0790168
0.081567
0.0841196
0.0866175
0.0890202
0.0912854
0.0933688
0.0952279
0.0968259
0.0981309
0.0991171
0.099764
0.100058
0.0999898
0.0995572
0.0987622
0.0976119
0.0961179
0.0942952
0.0921618
0.0897394
0.0870512
0.0841222
0.0809776
0.0776431
0.0741436
0.0705024
0.0667411
0.06288
0.0589381
0.0549341
0.0508842
0.0467941
0.042695
0.038447
0.0339859
0.0294498
0.0248869
0.0203018
0.0157119
0.011143
0.00660943
0.00217517
0.295188
0.315729
0.315143
0.305456
0.298449
0.291246
0.28305
0.274651
0.266238
0.257827
0.249513
0.241377
0.233471
0.225836
0.218503
0.211489
0.204801
0.198438
0.192392
0.186648
0.181184
0.175969
0.170967
0.166136
0.161428
0.156795
0.152189
0.147566
0.142888
0.138127
0.133262
0.128286
0.123206
0.118038
0.112815
0.107577
0.102378
0.0972789
0.0923455
0.0876468
0.0832506
0.0792205
0.0756131
0.0724758
0.0698457
0.0677488
0.0661997
0.0652016
0.0647452
0.06481
0.0653635
0.0663649
0.0677655
0.0695123
0.071548
0.0738143
0.0762528
0.078807
0.0814253
0.0840498
0.0866217
0.0890979
0.091437
0.0935936
0.095524
0.0971903
0.0985595
0.0996048
0.100305
0.100646
0.100619
0.10022
0.0994514
0.0983208
0.0968397
0.0950235
0.0928907
0.0904634
0.0877658
0.0848232
0.0816618
0.0783078
0.0747869
0.0711232
0.0673384
0.063454
0.0594888
0.055463
0.0513911
0.0472821
0.0431551
0.0388596
0.0343412
0.0297586
0.025149
0.0205152
0.015877
0.0112605
0.00667944
0.0021989
0.295025
0.315476
0.314583
0.304863
0.297867
0.290639
0.28244
0.274054
0.265656
0.257265
0.248973
0.240861
0.232981
0.225373
0.218068
0.211082
0.204424
0.198093
0.192082
0.186376
0.180952
0.175781
0.170824
0.166039
0.161377
0.156788
0.152224
0.14764
0.142996
0.138262
0.133417
0.128453
0.123374
0.118197
0.112953
0.107684
0.102444
0.0972937
0.0923019
0.0875393
0.0830761
0.0789781
0.0753045
0.0721049
0.0694185
0.0672732
0.0656854
0.0646595
0.0641872
0.0642484
0.0648106
0.0658322
0.0672635
0.0690504
0.0711344
0.0734565
0.0759573
0.0785795
0.08127
0.0839712
0.0866219
0.0891767
0.0915945
0.0938291
0.0958357
0.0975749
0.0990127
0.100121
0.100879
0.101271
0.101287
0.100924
0.100184
0.0990747
0.0976076
0.0957985
0.0936665
0.0912343
0.0885266
0.0855697
0.0823904
0.0790157
0.0754722
0.0717844
0.0679748
0.0640656
0.0600759
0.0560272
0.0519319
0.0478048
0.0436429
0.0392934
0.0347173
0.0300857
0.0254263
0.0207411
0.0160517
0.0113848
0.00675351
0.00222404
0.294766
0.315215
0.314009
0.304254
0.297267
0.290012
0.281809
0.273437
0.265055
0.256682
0.248413
0.240326
0.232472
0.224892
0.217614
0.210658
0.204031
0.197733
0.191759
0.186092
0.180711
0.175585
0.170676
0.165939
0.161324
0.156783
0.152264
0.14772
0.143112
0.138407
0.133584
0.128632
0.123555
0.118369
0.113104
0.107802
0.102518
0.0973144
0.0922607
0.0874303
0.0828957
0.0787254
0.074981
0.0717147
0.0689679
0.0667706
0.0651408
0.0640848
0.0635949
0.0636516
0.0642224
0.0652649
0.0667282
0.0685572
0.0706921
0.0730729
0.0756393
0.0783334
0.0811003
0.0838828
0.0866175
0.0892558
0.0917573
0.094075
0.0961627
0.0979796
0.0994905
0.100667
0.101486
0.101931
0.101994
0.10167
0.100961
0.0998743
0.0984223
0.096621
0.09449
0.0920527
0.0893345
0.0863625
0.0831642
0.0797676
0.0762
0.0724867
0.0686509
0.0647155
0.0607
0.0566272
0.0525069
0.0483623
0.0441595
0.0397486
0.0351147
0.0304313
0.0257189
0.0209796
0.0162363
0.0115162
0.00683173
0.00225063
0.29459
0.31491
0.313407
0.303627
0.296648
0.289366
0.28116
0.272801
0.264434
0.256081
0.247835
0.239773
0.231945
0.224393
0.217144
0.210218
0.203623
0.197361
0.191424
0.185799
0.180463
0.175384
0.170523
0.165836
0.161272
0.156779
0.152306
0.147806
0.143236
0.138563
0.133763
0.128824
0.12375
0.118554
0.113268
0.107932
0.102602
0.0973417
0.0922228
0.0873205
0.0827102
0.0784629
0.0746431
0.0713055
0.0684941
0.0662408
0.0645658
0.0634769
0.0629676
0.0630189
0.0635982
0.0646622
0.066159
0.068032
0.0702201
0.0726625
0.0752979
0.0780676
0.0809152
0.0837838
0.0866076
0.0893346
0.091925
0.0943309
0.0965046
0.098404
0.0999928
0.101241
0.102125
0.102628
0.102741
0.102458
0.101782
0.10072
0.0992845
0.0974918
0.0953621
0.0929195
0.0901903
0.0872024
0.0839841
0.0805642
0.0769712
0.0732309
0.0693675
0.0654045
0.0613618
0.0572637
0.0531169
0.0489539
0.0447053
0.0402262
0.0355333
0.0307956
0.0260271
0.0212308
0.0164309
0.0116547
0.00691418
0.00227869
0.294634
0.314602
0.312785
0.302984
0.29601
0.288701
0.280493
0.272147
0.263796
0.255462
0.247239
0.239202
0.231402
0.223877
0.216659
0.209764
0.203202
0.196975
0.191078
0.185496
0.180206
0.175176
0.170366
0.165731
0.161219
0.156777
0.152353
0.147898
0.143368
0.138728
0.133953
0.12903
0.123959
0.118754
0.113445
0.108074
0.102696
0.0973765
0.0921888
0.0872107
0.0825202
0.0781913
0.0742913
0.0708777
0.0679972
0.0656839
0.0639601
0.0628355
0.0623048
0.0623496
0.0629372
0.0640234
0.0655549
0.0674738
0.0697176
0.0722243
0.0749319
0.0777811
0.0807137
0.0836732
0.0865912
0.0894124
0.0920968
0.0945961
0.096861
0.0988481
0.100519
0.101844
0.102798
0.103363
0.103528
0.10329
0.102649
0.101613
0.100195
0.0984117
0.0962836
0.0938356
0.0910949
0.0880903
0.0848508
0.0814065
0.0777865
0.0740178
0.0701253
0.0661334
0.0620622
0.0579373
0.0537625
0.0495798
0.0452804
0.0407269
0.0359735
0.0311788
0.0263512
0.021495
0.0166356
0.0118006
0.00700096
0.00230825
0.294607
0.314269
0.312148
0.302327
0.295357
0.288019
0.279809
0.271476
0.26314
0.254825
0.246626
0.238615
0.230842
0.223347
0.216158
0.209295
0.202768
0.196578
0.190722
0.185184
0.179942
0.174962
0.170205
0.165623
0.161165
0.156777
0.152404
0.147996
0.143509
0.138904
0.134156
0.129249
0.124182
0.118969
0.113637
0.10823
0.102802
0.0974198
0.0921599
0.0871019
0.0823266
0.0779112
0.073926
0.0704317
0.0674773
0.0650997
0.0633236
0.0621603
0.0616061
0.0616431
0.0622386
0.0633476
0.0649152
0.0668818
0.0691835
0.0717572
0.0745402
0.0774728
0.0804947
0.0835498
0.0865675
0.0894883
0.0922723
0.0948702
0.0972317
0.0993115
0.10107
0.102476
0.103503
0.104134
0.104356
0.104165
0.103562
0.102554
0.101155
0.0993816
0.0972555
0.094802
0.0920493
0.0890271
0.0857654
0.0822952
0.0786468
0.0748482
0.0709252
0.0669029
0.062802
0.0586488
0.0544444
0.0502398
0.0458847
0.0412511
0.0364356
0.0315814
0.0266914
0.0217724
0.0168508
0.0119539
0.00709218
0.00233933
0.294508
0.313936
0.311496
0.301657
0.294689
0.287321
0.279108
0.270789
0.262468
0.254173
0.245998
0.238013
0.230268
0.222801
0.215643
0.208813
0.202321
0.19617
0.190356
0.184864
0.179671
0.174743
0.17004
0.165514
0.161112
0.156778
0.152459
0.148101
0.143658
0.139091
0.134371
0.129482
0.12442
0.119199
0.113844
0.108399
0.102919
0.0974726
0.0921369
0.0869948
0.0821301
0.0776234
0.0735479
0.0699677
0.0669346
0.0644883
0.0626559
0.0614509
0.0608707
0.0608986
0.0615017
0.062634
0.0642389
0.0662552
0.068617
0.0712602
0.0741218
0.0771415
0.0802571
0.0834126
0.0865353
0.0895617
0.0924506
0.0951527
0.0976161
0.099794
0.101646
0.103137
0.104243
0.104943
0.105225
0.105084
0.104521
0.103544
0.102165
0.100403
0.0982787
0.0958197
0.0930544
0.0900138
0.0867289
0.0832314
0.0795531
0.075723
0.0717681
0.0677139
0.0635821
0.059399
0.0551638
0.0509338
0.0465182
0.0417994
0.03692
0.0320036
0.0270482
0.0220635
0.0170767
0.0121149
0.00718795
0.00237199
0.29432
0.313595
0.310833
0.300974
0.294005
0.286607
0.278392
0.270086
0.261781
0.253506
0.245355
0.237396
0.229679
0.222242
0.215115
0.208318
0.201863
0.195752
0.189981
0.184536
0.179393
0.174519
0.169872
0.165403
0.161058
0.156782
0.152518
0.148212
0.143815
0.139288
0.134599
0.12973
0.124675
0.119445
0.114068
0.108584
0.10305
0.0975358
0.0921208
0.0868905
0.0819318
0.0773284
0.0731575
0.0694862
0.0663693
0.0638496
0.0619569
0.0607068
0.0600982
0.0601154
0.0607257
0.0618819
0.0635253
0.0655933
0.0680172
0.0707322
0.0736753
0.0767857
0.0799997
0.0832603
0.0864935
0.0896316
0.0926311
0.095443
0.0980139
0.100295
0.102245
0.103828
0.105016
0.105789
0.106135
0.106048
0.105528
0.104583
0.103226
0.101476
0.0993544
0.0968897
0.0941115
0.0910515
0.0877422
0.0842162
0.0805063
0.0766432
0.0726549
0.0685674
0.0644035
0.0601888
0.055922
0.0516612
0.0471802
0.0423723
0.0374273
0.0324461
0.027422
0.0223686
0.0173135
0.0122838
0.00728841
0.00240625
0.294185
0.313214
0.310148
0.300277
0.293307
0.285879
0.277662
0.269369
0.26108
0.252825
0.244698
0.236765
0.229077
0.22167
0.214575
0.207812
0.201393
0.195323
0.189597
0.1842
0.179109
0.17429
0.1697
0.16529
0.161004
0.156787
0.15258
0.148329
0.143982
0.139497
0.134841
0.129992
0.124945
0.119709
0.114308
0.108784
0.103195
0.0976105
0.0921128
0.0867899
0.0817323
0.0770273
0.0727555
0.0689875
0.0657817
0.0631837
0.0612265
0.0599276
0.0592879
0.0592927
0.0599096
0.0610903
0.0627737
0.0648954
0.0673835
0.0701722
0.0731994
0.0764042
0.0797213
0.0830917
0.0864409
0.089697
0.092813
0.0957404
0.0984246
0.100815
0.102868
0.104547
0.105823
0.106674
0.107088
0.107057
0.106583
0.105672
0.104339
0.102602
0.100484
0.0980133
0.0952215
0.0921414
0.0888065
0.0852505
0.0815076
0.0776098
0.0735866
0.0694642
0.0652671
0.0610193
0.0567215
0.0524203
0.0478699
0.0429705
0.0379581
0.0329092
0.0278132
0.022688
0.0175616
0.0124608
0.0073937
0.00244217
0.294236
0.312824
0.309445
0.299568
0.292595
0.285137
0.276919
0.268638
0.260364
0.25213
0.244027
0.236122
0.228461
0.221085
0.214023
0.207295
0.200914
0.194886
0.189205
0.183858
0.17882
0.174056
0.169525
0.165174
0.16095
0.156794
0.152647
0.148452
0.144157
0.139717
0.135095
0.13027
0.125233
0.11999
0.114566
0.109002
0.103355
0.0976979
0.0921139
0.0866942
0.0815328
0.0767207
0.0723425
0.0684723
0.065172
0.0624907
0.0604643
0.0591129
0.0584392
0.0584298
0.0590527
0.0602583
0.0619834
0.064161
0.0667154
0.069579
0.0726928
0.0759955
0.0794202
0.0829054
0.0863764
0.0897569
0.0929954
0.0960442
0.0988476
0.101353
0.103515
0.105295
0.106664
0.107598
0.108084
0.108113
0.107688
0.106814
0.105505
0.103782
0.101668
0.0991917
0.0963858
0.0932846
0.0899229
0.0863355
0.082558
0.078624
0.0745643
0.0704054
0.0661742
0.0618914
0.0575657
0.0532115
0.0485851
0.043595
0.0385134
0.0333935
0.0282223
0.0230222
0.0178214
0.0126462
0.00750398
0.00247979
0.294216
0.312412
0.308731
0.298847
0.29187
0.284381
0.276162
0.267894
0.259636
0.251422
0.243344
0.235466
0.227834
0.220489
0.21346
0.206767
0.200426
0.19444
0.188806
0.183509
0.178525
0.173818
0.169346
0.165057
0.160896
0.156803
0.152718
0.148582
0.144341
0.139948
0.135364
0.130564
0.125538
0.120289
0.114843
0.109237
0.103532
0.0977991
0.0921252
0.0866045
0.0813343
0.0764097
0.0719192
0.067941
0.0645405
0.0617706
0.0596703
0.0582622
0.0575512
0.0575258
0.0581543
0.059385
0.0611538
0.0633897
0.0660123
0.0689517
0.072154
0.075558
0.079095
0.0827
0.0862987
0.0898101
0.0931774
0.0963538
0.0992825
0.101909
0.104186
0.106073
0.107539
0.108561
0.109123
0.109216
0.108842
0.108008
0.106726
0.105018
0.102908
0.100426
0.0976057
0.0944824
0.0910927
0.0874724
0.0836588
0.0796869
0.0755891
0.0713919
0.0671256
0.0628062
0.0584564
0.0540388
0.0493252
0.0442467
0.0390935
0.0338992
0.0286498
0.0233717
0.0180931
0.0128402
0.0076194
0.00251918
0.294123
0.311995
0.308004
0.298116
0.291132
0.283612
0.275393
0.267138
0.258896
0.250703
0.242649
0.234798
0.227196
0.219882
0.212886
0.20623
0.199928
0.193986
0.188399
0.183153
0.178224
0.173575
0.169164
0.164938
0.160841
0.156813
0.152792
0.148718
0.144534
0.14019
0.135647
0.130875
0.125861
0.120608
0.115139
0.109492
0.103726
0.0979152
0.0921482
0.086522
0.0811379
0.0760951
0.0714866
0.0673943
0.0638876
0.0610235
0.0588442
0.0573751
0.0566234
0.0565798
0.0572133
0.0584698
0.0602842
0.0625799
0.0652728
0.0682897
0.0715817
0.0750901
0.0787439
0.082474
0.0862064
0.0898553
0.093358
0.0966684
0.0997286
0.102482
0.10488
0.10688
0.108449
0.109563
0.110205
0.110367
0.110048
0.109255
0.108003
0.106311
0.104206
0.101718
0.0988827
0.0957363
0.0923172
0.0886626
0.0848111
0.0807996
0.0766621
0.0724249
0.0681225
0.0637644
0.0593924
0.0549045
0.0500921
0.0449266
0.0396991
0.034427
0.0290961
0.023737
0.0183773
0.0130431
0.00774016
0.00256039
0.293944
0.31157
0.307268
0.297374
0.290382
0.282832
0.274612
0.26637
0.258144
0.249972
0.241943
0.234119
0.226547
0.219265
0.212303
0.205684
0.199423
0.193524
0.187986
0.182792
0.177918
0.173328
0.168979
0.164817
0.160786
0.156824
0.15287
0.148859
0.144735
0.140444
0.135944
0.131202
0.126202
0.120947
0.115455
0.109767
0.103939
0.0980477
0.0921839
0.0864479
0.0809448
0.0757781
0.0710453
0.0668326
0.0632136
0.0602495
0.0579859
0.056451
0.0556549
0.0555911
0.0562288
0.057512
0.0593742
0.0617287
0.0644941
0.0675924
0.0709745
0.0745903
0.0783654
0.0822257
0.0860978
0.0898911
0.0935361
0.0969871
0.100185
0.103072
0.105597
0.107715
0.109394
0.110605
0.111333
0.111567
0.111306
0.110558
0.109336
0.107663
0.105563
0.103069
0.100218
0.0970477
0.0935979
0.0899072
0.0860163
0.0819635
0.0777844
0.0735056
0.0691658
0.064767
0.0603722
0.0558087
0.0508876
0.0456354
0.0403307
0.0349772
0.0295619
0.0241184
0.0186743
0.0132553
0.00786645
0.00260349
0.293797
0.311108
0.306515
0.296622
0.289621
0.28204
0.273821
0.265591
0.257381
0.24923
0.241227
0.233431
0.225889
0.218638
0.211711
0.20513
0.198909
0.193056
0.187566
0.182425
0.177607
0.173077
0.16879
0.164693
0.16073
0.156837
0.152951
0.149007
0.144945
0.14071
0.136255
0.131545
0.126563
0.121306
0.115794
0.110063
0.104172
0.0981978
0.0922338
0.0863836
0.0807562
0.0754597
0.0705964
0.0662568
0.0625191
0.0594489
0.0570952
0.0554893
0.0546451
0.0545591
0.0551998
0.0565111
0.0584223
0.0608337
0.0636733
0.066858
0.0703315
0.0740567
0.0779574
0.0819536
0.0859715
0.0899161
0.0937108
0.097309
0.100652
0.103679
0.106337
0.10858