/*--------------------------------*- C++ -*----------------------------------*\
| =========                 |                                                 |
| \\      /  F ield         | OpenFOAM: The Open Source CFD Toolbox           |
|  \\    /   O peration     | Version:  4.1                                   |
|   \\  /    A nd           | Web:      www.OpenFOAM.org                      |
|    \\/     M anipulation  |                                                 |
\*---------------------------------------------------------------------------*/
FoamFile
{
    version     2.0;
    format      ascii;
    class       surfaceScalarField;
    location    "100";
    object      phi;
}
// * * * * * * * * * * * * * * * * * * * * * * * * * * * * * * * * * * * * * //

dimensions      [0 3 -1 0 0 0 0];

internalField   nonuniform List<scalar> 
52920
(
179.119
6.1238
173.047
6.07194
167.255
5.79187
161.631
5.62383
156.14
5.49029
150.776
5.36368
145.537
5.23864
140.436
5.10105
135.494
4.9416
130.736
4.75765
126.185
4.55052
121.86
4.32484
117.772
4.08782
113.924
3.84779
110.311
3.61284
106.921
3.38954
103.738
3.18207
100.746
2.99162
97.9293
2.8164
95.2765
2.65228
92.7819
2.49422
90.4436
2.33785
88.2622
2.18087
86.2383
2.02347
84.3697
1.86816
82.6505
1.71868
81.071
1.57904
79.618
1.45248
78.2766
1.34103
77.0307
1.24538
75.865
1.16519
74.7651
1.09934
73.7182
1.04638
72.7129
1.00469
71.7397
0.972669
70.7904
0.948697
69.8587
0.931193
68.9396
0.918509
68.0301
0.908916
67.1288
0.900631
66.2361
0.892107
65.3532
0.882239
64.4822
0.870405
63.6255
0.856162
62.786
0.838947
61.9674
0.817891
61.1747
0.791749
60.4152
0.759153
59.6958
0.718562
59.0261
0.669404
58.4136
0.611753
57.8663
0.547092
57.3882
0.477367
56.983
0.404981
56.6503
0.332133
56.3898
0.260397
56.1983
0.190932
56.0743
0.12392
56.0135
0.0604214
56.0116
0.00187602
56.0651
-0.053817
56.173
-0.107876
56.333
-0.160233
56.5433
-0.210157
56.8
-0.256951
57.0998
-0.299652
57.4371
-0.337477
57.8067
-0.369516
58.2017
-0.395128
58.6155
-0.41372
59.0404
-0.425062
59.4695
-0.429003
59.8951
-0.425754
60.3109
-0.415691
60.7104
-0.399635
61.0889
-0.378414
61.4417
-0.35294
61.766
-0.324244
62.0594
-0.293471
62.3212
-0.261822
62.5524
-0.231254
62.7562
-0.203797
62.937
-0.180912
63.1005
-0.163451
63.2526
-0.152202
63.4011
-0.148447
63.554
-0.153034
63.7198
-0.165751
63.9114
-0.191683
64.1464
-0.234945
64.4371
-0.290816
64.8794
-0.44228
65.5135
-0.63412
66.2588
-0.745247
67.0592
-0.800493
67.8833
-0.824068
68.7135
-0.830236
69.5283
-0.814775
70.3307
-0.802421
-0.74473
185.416
10.981
180.572
10.9155
175.599
10.765
170.479
10.7433
165.301
10.6683
160.1
10.5643
154.908
10.4307
149.768
10.2408
144.721
9.98748
139.807
9.67204
135.058
9.29901
130.503
8.87894
126.164
8.42716
122.05
7.96095
118.165
7.49726
114.504
7.05052
111.055
6.63085
107.803
6.24265
104.735
5.88422
101.838
5.54863
99.1055
5.2262
96.535
4.90777
94.1276
4.58773
91.8851
4.26551
89.8073
3.94542
87.8904
3.63498
86.1263
3.3427
84.5022
3.07598
83.0028
2.83992
81.6108
2.6368
80.3089
2.46653
79.0804
2.32721
77.9103
2.21594
76.785
2.12938
75.693
2.06403
74.6246
2.01638
73.5723
1.98289
72.5302
1.95997
71.4946
1.94382
70.464
1.93056
69.4387
1.91663
68.421
1.89932
67.4137
1.87697
66.4207
1.84853
65.4461
1.81292
64.4946
1.76863
63.5718
1.71346
62.6857
1.64481
61.8436
1.55979
61.056
1.45669
60.3315
1.33544
59.6799
1.19842
59.107
1.04945
58.6185
0.893286
58.215
0.734925
57.8975
0.577806
57.6632
0.424659
57.5108
0.276257
57.4356
0.135203
57.433
0.00442918
57.498
-0.119164
57.6283
-0.238072
57.82
-0.352242
58.0704
-0.460395
58.3742
-0.560979
58.7268
-0.652139
59.1213
-0.732152
59.5512
-0.799286
60.0081
-0.85217
60.4842
-0.889757
60.9706
-0.911582
61.4592
-0.917538
61.9415
-0.908122
62.4102
-0.884336
62.8583
-0.847924
63.2808
-0.800782
63.6726
-0.744882
64.0309
-0.682528
64.3534
-0.616025
64.6395
-0.547988
64.8907
-0.482528
65.1108
-0.423837
65.3045
-0.374781
65.4782
-0.337123
65.6384
-0.31247
65.7934
-0.303428
65.952
-0.311768
66.1237
-0.337403
66.3222
-0.390294
66.5662
-0.478904
66.8719
-0.596606
67.2923
-0.862597
67.8425
-1.18439
68.4832
-1.38591
69.1788
-1.49612
69.9052
-1.55047
70.6436
-1.56865
71.3776
-1.54873
72.1139
-1.5388
-1.46178
188.768
15.4764
184.434
15.2495
180.007
15.1924
175.396
15.3533
170.648
15.4167
165.782
15.43
160.83
15.3822
155.843
15.2278
150.871
14.9588
145.963
14.5796
141.164
14.0981
136.512
13.5307
132.037
12.9014
127.761
12.2368
123.695
11.5635
119.84
10.9051
116.191
10.2791
112.738
9.69477
109.471
9.15178
106.377
8.64136
103.453
8.14966
100.698
7.66288
98.1131
7.17215
95.7019
6.67622
93.4654
6.18149
91.4002
5.69966
89.4982
5.24424
87.7464
4.82727
86.1287
4.45722
84.6268
4.13821
83.2224
3.8704
81.898
3.65103
80.6378
3.47563
79.4277
3.3389
78.2559
3.23533
77.1123
3.15934
75.9893
3.10538
74.8808
3.06783
73.7832
3.04089
72.6945
3.01857
71.6152
2.99537
70.5468
2.96699
69.4925
2.93076
68.4554
2.88499
67.4396
2.82816
66.4494
2.75812
65.4901
2.67178
64.5693
2.56526
63.694
2.43417
62.875
2.27544
62.1212
2.0885
61.4429
1.87647
60.8465
1.64509
60.3382
1.40136
59.9194
1.15302
59.5911
0.90608
59.3502
0.664978
59.1949
0.431471
59.1202
0.20946
59.1215
0.0031682
59.1923
-0.190291
59.3286
-0.374348
59.5253
-0.54915
59.7779
-0.71295
60.0802
-0.86348
60.4263
-0.998136
60.8084
-1.11447
61.2194
-1.21013
61.6504
-1.28329
62.0934
-1.33269
62.5395
-1.35789
62.9811
-1.35903
63.41
-1.33713
63.8197
-1.29402
64.2042
-1.2325
64.5591
-1.1556
64.8805
-1.06646
65.1666
-0.96857
65.4158
-0.865348
65.629
-0.761089
65.8086
-0.662218
65.9597
-0.574952
66.0882
-0.503391
66.201
-0.449894
66.3053
-0.416881
66.4102
-0.40831
66.525
-0.426628
66.6603
-0.472688
66.8317
-0.561777
67.0563
-0.703468
67.3561
-0.896423
67.7621
-1.26865
68.2628
-1.68511
68.8353
-1.9584
69.4601
-2.12098
70.1206
-2.21089
70.801
-2.24906
71.4864
-2.23418
72.1742
-2.22659
-2.13955
190.399
19.8418
186.253
19.395
182.069
19.376
177.749
19.6736
173.305
19.86
168.733
20.0015
164.046
20.0699
159.278
19.995
154.474
19.7622
149.68
19.3732
144.943
18.8354
140.304
18.1687
135.802
17.4035
131.463
16.575
127.307
15.7193
123.342
14.8695
119.57
14.0513
115.984
13.2796
112.58
12.5562
109.349
11.8711
106.292
11.2066
103.409
10.545
100.706
9.87496
98.1862
9.19552
95.8511
8.51613
93.6969
7.85334
91.7145
7.22614
89.8899
6.65136
88.2058
6.14083
86.6432
5.70029
85.183
5.33
83.8073
5.02615
82.4998
4.78252
81.2463
4.59181
80.0347
4.44639
78.8548
4.33863
77.6986
4.26094
76.5601
4.20572
75.4352
4.16514
74.3218
4.13121
73.2201
4.09647
72.1313
4.0551
71.058
4.00341
70.0033
3.93909
68.9709
3.85998
67.965
3.76328
66.9908
3.64491
66.0559
3.49969
65.1676
3.32166
64.3363
3.10641
63.5711
2.85286
62.8826
2.56472
62.2772
2.24968
61.761
1.91734
61.3352
1.57817
61.0005
1.24066
60.7541
0.910866
60.5935
0.591983
60.5137
0.288806
60.5104
0.00647043
60.5763
-0.256499
60.7062
-0.504207
60.894
-0.737204
61.1346
-0.953394
61.4208
-1.14994
61.7465
-1.32367
62.1034
-1.47158
62.4843
-1.59089
62.8803
-1.67949
63.2839
-1.73614
63.6864
-1.76056
64.0807
-1.75322
64.4593
-1.71584
64.8165
-1.65122
65.1471
-1.56315
65.4474
-1.4559
65.7146
-1.33373
65.9471
-1.20107
66.1442
-1.06253
66.3076
-0.92443
66.4408
-0.795516
66.5497
-0.683901
66.6408
-0.59452
66.7208
-0.529912
66.7974
-0.493597
66.88
-0.490929
66.9782
-0.524835
67.1035
-0.597983
67.273
-0.731375
67.502
-0.932443
67.8149
-1.20942
68.2305
-1.68421
68.7139
-2.16854
69.2472
-2.49171
69.8227
-2.69645
70.4296
-2.81778
71.0561
-2.87559
71.6907
-2.86877
72.3252
-2.86111
-2.77265
190.775
24.1196
186.735
23.4345
182.682
23.4297
178.526
23.8286
174.273
24.1125
169.909
24.3659
165.433
24.5456
160.869
24.5587
156.249
24.3821
151.609
24.0128
146.99
23.454
142.433
22.7255
137.975
21.8612
133.647
20.9024
129.473
19.8934
125.466
18.876
121.633
17.8841
117.974
16.9383
114.487
16.0425
111.172
15.1853
108.033
14.346
105.073
13.5038
102.302
12.6463
99.7224
11.7743
97.3366
10.9015
95.1394
10.0502
93.1199
9.24515
91.2629
8.50795
89.5499
7.85343
87.9611
7.28859
86.4772
6.81344
85.08
6.42287
83.7532
6.10883
82.4825
5.86194
81.2559
5.67252
80.0631
5.53091
78.8959
5.42755
77.7482
5.35287
76.6157
5.29707
75.4962
5.25012
74.3894
5.20272
73.2963
5.14756
72.2192
5.07998
71.1608
4.99694
70.1246
4.89564
69.1148
4.77242
68.1366
4.62216
67.1975
4.43839
66.3048
4.21355
65.469
3.94194
64.699
3.62213
64.0051
3.25842
63.3938
2.86016
62.8709
2.44002
62.4374
2.01113
62.0937
1.58419
61.8373
1.16674
61.6655
0.763742
61.5735
0.380444
61.5574
0.0225911
61.6094
-0.308888
61.7238
-0.618528
61.8938
-0.907463
62.1138
-1.17334
62.3766
-1.41291
62.6755
-1.62253
63.0026
-1.79881
63.3505
-1.93865
63.7106
-2.03981
64.0758
-2.10119
64.4378
-2.12274
64.79
-2.10529
65.1255
-2.05147
65.4393
-1.96501
65.7267
-1.85067
65.9849
-1.71402
66.2112
-1.56021
66.4046
-1.39441
66.5648
-1.22285
66.6944
-1.05394
66.7976
-0.898816
66.881
-0.767257
66.9507
-0.664343
67.0135
-0.592714
67.0775
-0.557647
67.1523
-0.565724
67.2475
-0.620128
67.3758
-0.726231
67.5553
-0.910888
67.7994
-1.17656
68.1353
-1.54533
68.5675
-2.11645
69.045
-2.6461
69.5563
-3.00297
70.0982
-3.23835
70.6641
-3.38373
71.2456
-3.45705
71.8346
-3.45783
72.4196
-3.44613
-3.36155
189.959
28.1789
186.114
27.2793
182.223
27.3202
178.22
27.8314
174.117
28.2147
169.908
28.575
165.595
28.8586
161.198
28.9554
156.742
28.8376
152.256
28.4985
147.773
27.9366
143.328
27.1699
138.956
26.2333
134.686
25.1718
130.543
24.0356
126.545
22.8741
122.7
21.7283
119.015
20.6232
115.493
19.5645
112.138
18.5392
108.96
17.5239
105.967
16.4961
103.169
15.4439
100.571
14.3716
98.1736
13.2987
95.9694
12.2539
93.9462
11.2679
92.087
10.3666
90.3726
9.56736
88.7827
8.87801
87.2977
8.29787
85.8997
7.82033
84.5725
7.43539
83.3022
7.13165
82.0768
6.89743
80.8859
6.72113
79.7216
6.59131
78.5773
6.49649
77.4488
6.42491
76.3337
6.36457
75.2315
6.30431
74.1429
6.23544
73.0699
6.15235
72.0149
6.0513
70.9813
5.92871
69.973
5.78
68.9953
5.59886
68.0557
5.37751
67.1616
5.10686
66.3233
4.77993
65.5496
4.39505
64.8505
3.95721
64.2326
3.47725
63.7014
2.97097
63.2578
2.45412
62.9024
1.93948
62.6325
1.43609
62.4455
0.950654
62.337
0.488557
62.3037
0.0559515
62.3375
-0.34311
62.4324
-0.713328
62.5812
-1.05652
62.7781
-1.37017
63.0157
-1.65069
63.2874
-1.89412
63.5852
-2.09675
63.9019
-2.25524
64.2293
-2.36738
64.5605
-2.43225
64.8876
-2.45002
65.2044
-2.42197
65.5046
-2.35178
65.7836
-2.24401
66.0373
-2.10442
66.2632
-1.93993
66.4591
-1.75613
66.6238
-1.55909
66.7577
-1.35694
66.8641
-1.16031
66.948
-0.982802
67.016
-0.835216
67.0738
-0.722254
67.1283
-0.647165
67.1881
-0.61753
67.263
-0.640656
67.3627
-0.719939
67.5009
-0.864393
67.6964
-1.10644
67.9609
-1.44105
68.3249
-1.90939
68.7768
-2.56836
69.2545
-3.12379
69.7545
-3.50303
70.2743
-3.75813
70.8099
-3.91935
71.3554
-4.00254
71.9061
-4.00858
72.4489
-3.98886
-3.91088
188.524
32.1433
184.791
31.0123
181.024
31.0866
177.15
31.7053
173.176
32.1886
169.096
32.6553
164.915
33.0391
160.655
33.2151
156.339
33.1533
151.992
32.8452
147.642
32.2866
143.318
31.4938
139.049
30.5017
134.863
29.3571
130.784
28.1146
126.829
26.8293
123.009
25.5473
119.335
24.2973
115.814
23.085
112.457
21.8956
109.277
20.7034
106.288
19.4855
103.498
18.2327
100.915
16.9545
98.5363
15.6772
96.3532
14.4366
94.3515
13.2692
92.5129
12.2048
90.8171
11.2627
89.2438
10.4509
87.7738
9.76751
86.3893
9.20434
85.0748
8.7494
83.8166
8.38935
82.603
8.1106
81.4238
7.89977
80.271
7.74361
79.1381
7.62885
78.0208
7.54177
76.9164
7.46839
75.8243
7.39579
74.7452
7.31395
73.6806
7.2164
72.6327
7.09867
71.6046
6.95634
70.6002
6.78378
69.6247
6.57343
68.6858
6.31608
67.7907
6.00116
66.9499
5.62045
66.1722
5.17207
65.4673
4.66192
64.8416
4.10218
64.3007
3.51163
63.8457
2.90856
63.4771
2.30797
63.1922
1.72047
62.9886
1.15424
62.8621
0.6146
62.8101
0.108004
62.8246
-0.357949
62.8991
-0.787813
63.0265
-1.1841
63.2006
-1.5442
63.414
-1.8643
63.6601
-2.14017
63.9311
-2.36787
64.2198
-2.5439
64.5185
-2.66617
64.8203
-2.73402
65.1179
-2.74773
65.4052
-2.7092
65.6765
-2.62322
65.9276
-2.49502
66.1545
-2.33148
66.3554
-2.14081
66.5278
-1.92863
66.6711
-1.70227
66.786
-1.47195
66.8762
-1.25053
66.9475
-1.05419
67.0062
-0.893835
67.0576
-0.773734
67.1089
-0.698532
67.1696
-0.678267
67.2493
-0.720323
67.3579
-0.828584
67.5101
-1.01662
67.7253
-1.32163
68.013
-1.72874
68.4059
-2.30235
68.8798
-3.04231
69.3652
-3.60918
69.8618
-3.99963
70.3683
-4.26465
70.8827
-4.43368
71.4008
-4.52066
71.9208
-4.52864
72.4293
-4.4973
-4.42673
186.724
36.0536
183.047
34.6891
179.352
34.7819
175.566
35.4907
171.69
36.064
167.715
36.6307
163.645
37.109
159.5
37.3589
155.305
37.3486
151.081
37.069
146.853
36.5141
142.646
35.6998
138.487
34.6609
134.398
33.4457
130.4
32.1119
126.51
30.7186
122.742
29.3156
119.106
27.9328
115.616
26.5747
112.287
25.2241
109.136
23.8539
106.179
22.4421
103.427
20.9839
100.885
19.496
98.5492
18.0126
96.4087
16.5767
94.4473
15.2301
92.6454
14.0061
90.9826
12.9251
89.4384
11.9945
87.9943
11.2111
86.6331
10.5649
85.34
10.0419
84.1018
9.62697
82.9071
9.30478
81.7459
9.0603
80.6103
8.87864
79.4938
8.74477
78.3919
8.64307
77.302
8.55759
76.2235
8.47367
75.1567
8.38012
74.1028
8.26963
73.0638
8.13701
72.0426
7.97695
71.0431
7.78266
70.0703
7.54518
69.1322
7.25381
68.236
6.89646
67.3924
6.46375
66.6101
5.95363
65.8987
5.37297
65.2648
4.73535
64.7138
4.06234
64.2471
3.37464
63.8651
2.68983
63.5652
2.0199
63.345
1.37438
63.2008
0.758365
63.1303
0.178552
63.1258
-0.353775
63.1806
-0.842652
63.2875
-1.29123
63.4403
-1.69685
63.6313
-2.05556
63.8542
-2.36296
64.1011
-2.61491
64.3651
-2.80781
64.6387
-2.93984
64.9152
-3.01052
65.1876
-3.02025
65.4502
-2.97169
65.6977
-2.87078
65.9259
-2.72317
66.1314
-2.53713
66.3125
-2.32185
66.4665
-2.08276
66.5932
-1.82896
66.694
-1.57281
66.773
-1.32951
66.8361
-1.11737
66.8891
-0.946879
66.9376
-0.822321
66.9894
-0.750333
67.0542
-0.743178
67.1416
-0.807731
67.262
-0.949011
67.4313
-1.18596
67.6688
-1.55915
67.9818
-2.04176
68.4043
-2.72493
68.9025
-3.5405
69.4016
-4.10833
69.9007
-4.49871
70.401
-4.76499
70.9017
-4.93439
71.4002
-5.01917
71.8969
-5.02528
72.3788
-4.97919
-4.91563
184.652
39.9203
181.011
38.3303
177.356
38.4366
173.628
39.218
169.825
39.8674
165.932
40.5229
161.955
41.0862
157.911
41.4029
153.82
41.4386
149.706
41.183
145.59
40.6297
141.496
39.7942
137.444
38.7123
133.456
37.4336
129.549
36.0183
125.739
34.5286
122.038
33.016
118.461
31.5095
115.024
30.0113
111.747
28.5011
108.65
26.951
105.75
25.3417
103.058
23.675
100.578
21.9758
98.3034
20.2869
96.2211
18.6585
94.3134
17.1375
92.5597
15.7594
90.9394
14.545
89.4328
13.5007
88.0219
12.6217
86.6905
11.8958
85.4246
11.3074
84.2114
10.8396
83.0401
10.4756
81.9011
10.1989
80.7862
9.99305
79.6891
9.84134
78.6054
9.72631
77.5324
9.63004
76.4693
9.53621
75.4163
9.43252
74.3745
9.31096
73.3454
9.16556
72.3318
8.99008
71.3374
8.77645
70.3674
8.51421
69.4299
8.19098
68.5325
7.79318
67.6857
7.3103
66.8984
6.74016
66.1806
6.09062
65.5385
5.37674
64.9778
4.62284
64.4998
3.85206
64.1049
3.08463
63.7906
2.33372
63.5547
1.61019
63.3937
0.918937
63.3056
0.266725
63.283
-0.331583
63.3195
-0.879052
63.4073
-1.37933
63.5404
-1.82981
63.7111
-2.22647
63.913
-2.56477
64.1383
-2.84043
64.3805
-3.04987
64.632
-3.19156
64.8868
-3.26519
65.1376
-3.27122
65.3792
-3.21326
65.6067
-3.09838
65.8161
-2.93252
66.0043
-2.72547
66.1695
-2.48697
66.3089
-2.22231
66.4228
-1.94282
66.513
-1.6631
66.5842
-1.40066
66.6421
-1.17529
66.6921
-0.996901
66.7402
-0.870493
66.7949
-0.805052
66.8662
-0.814548
66.9635
-0.904951
67.0979
-1.08346
67.2869
-1.37494
67.5489
-1.82126
67.8894
-2.38217
68.3445
-3.18014
68.8686
-4.06459
69.3841
-4.62383
69.8902
-5.00485
70.39
-5.26482
70.8834
-5.4278
71.369
-5.50473
71.8487
-5.50502
72.311
-5.44145
-5.3838
182.31
43.7926
178.689
41.9514
175.073
42.0518
171.405
42.8861
167.67
43.6017
163.855
44.3385
159.961
44.9795
156.007
45.3565
152.013
45.4325
147.999
45.1965
143.987
44.6413
139.998
43.7831
136.051
42.6588
132.164
41.32
128.353
39.8295
124.63
38.2512
121.009
36.6367
117.505
35.0129
114.138
33.3776
110.931
31.7076
107.907
29.975
105.083
28.1654
102.469
26.2881
100.066
24.3779
97.8663
22.4866
95.8533
20.671
94.0083
18.9821
92.3102
17.4569
90.7388
16.1159
89.2749
14.964
87.9018
13.9943
86.6043
13.1928
85.369
12.5421
84.1842
12.0239
83.0392
11.6201
81.9247
11.3128
80.8328
11.0844
79.7572
10.9164
78.6932
10.7896
77.6385
10.6841
76.5921
10.582
75.554
10.47
74.5249
10.3394
73.5062
10.1836
72.5004
9.99527
71.5112
9.7649
70.544
9.48039
69.607
9.12759
68.708
8.69137
67.8579
8.16013
67.0657
7.5316
66.3414
6.8146
65.6916
6.02581
65.1218
5.19236
64.6333
4.33996
64.2264
3.49133
63.8989
2.66076
63.6485
1.86048
63.4719
1.09515
63.3672
0.371463
63.3278
-0.292497
63.347
-0.898266
63.4172
-1.44979
63.5321
-1.94463
63.6842
-2.37875
63.8671
-2.74753
64.0731
-3.04662
64.2958
-3.27248
64.5281
-3.424
64.7639
-3.50085
64.9961
-3.5036
65.22
-3.43706
65.4307
-3.30923
65.6246
-3.12634
65.7988
-2.89974
65.9511
-2.63925
66.0791
-2.35037
66.1831
-2.04687
66.2655
-1.74558
66.3314
-1.4665
66.3861
-1.23015
66.4352
-1.04596
66.4849
-0.920271
66.5445
-0.86468
66.624
-0.894124
66.7327
-1.01362
66.8831
-1.234
67.0943
-1.58608
67.3831
-2.11011
67.753
-2.75217
68.2438
-3.6709
68.7949
-4.61572
69.3286
-5.15757
69.8452
-5.52142
70.3488
-5.76846
70.84
-5.91892
71.318
-5.98283
71.7865
-5.97348
72.2351
-5.89009
-5.83682
179.352
47.4114
175.949
45.3548
172.482
45.5184
168.925
46.4428
165.283
47.2439
161.551
48.0694
157.742
48.7883
153.876
49.2229
149.972
49.3356
146.053
49.1154
142.139
48.5549
138.251
47.6716
134.405
46.5041
130.618
45.1066
126.903
43.5442
123.272
41.8822
119.738
40.1708
116.318
38.4327
113.034
36.6609
109.912
34.8292
106.976
32.9112
104.242
30.8986
101.719
28.8105
99.4052
26.6917
97.2885
24.6029
95.352
22.6072
93.5752
20.7585
91.9372
19.0946
90.4181
17.6346
89.0001
16.3816
87.6674
15.3266
86.406
14.4537
85.2037
13.744
84.0491
13.178
82.9322
12.7366
81.8438
12.4007
80.7762
12.1515
79.7231
11.969
78.6801
11.8322
77.6446
11.7191
76.6156
11.6105
75.5929
11.4921
74.577
11.3549
73.5689
11.1912
72.5712
10.9926
71.5872
10.7482
70.6227
10.444
69.6861
10.0639
68.7854
9.59131
67.9318
9.01347
67.1347
8.32804
66.4043
7.54479
65.7472
6.6822
65.1691
5.77028
64.671
4.83745
64.2534
3.90882
63.9138
2.99985
63.6502
2.12409
63.459
1.28592
63.3387
0.491824
63.2834
-0.237536
63.2866
-0.901421
63.3404
-1.50384
63.4385
-2.04267
63.5735
-2.51393
63.739
-2.91296
63.9275
-3.23535
64.1329
-3.47776
64.3482
-3.63946
64.5674
-3.71995
64.7837
-3.72002
64.9925
-3.64586
65.1893
-3.50611
65.3704
-3.30737
65.5331
-3.06258
65.6752
-2.78128
65.7942
-2.46952
65.891
-2.14358
65.9678
-1.82254
66.0303
-1.52898
66.0837
-1.28361
66.1334
-1.09565
66.1863
-0.973221
66.2524
-0.930742
66.3413
-0.98315
66.4628
-1.13504
66.6313
-1.4026
66.867
-1.82175
67.1845
-2.42767
67.5865
-3.15409
68.1156
-4.20006
68.6942
-5.19433
69.2473
-5.71073
69.7767
-6.0508
70.2873
-6.27913
70.7801
-6.41164
71.2552
-6.45793
71.7171
-6.43538
72.1571
-6.33015
-6.27959
176.583
51.1142
173.17
48.768
169.757
48.9314
166.281
49.9179
162.727
50.7983
159.082
51.7132
155.36
52.5107
151.58
53.0023
147.765
53.1501
143.937
52.943
140.118
52.3743
136.326
51.4633
132.578
50.2511
128.89
48.7948
125.271
47.1621
121.734
45.4191
118.292
43.613
114.963
41.7612
111.772
39.8512
108.746
37.8546
105.909
35.7479
103.276
33.5306
100.854
31.2326
98.6357
28.9093
96.6082
26.6299
94.7521
24.4627
93.0466
22.4636
91.4707
20.6699
90.0057
19.0991
88.6349
17.7519
87.3439
16.6171
86.12
15.6771
84.9516
14.9118
83.8284
14.3007
82.7405
13.8239
81.6792
13.4614
80.6368
13.1933
79.6071
12.9982
78.5856
12.853
77.57
12.7341
76.559
12.6208
75.5522
12.4983
74.5497
12.3567
73.5526
12.1877
72.5628
11.9818
71.5841
11.7262
70.6222
11.405
69.6857
11
68.7832
10.493
67.9262
9.87019
67.1243
9.12921
66.388
8.28076
65.7241
7.34536
65.1384
6.35577
64.6318
5.34339
64.2047
4.33578
63.8543
3.34974
63.5784
2.39989
63.3736
1.49028
63.2384
0.62705
63.1681
-0.167522
63.1561
-0.889416
63.1945
-1.54244
63.2769
-2.12499
63.396
-2.6332
63.5455
-3.06238
63.7181
-3.40816
63.9079
-3.66741
64.1081
-3.83984
64.3128
-3.92457
64.5154
-3.92274
64.7117
-3.84204
64.8969
-3.69141
65.0675
-3.47798
65.2211
-3.21631
65.3552
-2.91533
65.4675
-2.58192
65.559
-2.23504
65.6324
-1.89605
65.6933
-1.58982
65.7466
-1.33702
65.7982
-1.14725
65.8556
-1.03068
65.9293
-1.00452
66.0287
-1.08263
66.1642
-1.27046
66.3527
-1.59117
66.6152
-2.08429
66.9634
-2.77593
67.4002
-3.59088
67.9704
-4.77036
68.5761
-5.8
69.149
-6.28367
69.6927
-6.59449
70.2127
-6.79911
70.71
-6.90895
71.1857
-6.93363
71.645
-6.89471
72.0807
-6.76586
-6.71631
173.888
54.806
170.454
52.2014
167.039
52.3467
163.592
53.3643
160.091
54.2997
156.515
55.289
152.869
56.156
149.172
56.6997
145.443
56.8791
141.703
56.6822
137.975
56.1025
134.277
55.1612
130.625
53.9023
127.033
52.3866
123.511
50.6842
120.069
48.861
116.721
46.9603
113.489
44.9932
110.398
42.9415
107.477
40.7756
104.748
38.4767
102.224
36.054
99.9076
33.5486
97.7898
31.0268
95.8542
28.5652
94.0804
26.2362
92.4469
24.0967
90.9337
22.1828
89.5231
20.5094
88.1999
19.0747
86.951
17.8656
85.7649
16.8628
84.6311
16.0452
83.5397
15.3917
82.4815
14.8817
81.4478
14.4946
80.4312
14.2095
79.4253
14.0036
78.4259
13.8519
77.4306
13.729
76.4381
13.6129
75.4475
13.4883
74.4589
13.3448
73.4727
13.1734
72.491
12.963
71.5175
12.6991
70.558
12.3636
69.6216
11.9361
68.7172
11.3967
67.8566
10.7305
67.0499
9.93521
66.3081
9.0224
65.6378
8.01496
65.0452
6.94821
64.5311
5.8569
64.0956
4.77117
63.7354
3.70947
63.4482
2.68698
63.2306
1.70752
63.081
0.776668
62.9962
-0.0830561
62.9698
-0.862938
62.9934
-1.56632
63.0609
-2.19243
63.165
-2.73752
63.2996
-3.19694
63.4577
-3.56634
63.6333
-3.84296
63.8201
-4.02685
64.0122
-4.11656
64.2031
-4.11377
64.3888
-4.02769
64.5645
-3.86728
64.727
-3.64037
64.8736
-3.36303
65.0016
-3.04337
65.109
-2.68942
65.1971
-2.32306
65.2688
-1.9678
65.3293
-1.65032
65.3836
-1.39145
65.4382
-1.2018
65.5011
-1.09369
65.5835
-1.0869
65.6941
-1.19323
65.8447
-1.42106
66.055
-1.80155
66.3466
-2.37587
66.7275
-3.15686
67.2029
-4.06624
67.8167
-5.38424
68.4479
-6.43115
69.0401
-6.876
69.599
-7.15331
70.1299
-7.33002
70.6341
-7.41319
71.1133
-7.41288
71.5734
-7.35475
72.0083
-7.20074
-7.15055
171.18
58.4612
167.754
55.6276
164.338
55.7622
160.904
56.7982
157.432
57.7713
153.904
58.8173
150.32
59.7391
146.696
60.3243
143.046
60.5284
139.391
60.3367
135.751
59.7423
132.144
58.7676
128.586
57.4599
125.089
55.8835
121.662
54.1111
118.315
52.2072
115.065
50.2102
111.934
48.124
108.949
45.9256
106.139
43.5855
103.524
41.0915
101.114
38.4635
98.907
35.7548
96.8916
33.0417
95.0488
30.4075
93.357
27.9274
91.7952
25.6581
90.344
23.6334
88.9872
21.8657
87.7111
20.3503
86.5041
19.0721
85.3558
18.0105
84.2567
17.1438
83.1975
16.4503
82.1693
15.9093
81.1636
15.4997
80.173
15.1995
79.1914
14.9846
78.2145
14.8281
77.24
14.7029
76.2663
14.5859
75.2924
14.4615
74.3177
14.3188
73.3426
14.1478
72.369
13.9361
71.4005
13.6669
70.4432
13.3199
69.5067
12.8722
68.6001
12.3024
67.7359
11.5945
66.9244
10.7459
66.1772
9.76931
65.5011
8.69036
64.9023
7.54679
64.3814
6.37712
63.9384
5.21402
63.5693
4.0781
63.2718
2.9844
63.0419
1.93703
62.8781
0.940424
62.7792
0.0154873
62.7388
-0.82243
62.7482
-1.57594
62.8013
-2.24553
62.8912
-2.82758
63.0118
-3.31746
63.1562
-3.71093
63.319
-4.00564
63.4939
-4.20189
63.6749
-4.29748
63.8558
-4.29479
64.0328
-4.20459
64.201
-4.03565
64.3573
-3.79657
64.4988
-3.50463
64.6226
-3.16711
64.7267
-2.79367
64.8129
-2.40922
64.8841
-2.03915
64.9454
-1.71158
65.0018
-1.4479
65.0602
-1.2602
65.1295
-1.16317
65.2211
-1.17847
65.3433
-1.31554
65.5106
-1.58834
65.7446
-2.03563
66.0673
-2.69855
66.4827
-3.57238
67.0016
-4.58506
67.6609
-6.04364
68.3146
-7.08488
68.9253
-7.48672
69.4996
-7.72759
70.0425
-7.87293
70.5555
-7.92613
71.0406
-7.89806
71.5041
-7.81828
71.9411
-7.63772
-7.58534
168.398
62.1171
164.987
59.0384
161.596
59.153
158.195
60.1999
154.759
61.2066
151.274
62.302
147.745
63.2681
144.184
63.8845
140.608
64.1048
137.033
63.9116
133.478
63.2971
129.96
62.2852
126.494
60.926
123.089
59.2873
119.757
57.4437
116.506
55.4575
113.355
53.3608
110.328
51.1505
107.454
48.7994
104.759
46.28
102.262
43.5886
99.9684
40.7568
97.8727
37.8502
95.9597
34.9544
94.2088
32.1581
92.5978
29.538
91.106
27.1495
89.7155
25.0237
88.4113
23.1695
87.1815
21.5798
86.0159
20.2374
84.9052
19.1208
83.8407
18.2079
82.8137
17.477
81.8155
16.9071
80.838
16.4768
79.8738
16.1634
78.9167
15.9412
77.9628
15.7817
77.0094
15.6558
76.0549
15.5399
75.0978
15.4181
74.1373
15.2788
73.1734
15.1112
72.2077
14.9013
71.2441
14.63
70.2889
14.2742
69.352
13.8088
68.4429
13.2107
67.5747
12.4625
66.7585
11.5614
66.0061
10.5215
65.3245
9.37126
64.7201
8.15106
64.193
6.90361
63.743
5.66396
63.3655
4.45516
63.0582
3.29161
62.8166
2.17822
62.6393
1.11777
62.5266
0.127856
62.4723
-0.768075
62.4677
-1.57159
62.5069
-2.28469
62.583
-2.9039
62.6902
-3.42464
62.822
-3.84284
62.973
-4.15659
63.1372
-4.36627
63.3085
-4.46874
63.481
-4.46735
63.6508
-4.37441
63.8134
-4.19834
63.9653
-3.9484
64.1033
-3.64277
64.2244
-3.28818
64.3268
-2.89621
64.4125
-2.4948
64.4843
-2.11109
64.5472
-1.77441
64.6063
-1.50712
64.6692
-1.32311
64.7457
-1.23971
64.8467
-1.27946
64.9811
-1.44998
65.1666
-1.77378
65.4261
-2.29516
65.7817
-3.05414
66.2335
-4.02424
66.8027
-5.15428
67.5086
-6.7496
68.1804
-7.75661
68.8081
-8.1145
69.3978
-8.31727
69.9533
-8.42843
70.4762
-8.44911
70.9693
-8.39109
71.4386
-8.28757
71.8801
-8.07924
-8.02326
165.165
65.4758
161.984
62.2191
158.734
62.4023
155.425
63.5092
152.056
64.5749
148.629
65.7293
145.157
66.7396
141.659
67.3823
138.151
67.612
134.652
67.4106
131.179
66.7702
127.747
65.7164
124.37
64.3025
121.058
62.5995
117.818
60.6828
114.664
58.6113
111.614
56.4104
108.695
54.0696
105.934
51.5591
103.358
48.8555
100.981
45.9651
98.8053
42.9324
96.8204
39.8347
95.0084
36.7659
93.3474
33.8187
91.8149
31.07
90.3911
28.5729
89.0592
26.355
87.8062
24.422
86.6215
22.7639
85.4965
21.3619
84.4229
20.1938
83.3928
19.2374
82.398
18.4713
81.43
17.8745
80.4808
17.4254
79.5431
17.1006
78.6108
16.8729
77.6801
16.7118
76.7482
16.587
75.8133
16.4743
74.8733
16.3574
73.927
16.2244
72.9742
16.0634
72.0164
15.8586
71.0574
15.5883
70.1039
15.2267
69.1662
14.7461
68.2544
14.1217
67.3819
13.3347
66.5607
12.3818
65.8032
11.2787
65.1165
10.0572
64.507
8.7604
63.9742
7.43571
63.5175
6.12059
63.1318
4.8403
62.8149
3.60842
62.5621
2.4306
62.3721
1.30775
62.2458
0.253874
62.1776
-0.699805
62.159
-1.55332
62.1845
-2.31008
62.2472
-2.9668
62.3416
-3.51896
62.4614
-3.96277
62.6016
-4.29673
62.7563
-4.52105
62.9192
-4.63156
63.0845
-4.63283
63.2489
-4.53869
63.4074
-4.35694
63.5564
-4.09737
63.6924
-3.77891
63.8123
-3.40806
63.9145
-2.99846
64.0006
-2.58094
64.0739
-2.18445
64.139
-1.83947
64.2015
-1.56972
64.2694
-1.39108
64.3534
-1.32377
64.4639
-1.38998
64.6109
-1.59701
64.816
-1.97896
65.1028
-2.58197
65.493
-3.44436
65.9828
-4.51416
66.6132
-5.78464
67.365
-7.50141
68.0475
-8.43917
68.6907
-8.75774
69.2955
-8.922
69.8639
-8.99683
70.398
-8.9832
70.9004
-8.89359
71.3774
-8.76455
71.8256
-8.52736
-8.46653
162.219
68.9696
159.017
65.4204
155.829
65.5908
152.604
66.7333
149.318
67.8608
145.964
69.0831
142.56
70.1433
139.129
70.8134
135.691
71.0499
132.266
70.8356
128.872
70.1641
125.524
69.0638
122.235
67.5916
119.012
65.8217
115.866
63.8293
112.808
61.6687
109.861
59.3575
107.051
56.879
104.408
54.2023
101.953
51.3102
99.6971
48.2205
97.6381
44.9911
95.7623
41.7102
94.049
38.4789
92.475
35.3924
91.0181
32.5266
89.6595
29.9313
88.384
27.6302
87.1804
25.6253
86.0397
23.9043
84.9544
22.4469
83.9174
21.2305
82.9214
20.2331
81.9585
19.4338
81.0207
18.812
80.0998
18.3459
79.1887
18.0113
78.2815
17.7797
77.3742
17.6186
76.4642
17.4965
75.549
17.389
74.6263
17.2796
73.6943
17.156
72.7525
17.0048
71.8023
16.8083
70.8476
16.5424
69.8954
16.178
68.9565
15.6848
68.0414
15.0361
67.1644
14.2115
66.338
13.2076
65.5752
12.0413
64.8837
10.7481
64.2694
9.37446
63.7317
7.97293
63.2686
6.58356
62.8751
5.23334
62.5487
3.9348
62.2849
2.69399
62.0827
1.51
61.9426
0.393567
61.8604
-0.617484
61.8279
-1.52111
61.8397
-2.32182
61.8892
-3.01655
61.9712
-3.60091
62.0797
-4.0714
62.21
-4.42696
62.3561
-4.66729
62.5117
-4.78714
62.6714
-4.79266
62.8317
-4.69893
62.9875
-4.5129
63.135
-4.24484
63.2704
-3.9144
63.3904
-3.52808
63.4935
-3.10158
63.5811
-2.66856
63.6565
-2.25989
63.7243
-1.90727
63.7906
-1.63607
63.8639
-1.46436
63.9555
-1.41544
64.0753
-1.50975
64.2353
-1.75705
64.4618
-2.20551
64.7775
-2.89764
65.2034
-3.8703
65.7328
-5.04361
66.4422
-6.49397
67.2353
-8.29462
67.9169
-9.12069
68.574
-9.41493
69.1937
-9.54166
69.7755
-9.57874
70.3218
-9.52949
70.8351
-9.40691
71.3214
-9.2508
71.7778
-8.98379
-8.91703
159.455
72.4758
156.206
68.6693
153.004
68.7923
149.81
69.9273
146.581
71.0896
143.295
72.3685
139.963
73.4757
136.602
74.1734
133.236
74.4159
129.885
74.1859
126.57
73.4792
123.305
72.3284
120.102
70.7946
116.968
68.9548
113.914
66.8833
110.953
64.6286
108.11
62.2003
105.412
59.5762
102.888
56.7266
100.555
53.6425
98.4204
50.3546
96.4771
46.9339
94.7079
43.4789
93.0899
40.0963
91.5994
36.8824
90.2148
33.9107
88.9184
31.2271
87.697
28.851
86.5409
26.7809
85.4428
25.0019
84.3963
23.4928
83.3953
22.231
82.4329
21.1949
81.5018
20.3644
80.594
19.7192
79.7015
19.2378
78.8171
18.8952
77.935
18.6611
77.0516
18.5015
76.1636
18.3838
75.2684
18.2836
74.3629
18.1845
73.4451
18.0731
72.5141
17.9351
71.5712
17.7506
70.6205
17.4924
69.6692
17.1283
68.7285
16.6252
67.8096
15.9541
66.9275
15.0933
66.0956
14.0388
65.3274
12.8092
64.6311
11.4436
64.0127
9.99261
63.4705
8.51451
63.0017
7.05227
62.6006
5.63387
62.2649
4.27047
61.9902
2.96829
61.7755
1.72463
61.6217
0.547136
61.5251
-0.520928
61.4787
-1.47487
61.4768
-2.31991
61.5134
-3.05329
61.5833
-3.67078
61.681
-4.16927
61.8021
-4.54801
61.9406
-4.8059
62.0901
-4.93662
62.2455
-4.94809
62.403
-4.85642
62.5575
-4.6675
62.7048
-4.39207
62.8407
-4.05048
62.9621
-3.64941
63.067
-3.20661
63.157
-2.75849
63.235
-2.338
63.3059
-1.9782
63.3762
-1.7064
63.4549
-1.54315
63.554
-1.51455
63.6828
-1.63854
63.8568
-1.93117
64.1064
-2.45511
64.452
-3.24327
64.914
-4.33236
65.484
-5.61371
66.2747
-7.28459
67.1019
-9.12195
67.788
-9.80672
68.4576
-10.0845
69.0928
-10.1769
69.6894
-10.1754
70.249