/*--------------------------------*- C++ -*----------------------------------*\
| =========                 |                                                 |
| \\      /  F ield         | OpenFOAM: The Open Source CFD Toolbox           |
|  \\    /   O peration     | Version:  4.1                                   |
|   \\  /    A nd           | Web:      www.OpenFOAM.org                      |
|    \\/     M anipulation  |                                                 |
\*---------------------------------------------------------------------------*/
FoamFile
{
    version     2.0;
    format      ascii;
    class       volVectorField;
    location    "100";
    object      U;
}
// * * * * * * * * * * * * * * * * * * * * * * * * * * * * * * * * * * * * * //

dimensions      [0 1 -1 0 0 0 0];

internalField   nonuniform List<vector> 
26785
(
(2.99582e-18 0.00515231 1.49276)
(-1.37972e-17 0.00473317 1.3835)
(3.26224e-17 0.00436441 1.28647)
(-2.33131e-16 0.00409266 1.20087)
(-9.39545e-17 0.00387351 1.12126)
(-5.55878e-16 0.00368235 1.04728)
(-5.79417e-16 0.00350774 0.979002)
(-6.35343e-16 0.00334102 0.915802)
(-4.48479e-17 0.00317702 0.857241)
(-4.91356e-16 0.00301353 0.803107)
(-4.82213e-16 0.00285035 0.753181)
(-4.52101e-16 0.00268873 0.707231)
(-3.83142e-16 0.00253088 0.665024)
(-2.51225e-16 0.0023793 0.626307)
(-1.4251e-16 0.00223631 0.590806)
(-9.17047e-17 0.00210355 0.558235)
(6.25315e-17 0.00198169 0.528307)
(1.98888e-16 0.00187032 0.500747)
(4.21263e-16 0.00176804 0.475307)
(-7.61738e-17 0.00167281 0.451777)
(-2.94567e-16 0.00158256 0.429987)
(-2.75325e-16 0.00149566 0.409806)
(-9.95717e-16 0.00141137 0.391127)
(-1.27714e-15 0.00132985 0.373859)
(-1.42041e-15 0.00125192 0.357914)
(-1.53899e-15 0.00117867 0.343194)
(-1.65105e-15 0.00111109 0.329595)
(-1.62023e-15 0.00104978 0.31701)
(-2.16129e-15 0.000994865 0.305329)
(-2.94361e-15 0.000946012 0.294448)
(-3.14516e-15 0.000902597 0.284272)
(-3.06342e-15 0.000863836 0.274719)
(-3.26377e-15 0.000828924 0.265721)
(-2.28188e-15 0.000797114 0.257219)
(-3.56633e-15 0.000767755 0.249166)
(-3.8098e-15 0.000740293 0.241525)
(-3.87027e-15 0.00071427 0.234266)
(-3.84723e-15 0.000689295 0.227363)
(-3.70695e-15 0.00066502 0.220798)
(-3.88092e-15 0.000641163 0.214557)
(-2.37432e-15 0.0006176 0.208627)
(-2.01409e-15 0.0005944 0.202998)
(-1.51755e-15 0.000571761 0.19766)
(-2.91571e-15 0.000549862 0.192601)
(-2.69782e-15 0.000528748 0.187807)
(-4.0738e-15 0.00050828 0.183265)
(-4.36249e-15 0.000488126 0.178964)
(-4.38736e-15 0.000467859 0.174895)
(-4.63507e-15 0.000447072 0.171054)
(-4.91739e-15 0.000425632 0.167439)
(-3.36928e-15 0.000403648 0.164049)
(-3.27606e-15 0.000381533 0.160885)
(-3.27642e-15 0.000359886 0.15794)
(-3.58769e-15 0.000339341 0.155204)
(-3.71206e-15 0.000320503 0.152663)
(-3.27259e-15 0.00030356 0.1503)
(-5.00559e-15 0.000288551 0.148098)
(-5.45007e-15 0.000274818 0.146044)
(-5.52035e-15 0.000262749 0.144122)
(-5.58158e-15 0.000253179 0.142313)
(-5.63989e-15 0.000245122 0.140598)
(-6.1295e-15 0.000237913 0.138966)
(-6.31507e-15 0.000231355 0.137408)
(-8.15349e-15 0.000225448 0.135917)
(-8.0851e-15 0.000220223 0.134486)
(-7.64489e-15 0.000215787 0.133108)
(-7.03047e-15 0.000212232 0.131773)
(-6.03613e-15 0.000209691 0.130474)
(-5.40835e-15 0.000208251 0.129202)
(-4.45711e-15 0.000207981 0.127945)
(-5.34247e-15 0.00020888 0.126696)
(-4.93407e-15 0.000210928 0.125444)
(-4.49353e-15 0.00021403 0.124183)
(-4.09778e-15 0.000218037 0.122904)
(-3.96441e-15 0.000222693 0.121602)
(-2.20646e-15 0.00022776 0.120273)
(-2.02891e-15 0.000233004 0.118916)
(-2.30216e-15 0.000238139 0.11753)
(-2.7261e-15 0.000242872 0.116118)
(-3.3463e-15 0.000246867 0.114682)
(-3.64369e-15 0.000249546 0.11323)
(-6.41202e-15 0.000250317 0.111771)
(-7.8434e-15 0.000248833 0.110316)
(-8.62726e-15 0.000244956 0.108881)
(-1.13156e-14 0.00023855 0.107479)
(-1.22664e-14 0.000229296 0.106124)
(-1.27451e-14 0.00021711 0.104834)
(-1.25753e-14 0.000202244 0.103621)
(-1.14841e-14 0.000183016 0.102502)
(-9.44588e-15 0.000158773 0.101513)
(-6.94544e-15 0.00013082 0.100647)
(-4.26074e-15 6.86276e-05 0.099995)
(-1.43972e-15 -1.36248e-05 0.099694)
(5.83737e-16 -6.96046e-05 0.0997828)
(2.42613e-15 -0.000102307 0.100087)
(1.70745e-15 -0.000122042 0.100528)
(1.78619e-15 -0.000135439 0.101019)
(1.37085e-15 -0.000140195 0.101657)
(6.65926e-16 -0.000146999 0.102061)
(-1.68216e-15 -0.000132053 0.103095)
(2.60496e-18 0.0140909 1.5393)
(-5.56652e-17 0.0135731 1.4389)
(-1.5731e-17 0.012952 1.34724)
(-5.92788e-17 0.0124197 1.26414)
(1.0243e-16 0.0119031 1.18518)
(-3.84882e-16 0.0114077 1.11063)
(-7.44366e-17 0.010933 1.04097)
(-3.19187e-17 0.0104629 0.975849)
(-4.06212e-16 0.00998914 0.915026)
(-3.45083e-16 0.00950947 0.858409)
(-3.19231e-16 0.00902467 0.805868)
(-2.76469e-16 0.00853898 0.757242)
(-2.46449e-16 0.00805928 0.712354)
(-1.12031e-16 0.00759352 0.670998)
(-3.25928e-16 0.0071493 0.632941)
(-3.79883e-16 0.00673267 0.597925)
(2.94838e-16 0.0063472 0.565683)
(4.09292e-16 0.00599331 0.535949)
(4.86365e-16 0.0056683 0.508471)
(5.80937e-16 0.005367 0.483028)
(-2.25166e-16 0.00508315 0.459437)
(3.14979e-16 0.0048112 0.437554)
(-3.81475e-16 0.00454771 0.417264)
(-6.21503e-16 0.00429196 0.398475)
(-8.26896e-16 0.00404568 0.381098)
(-1.03663e-15 0.00381201 0.36504)
(-1.31271e-15 0.00359432 0.3502)
(-1.51448e-15 0.00339518 0.336468)
(-1.57394e-15 0.00321579 0.32373)
(-2.33702e-15 0.00305588 0.311875)
(-2.44809e-15 0.00291402 0.300798)
(-2.50386e-15 0.00278801 0.290407)
(-2.60859e-15 0.00267536 0.280623)
(-2.43752e-15 0.0025736 0.27138)
(-3.17172e-15 0.00248045 0.262625)
(-3.29591e-15 0.00239392 0.254312)
(-3.34364e-15 0.0023123 0.24641)
(-3.37207e-15 0.00223412 0.23889)
(-3.33099e-15 0.00215809 0.231732)
(-3.31203e-15 0.00208311 0.224921)
(-3.29847e-15 0.00200848 0.218445)
(-1.70167e-15 0.0019341 0.212294)
(-1.58752e-15 0.0018604 0.20646)
(-1.07411e-15 0.00178806 0.200933)
(-1.4696e-15 0.00171753 0.195699)
(-1.79146e-15 0.00164886 0.190747)
(-3.72988e-15 0.00158146 0.186062)
(-3.7973e-15 0.00151438 0.181634)
(-5.46927e-15 0.00144642 0.177456)
(-3.9892e-15 0.00137684 0.173524)
(-5.07852e-15 0.00130563 0.169837)
(-4.83613e-15 0.00123368 0.166393)
(-4.34008e-15 0.00116242 0.163191)
(-5.78428e-15 0.00109378 0.160222)
(-4.11209e-15 0.00102985 0.157473)
(-3.67913e-15 0.000971409 0.154928)
(-5.26904e-15 0.000918588 0.152571)
(-5.60811e-15 0.000869582 0.150388)
(-4.13062e-15 0.000825923 0.148362)
(-4.23943e-15 0.000790488 0.146475)
(-4.21014e-15 0.000760717 0.144702)
(-5.94806e-15 0.000734299 0.143027)
(-6.37947e-15 0.000710391 0.141438)
(-5.20858e-15 0.000688845 0.139927)
(-5.47152e-15 0.000669748 0.138482)
(-5.75276e-15 0.000653419 0.137095)
(-5.72313e-15 0.000640199 0.135753)
(-4.78641e-15 0.000630517 0.134446)
(-7.0226e-15 0.000624707 0.133163)
(-6.30912e-15 0.000623018 0.131892)
(-5.09598e-15 0.000625489 0.130621)
(-5.74488e-15 0.000632047 0.129341)
(-4.76517e-15 0.000642404 0.128041)
(-3.97584e-15 0.000656082 0.126714)
(-1.49169e-15 0.000672276 0.125353)
(-2.35877e-15 0.000690154 0.123956)
(-2.29038e-15 0.000708902 0.122519)
(-2.39089e-15 0.000727542 0.121044)
(-2.72712e-15 0.000745141 0.119534)
(-3.0158e-15 0.000760653 0.117993)
(-3.23998e-15 0.000772217 0.116427)
(-5.61869e-15 0.000777904 0.114849)
(-6.87333e-15 0.000776559 0.113271)
(-6.3114e-15 0.00076759 0.11171)
(-7.39096e-15 0.000750465 0.110182)
(-1.0155e-14 0.000724163 0.108701)
(-1.28009e-14 0.000688223 0.107288)
(-1.33869e-14 0.000643412 0.105958)
(-1.10662e-14 0.000585113 0.104729)
(-9.90183e-15 0.000509604 0.10364)
(-8.27655e-15 0.00042307 0.102679)
(-6.20115e-15 0.00025508 0.101972)
(-3.33052e-15 3.87022e-05 0.101512)
(-4.2003e-15 -0.000119888 0.101425)
(-1.90008e-15 -0.000225256 0.101551)
(6.43182e-16 -0.000296157 0.101831)
(6.28027e-16 -0.000345137 0.102189)
(1.42128e-15 -0.000368307 0.102714)
(1.97005e-15 -0.000395677 0.103028)
(1.03404e-15 -0.00037451 0.104)
(-3.23346e-17 0.0228539 1.56471)
(1.92197e-16 0.0219349 1.46708)
(6.4834e-18 0.0211093 1.37865)
(1.26774e-16 0.0204823 1.29837)
(2.9619e-16 0.019824 1.2216)
(-9.77373e-17 0.0191576 1.14847)
(2.90477e-16 0.0184896 1.0795)
(3.27555e-16 0.017796 1.01443)
(2.35829e-16 0.0170715 0.953142)
(1.42688e-16 0.0163192 0.895647)
(8.34891e-17 0.0155437 0.841911)
(6.14881e-17 0.0147544 0.791858)
(3.48829e-17 0.0139647 0.745387)
(9.75761e-17 0.013189 0.702356)
(2.369e-16 0.0124415 0.662586)
(-2.69774e-16 0.0117338 0.625865)
(4.30577e-16 0.0110737 0.591959)
(2.06058e-16 0.0104639 0.560623)
(5.14844e-16 0.00990184 0.53162)
(1.74637e-16 0.00937989 0.504733)
(-6.01726e-17 0.00888819 0.479781)
(8.89121e-16 0.00841726 0.456622)
(8.75377e-16 0.00796077 0.435143)
(1.24465e-16 0.00751692 0.415249)
(-1.49797e-16 0.0070882 0.396854)
(-8.06783e-16 0.00667991 0.379862)
(-1.38092e-15 0.00629805 0.364168)
(-1.49313e-15 0.00594753 0.349657)
(-1.44158e-15 0.00563096 0.336208)
(-1.5157e-15 0.00534841 0.323702)
(-1.59993e-15 0.00509777 0.312027)
(-1.44812e-15 0.00487541 0.301086)
(-1.98458e-15 0.00467707 0.290791)
(-2.40293e-15 0.00449837 0.281073)
(-2.50003e-15 0.00433524 0.271873)
(-2.42353e-15 0.00418405 0.263146)
(-2.48176e-15 0.0040417 0.254854)
(-2.68119e-15 0.00390551 0.246968)
(-2.60591e-15 0.00377317 0.239467)
(-2.63304e-15 0.00364271 0.232333)
(-2.77279e-15 0.00351278 0.225553)
(-2.53051e-15 0.003383 0.219118)
(-2.1905e-15 0.00325396 0.213016)
(-2.07196e-15 0.0031268 0.207238)
(-2.11346e-15 0.00300247 0.201769)
(-2.25261e-15 0.00288127 0.196596)
(-2.61587e-15 0.00276254 0.191704)
(-2.73831e-15 0.00264486 0.187081)
(-3.07545e-15 0.00252619 0.18272)
(-3.43354e-15 0.00240493 0.178615)
(-3.8355e-15 0.00228067 0.174766)
(-4.45034e-15 0.00215475 0.171173)
(-4.72497e-15 0.00202941 0.167834)
(-4.93521e-15 0.00190764 0.164744)
(-4.61805e-15 0.00179303 0.161887)
(-5.59947e-15 0.00168735 0.159251)
(-5.83128e-15 0.001591 0.156814)
(-4.37611e-15 0.00150187 0.154567)
(-4.11136e-15 0.00142236 0.152487)
(-3.86059e-15 0.00135655 0.150557)
(-3.82443e-15 0.00130128 0.14875)
(-3.8896e-15 0.00125293 0.147047)
(-4.20254e-15 0.00120995 0.145431)
(-4.42448e-15 0.00117196 0.143891)
(-4.68517e-15 0.0011391 0.142413)
(-4.95024e-15 0.0011118 0.140985)
(-3.49422e-15 0.00109061 0.139594)
(-3.42878e-15 0.00107614 0.138228)
(-3.73085e-15 0.00106886 0.136874)
(-3.99018e-15 0.00106906 0.13552)
(-3.57937e-15 0.00107668 0.134155)
(-3.43942e-15 0.00109145 0.132769)
(-1.60695e-15 0.00111276 0.131353)
(4.61689e-17 0.00113961 0.1299)
(1.13865e-16 0.00117055 0.128406)
(-1.74283e-16 0.00120406 0.126869)
(-6.93144e-16 0.00123867 0.125289)
(-1.13228e-15 0.00127263 0.123668)
(-1.60993e-15 0.0013044 0.122009)
(-2.19125e-15 0.00133208 0.12032)
(-2.78674e-15 0.00135238 0.118609)
(-3.30937e-15 0.00136211 0.116888)
(-5.88497e-15 0.00135944 0.115175)
(-6.75262e-15 0.00134343 0.113485)
(-7.46004e-15 0.00131313 0.111835)
(-8.48109e-15 0.00126682 0.110241)
(-9.53214e-15 0.0012038 0.108724)
(-1.04357e-14 0.00112476 0.107299)
(-1.01824e-14 0.00102194 0.105989)
(-1.12713e-14 0.000889932 0.104832)
(-9.79853e-15 0.000733762 0.103807)
(-7.36495e-15 0.000469813 0.103086)
(-6.3927e-15 0.000151464 0.10256)
(-3.89346e-15 -9.31355e-05 0.102387)
(-1.32714e-15 -0.00026962 0.102402)
(1.77632e-15 -0.000397998 0.102565)
(2.4152e-15 -0.000490488 0.102818)
(4.36635e-15 -0.000542962 0.103243)
(5.96945e-15 -0.000597093 0.103491)
(5.9233e-15 -0.000590226 0.10434)
(-3.69479e-17 0.0315829 1.5774)
(1.79647e-16 0.0302293 1.48048)
(2.80851e-16 0.0291019 1.39328)
(4.33159e-16 0.0283047 1.31448)
(4.54709e-16 0.0274925 1.23929)
(6.73244e-16 0.026688 1.16768)
(6.90095e-16 0.02588 1.09997)
(4.4802e-16 0.0250235 1.03583)
(4.30962e-16 0.0241087 0.975112)
(4.23031e-16 0.0231391 0.917827)
(3.99614e-16 0.022121 0.863974)
(3.96876e-16 0.0210679 0.813522)
(3.0781e-16 0.0199993 0.766422)
(7.09713e-16 0.0189366 0.722588)
(7.73743e-16 0.0179011 0.681895)
(6.44121e-16 0.0169113 0.644177)
(5.58761e-16 0.0159804 0.609237)
(1.0019e-15 0.0151148 0.576861)
(5.83581e-16 0.0143124 0.546836)
(5.66646e-16 0.0135645 0.518965)
(3.39332e-16 0.0128577 0.493082)
(9.28339e-16 0.0121793 0.469056)
(1.01498e-15 0.0115202 0.446781)
(8.58511e-16 0.0108782 0.426167)
(6.08396e-16 0.0102569 0.407123)
(3.2965e-16 0.0096641 0.389551)
(-1.2024e-16 0.00910893 0.373336)
(-4.49867e-16 0.00859872 0.358357)
(-6.21833e-16 0.00813764 0.344485)
(-8.17609e-16 0.00772605 0.331595)
(-4.82514e-16 0.00736107 0.31957)
(-5.11637e-17 0.00703759 0.308306)
(-3.54329e-16 0.00674941 0.297716)
(-5.03758e-16 0.00649019 0.287724)
(-1.6496e-15 0.00625397 0.278272)
(-6.01804e-16 0.00603543 0.26931)
(-1.9025e-15 0.00583 0.2608)
(-2.31667e-15 0.00563375 0.252711)
(-9.93945e-16 0.00544332 0.24502)
(-2.29365e-15 0.00525583 0.237709)
(-2.4817e-15 0.00506924 0.230763)
(-1.85505e-15 0.00488285 0.224171)
(-1.75616e-15 0.0046974 0.217922)
(-3.18108e-15 0.00451439 0.212003)
(-3.29068e-15 0.00433521 0.206402)
(-3.47307e-15 0.00416038 0.201103)
(-2.49811e-15 0.00398916 0.196092)
(-1.47328e-15 0.00381958 0.191357)
(-1.65587e-15 0.00364873 0.186889)
(-3.79566e-15 0.00347413 0.182685)
(-4.17569e-15 0.0032948 0.178743)
(-6.19141e-15 0.00311242 0.175063)
(-5.3954e-15 0.0029304 0.171644)
(-4.12521e-15 0.00275288 0.16848)
(-4.27796e-15 0.00258488 0.165555)
(-4.11478e-15 0.00242936 0.162854)
(-5.84586e-15 0.00228699 0.160356)
(-4.15038e-15 0.00215591 0.158052)
(-4.21632e-15 0.00203882 0.155917)
(-2.73512e-15 0.00194053 0.153937)
(-3.23523e-15 0.00185831 0.152083)
(-2.24737e-15 0.00178747 0.150332)
(-2.75642e-15 0.00172563 0.148666)
(-3.32613e-15 0.00167211 0.147072)
(-3.96216e-15 0.00162697 0.145534)
(-3.32989e-15 0.00159067 0.14404)
(-3.44406e-15 0.00156381 0.142575)
(-5.25377e-15 0.00154708 0.141128)
(-5.27056e-15 0.00154094 0.139685)
(-5.352e-15 0.00154556 0.138235)
(-3.59645e-15 0.00156069 0.136767)
(-3.33749e-15 0.00158577 0.135273)
(-9.22024e-16 0.00161974 0.133746)
(-1.45013e-15 0.00166105 0.132179)
(-2.77381e-15 0.00170755 0.13057)
(-9.20324e-16 0.00175703 0.128918)
(-1.31237e-15 0.00180731 0.127224)
(-8.86546e-17 0.00185605 0.125492)
(-6.95736e-16 0.00190115 0.123727)
(-1.3509e-15 0.00193957 0.121935)
(-1.93798e-15 0.00196653 0.120128)
(-2.76326e-15 0.00197776 0.118319)
(-3.91986e-15 0.00197087 0.116525)
(-5.03703e-15 0.00194479 0.114763)
(-6.05071e-15 0.00189813 0.113048)
(-7.46977e-15 0.00182842 0.111397)
(-6.96783e-15 0.00173479 0.109832)
(-7.96634e-15 0.00161716 0.108367)
(-8.24984e-15 0.00146431 0.107027)
(-1.01028e-14 0.00127162 0.105852)
(-7.3469e-15 0.00103811 0.104809)
(-6.75766e-15 0.000679373 0.104109)
(-6.12047e-15 0.000275968 0.103567)
(-3.32879e-15 -4.07795e-05 0.103365)
(-5.04604e-16 -0.000280956 0.103315)
(4.40062e-15 -0.000463376 0.103393)
(6.90767e-15 -0.000599039 0.103556)
(1.2179e-14 -0.000683014 0.103883)
(1.31789e-14 -0.000761665 0.104059)
(1.2559e-14 -0.000771382 0.104773)
(-3.50626e-17 0.0397283 1.58017)
(1.71812e-16 0.0381396 1.48378)
(1.8327e-16 0.0368526 1.39737)
(4.31853e-16 0.03591 1.31952)
(5.55345e-16 0.0349372 1.24543)
(2.6138e-16 0.0339904 1.17499)
(6.91778e-16 0.033051 1.10846)
(7.59997e-16 0.0320545 1.04541)
(7.8017e-16 0.030983 0.985622)
(7.38784e-16 0.0298354 0.929062)
(6.48752e-16 0.0286155 0.875697)
(7.27115e-16 0.0273378 0.825493)
(6.59799e-16 0.0260255 0.778418)
(7.35642e-16 0.0247057 0.734416)
(9.28737e-16 0.0234064 0.693397)
(5.74601e-16 0.0221527 0.655233)
(6.12163e-16 0.0209641 0.619763)
(7.7514e-16 0.0198508 0.586805)
(8.05401e-16 0.0188122 0.556174)
(8.44736e-16 0.0178385 0.5277)
(7.59862e-16 0.0169138 0.501242)
(1.20347e-15 0.0160224 0.476685)
(1.27611e-15 0.015154 0.453935)
(1.27586e-15 0.0143065 0.432905)
(1.09312e-15 0.0134856 0.413501)
(9.68608e-16 0.0127023 0.395617)
(1.07789e-16 0.0119688 0.379132)
(3.66454e-16 0.0112949 0.363914)
(2.30438e-16 0.0106861 0.349827)
(-5.06002e-17 0.0101429 0.336741)
(-2.15996e-16 0.00966138 0.324537)
(-2.53458e-16 0.00923477 0.313109)
(-4.26398e-16 0.00885493 0.302366)
(1.50298e-16 0.00851347 0.292234)
(-7.06541e-16 0.00820256 0.282651)
(-6.74584e-16 0.00791521 0.273569)
(-8.09123e-16 0.00764537 0.264948)
(-1.1051e-15 0.00738787 0.256757)
(-1.09897e-15 0.00713829 0.248969)
(-1.19331e-15 0.00689284 0.241568)
(-1.52137e-15 0.0066488 0.234537)
(-1.67069e-15 0.00640518 0.227864)
(-3.02347e-15 0.00616284 0.221537)
(-3.4226e-15 0.00592365 0.215545)
(-3.74346e-15 0.0056893 0.209872)
(-3.99425e-15 0.00546053 0.204503)
(-4.07423e-15 0.00523641 0.199425)
(-3.99725e-15 0.00501448 0.194625)
(-3.65231e-15 0.00479096 0.190095)
(-5.19889e-15 0.00456252 0.185831)
(-5.13052e-15 0.00432777 0.181832)
(-6.61689e-15 0.00408849 0.178096)
(-6.55339e-15 0.00384923 0.174621)
(-5.98205e-15 0.00361578 0.171402)
(-5.66806e-15 0.0033944 0.168422)
(-3.83977e-15 0.00318902 0.165664)
(-3.92053e-15 0.00300061 0.163108)
(-3.55328e-15 0.00282802 0.160746)
(-5.02224e-15 0.00267356 0.15855)
(-4.66147e-15 0.00254234 0.156511)
(-5.88047e-15 0.00243304 0.154599)
(-5.19328e-15 0.00234007 0.152787)
(-4.73314e-15 0.00226017 0.151059)
(-4.5554e-15 0.0021923 0.149399)
(-4.07936e-15 0.00213633 0.14779)
(-6.76316e-15 0.00209269 0.146221)
(-6.47919e-15 0.00206195 0.144676)
(-7.91106e-15 0.00204475 0.143144)
(-7.3053e-15 0.00204149 0.141613)
(-8.27005e-15 0.0020521 0.140072)
(-7.22218e-15 0.00207606 0.138511)
(-6.34106e-15 0.00211253 0.136922)
(-3.17554e-15 0.00215987 0.135299)
(-3.58635e-15 0.00221589 0.133638)
(-3.07639e-15 0.00227786 0.131938)
(-2.01887e-15 0.00234279 0.130197)
(-3.32552e-15 0.00240786 0.128419)
(-1.51468e-15 0.00247035 0.126608)
(-1.74684e-15 0.0025274 0.124768)
(-6.17129e-16 0.00257463 0.122907)
(-6.78396e-16 0.00260581 0.121037)
(-4.26502e-15 0.00261568 0.119174)
(-4.97725e-15 0.00260171 0.117334)
(-4.82185e-15 0.00256288 0.115533)
(-6.34751e-15 0.00249697 0.113785)
(-7.10732e-15 0.0024008 0.112108)
(-7.72611e-15 0.00227348 0.110524)
(-8.19169e-15 0.00211352 0.109045)
(-8.58365e-15 0.00190607 0.107701)
(-6.78951e-15 0.00164922 0.10653)
(-5.86473e-15 0.00133284 0.105491)
(-4.02493e-15 0.000881704 0.104826)
(-3.71158e-15 0.000408734 0.104284)
(-1.24894e-15 3.38142e-05 0.104082)
(1.59503e-15 -0.00026026 0.103999)
(6.5479e-15 -0.000490407 0.104018)
(1.11748e-14 -0.000665759 0.104112)
(1.4283e-14 -0.000780975 0.104356)
(1.25669e-14 -0.000881415 0.104471)
(1.71769e-14 -0.00091482 0.105057)
(-3.25894e-17 0.0487138 1.57271)
(1.31719e-16 0.0461128 1.47818)
(1.63013e-16 0.0444424 1.39333)
(3.99097e-16 0.0433012 1.31676)
(5.23791e-16 0.0421595 1.2438)
(4.67867e-16 0.041068 1.17445)
(6.54945e-16 0.0399969 1.10899)
(1.03992e-15 0.0388658 1.04699)
(1.10897e-15 0.0376506 0.988195)
(6.91987e-16 0.036346 0.932532)
(5.60437e-16 0.0349512 0.879928)
(9.50433e-16 0.0334792 0.830322)
(9.5262e-16 0.031954 0.783669)
(9.23234e-16 0.0304064 0.739917)
(9.84665e-16 0.0288693 0.698992)
(9.29955e-16 0.027374 0.660788)
(9.4714e-16 0.0259454 0.625171)
(5.81452e-16 0.0245975 0.591988)
(6.41689e-16 0.0233315 0.561085)
(1.16395e-15 0.0221362 0.532321)
(1.54651e-15 0.020994 0.50558)
(1.48256e-15 0.0198874 0.480769)
(1.76404e-15 0.0188057 0.457805)
(2.16968e-15 0.0177484 0.436604)
(1.46038e-15 0.0167242 0.417069)
(1.20121e-15 0.0157476 0.399083)
(8.59139e-16 0.0148342 0.382517)
(5.3561e-16 0.013996 0.36723)
(4.8632e-16 0.0132395 0.353081)
(-1.83054e-16 0.0125649 0.339936)
(-2.24326e-16 0.0119672 0.327675)
(-8.08467e-16 0.0114377 0.316192)
(-8.0214e-16 0.0109664 0.305396)
(-6.78111e-16 0.0105427 0.295214)
(-1.99077e-16 0.0101571 0.285585)
(2.43444e-16 0.00980086 0.276459)
(-3.59583e-18 0.00946658 0.267796)
(-3.14306e-16 0.00914785 0.259565)
(-6.27149e-16 0.00883917 0.25174)
(-6.00662e-16 0.00853584 0.244302)
(-1.86405e-15 0.00823448 0.237236)
(-3.27124e-15 0.00793384 0.230528)
(-3.32041e-15 0.00763493 0.224167)
(-4.78679e-15 0.00733995 0.21814)
(-4.86637e-15 0.00705087 0.212431)
(-4.8826e-15 0.00676851 0.207025)
(-4.9841e-15 0.00649176 0.20191)
(-5.02315e-15 0.0062177 0.197072)
(-4.90383e-15 0.00594166 0.192504)
(-4.82792e-15 0.00565954 0.1882)
(-4.53016e-15 0.0053697 0.184161)
(-4.20422e-15 0.005074 0.180383)
(-4.0435e-15 0.00477784 0.176865)
(-3.97009e-15 0.00448906 0.1736)
(-4.02088e-15 0.00421507 0.170571)
(-3.85138e-15 0.00396061 0.167761)
(-3.81406e-15 0.00372693 0.165149)
(-3.40966e-15 0.00351382 0.162728)
(-4.9461e-15 0.00332269 0.160471)
(-5.04997e-15 0.00315857 0.158371)
(-5.36951e-15 0.00302234 0.156399)
(-4.01199e-15 0.00290772 0.154527)
(-4.1151e-15 0.00281046 0.152735)
(-4.24077e-15 0.00272909 0.151008)
(-4.19557e-15 0.00266328 0.14933)
(-5.51395e-15 0.00261331 0.147689)
(-6.7714e-15 0.00257966 0.14607)
(-8.62809e-15 0.0025629 0.144462)
(-7.93554e-15 0.00256324 0.142852)
(-8.65409e-15 0.00258036 0.141232)
(-7.68673e-15 0.00261346 0.139592)
(-6.72887e-15 0.00266136 0.137925)
(-5.19095e-15 0.00272178 0.136225)
(-4.52599e-15 0.00279189 0.13449)
(-8.13838e-16 0.00286843 0.132718)
(-1.48783e-16 0.00294755 0.130911)
(-5.77478e-16 0.00302609 0.129072)
(5.97676e-16 0.00310097 0.127203)
(-1.23609e-18 0.00316824 0.125311)
(-6.75392e-16 0.00322213 0.123404)
(-1.08624e-15 0.00325502 0.121495)
(-2.07037e-15 0.0032609 0.119599)
(-2.12839e-15 0.00323752 0.117734)
(5.28873e-16 0.00318372 0.115911)
(-1.3316e-15 0.00309598 0.114147)
(-5.66081e-15 0.00297069 0.112461)
(-6.74739e-15 0.00280705 0.110872)
(-7.38871e-15 0.00260153 0.109394)
(-7.5261e-15 0.00233564 0.108059)
(-6.93342e-15 0.00201198 0.106902)
(-5.82859e-15 0.00160849 0.105879)
(-3.60606e-15 0.00106846 0.105257)
(-2.96639e-15 0.000538021 0.104723)
(-5.7654e-16 0.000114387 0.104539)
(3.66489e-15 -0.000225135 0.104441)
(8.6792e-15 -0.000496266 0.104422)
(1.20329e-14 -0.000706418 0.104467)
(1.47167e-14 -0.00085076 0.104646)
(1.86673e-14 -0.000969581 0.104712)
(2.31012e-14 -0.00102934 0.10519)
(3.5404e-19 0.056337 1.56059)
(2.93318e-17 0.0535076 1.46729)
(1.70914e-16 0.0517092 1.38379)
(4.33084e-16 0.0504406 1.3085)
(5.82983e-16 0.0491503 1.23671)
(3.14102e-16 0.0479211 1.16847)
(3.77513e-16 0.0467209 1.10406)
(5.71198e-16 0.0454575 1.04307)
(5.89586e-16 0.0441037 0.985261)
(4.22648e-16 0.0426516 0.930533)
(5.14123e-16 0.041097 0.87879)
(6.31375e-16 0.0394505 0.829944)
(7.70861e-16 0.0377356 0.783929)
(8.47149e-16 0.0359844 0.740681)
(9.79932e-16 0.0342334 0.700125)
(6.97283e-16 0.0325185 0.662164)
(8.07664e-16 0.0308689 0.626682)
(1.27132e-15 0.0293018 0.593547)
(1.12443e-15 0.0278191 0.562633)
(1.66302e-15 0.0264089 0.533828)
(1.32479e-15 0.0250519 0.507043)
(1.22931e-15 0.02373 0.482204)
(1.66855e-15 0.0224335 0.459239)
(1.76496e-15 0.0211648 0.438065)
(1.61971e-15 0.0199364 0.418577)
(1.48837e-15 0.0187668 0.400652)
(8.63145e-16 0.0176748 0.384148)
(5.01899e-17 0.0166745 0.368919)
(5.73522e-16 0.0157729 0.35482)
(-4.8811e-17 0.0149696 0.341715)
(-1.61338e-16 0.014258 0.329485)
(-3.32711e-16 0.0136277 0.318024)
(-4.74848e-16 0.0130664 0.307245)
(-5.86812e-16 0.0125618 0.297076)
(-6.40014e-16 0.0121025 0.287456)
(-5.39643e-16 0.0116784 0.278337)
(-4.62696e-16 0.0112805 0.26968)
(-4.80883e-16 0.0109014 0.261451)
(-6.79207e-16 0.0105344 0.253627)
(-5.42326e-16 0.0101739 0.246188)
(-2.13596e-15 0.00981591 0.239118)
(-2.45703e-15 0.00945902 0.232405)
(-4.03494e-15 0.00910437 0.226037)
(-4.56899e-15 0.00875449 0.219999)
(-4.92278e-15 0.00841162 0.214276)
(-5.11132e-15 0.00807658 0.208854)
(-5.50498e-15 0.00774805 0.203719)
(-4.65708e-15 0.00742258 0.198859)
(-4.06322e-15 0.00709473 0.194266)
(-2.20135e-15 0.00675961 0.189936)
(-5.70328e-16 0.0064154 0.185867)
(1.17711e-15 0.0060643 0.182058)
(4.43347e-18 0.00571227 0.178504)
(-1.18155e-15 0.00536915 0.175199)
(-2.18094e-15 0.00504351 0.172127)
(-2.75927e-15 0.004741 0.169271)
(-3.44535e-15 0.00446327 0.166608)
(-3.34485e-15 0.00421082 0.164132)
(-5.03325e-15 0.00398382 0.161819)
(-5.14324e-15 0.00378704 0.159662)
(-5.18939e-15 0.00362408 0.157633)
(-5.02719e-15 0.00348816 0.155703)
(-5.23701e-15 0.00337403 0.153852)
(-3.97804e-15 0.00327976 0.152065)
(-4.51108e-15 0.00320476 0.150325)
(-3.42428e-15 0.0031491 0.148619)
(-5.5508e-15 0.00311313 0.146935)
(-6.92903e-15 0.0030973 0.14526)
(-5.97e-15 0.00310157 0.143584)
(-6.63459e-15 0.0031253 0.141897)
(-4.92533e-15 0.00316749 0.140191)
(-4.92418e-15 0.00322656 0.13846)
(-3.30955e-15 0.00329946 0.136699)
(-2.3028e-15 0.00338291 0.134905)
(-6.2049e-16 0.00347296 0.133079)
(2.90879e-16 0.00356499 0.131222)
(2.26233e-15 0.00365579 0.129337)
(2.85592e-15 0.00374172 0.127426)
(1.68474e-15 0.00381756 0.125497)
(-3.20845e-17 0.00387612 0.123558)
(1.50166e-17 0.00390836 0.121623)
(-1.79788e-15 0.00390813 0.119709)
(-2.00983e-15 0.00387348 0.117829)
(5.95601e-16 0.00380269 0.115995)
(-1.15156e-16 0.00369076 0.114226)
(-1.74514e-15 0.00353406 0.112539)
(-3.50041e-15 0.00333172 0.110955)
(-5.24733e-15 0.00307757 0.109485)
(-4.80006e-15 0.00274989 0.108168)
(-4.96073e-15 0.00235728 0.107028)
(-4.51549e-15 0.00186309 0.106031)
(-2.97648e-15 0.00123783 0.10545)
(-3.03712e-15 0.000659666 0.104941)
(-8.01334e-16 0.000195488 0.104786)
(1.76347e-15 -0.000181633 0.104688)
(8.10096e-15 -0.000487032 0.104647)
(1.25293e-14 -0.000726722 0.10466)
(1.77695e-14 -0.000897243 0.10479)
(1.86392e-14 -0.00103118 0.104821)
(2.21881e-14 -0.00111854 0.105212)
(1.28036e-16 0.0641181 1.54575)
(1.06063e-16 0.0608558 1.4533)
(2.42666e-16 0.0587868 1.37082)
(4.74592e-16 0.0573512 1.29659)
(5.93346e-16 0.0559108 1.22586)
(5.51229e-16 0.0545496 1.15867)
(5.72097e-16 0.0532249 1.09529)
(2.63411e-16 0.0518328 1.0353)
(3.18487e-16 0.0503441 0.978457)
(3.87808e-16 0.0487499 0.924663)
(4.72532e-16 0.047044 0.873811)
(5.62849e-16 0.0452352 0.825793)
(6.62647e-16 0.0433464 0.780523)
(7.67449e-16 0.0414101 0.737924)
(8.32831e-16 0.0394649 0.697909)
(1.21708e-15 0.0375498 0.660382)
(1.25479e-15 0.0356972 0.625233)
(1.32742e-15 0.033926 0.592347)
(1.27024e-15 0.032238 0.561622)
(1.38863e-15 0.0306201 0.532973)
(1.40494e-15 0.0290522 0.506335)
(1.16814e-15 0.0275165 0.481652)
(1.46071e-15 0.0260058 0.458857)
(1.8387e-15 0.0245264 0.437865)
(1.57418e-15 0.0230956 0.418566)
(1.49528e-15 0.021736 0.400823)
(7.64284e-16 0.0204694 0.38449)
(8.41009e-16 0.0193115 0.369412)
(6.34353e-16 0.0182694 0.355443)
(4.17481e-16 0.0173416 0.342449)
(1.44488e-16 0.01652 0.33031)
(-8.0192e-17 0.015792 0.318926)
(-3.046e-16 0.0151434 0.308213)
(-5.44341e-16 0.0145601 0.2981)
(-8.9726e-16 0.014029 0.288528)
(-5.22138e-16 0.0135385 0.279452)
(-5.90114e-16 0.0130785 0.27083)
(-7.54384e-16 0.0126403 0.262633)
(-1.03132e-15 0.0122163 0.254835)
(-9.63464e-16 0.0117998 0.247418)
(-2.47183e-15 0.0113864 0.240366)
(-3.03455e-15 0.0109743 0.233668)
(-4.6755e-15 0.0105651 0.227309)
(-5.02885e-15 0.0101616 0.221277)
(-5.27417e-15 0.00976617 0.215555)
(-5.49515e-15 0.0093797 0.21013)
(-5.79443e-15 0.00900054 0.204987)
(-6.17094e-15 0.00862471 0.200115)
(-5.25699e-15 0.00824601 0.195507)
(-3.91213e-15 0.00785886 0.191159)
(-3.80019e-15 0.00746123 0.187068)
(-3.58005e-15 0.00705589 0.183234)
(-3.59296e-15 0.00664926 0.179652)
(-3.67179e-15 0.00625289 0.176315)
(-3.93987e-15 0.00587657 0.173206)
(-3.80725e-15 0.00552716 0.170311)
(-5.70625e-15 0.00520673 0.167604)
(-4.49936e-15 0.00491614 0.16508)
(-5.07804e-15 0.00465415 0.162717)
(-4.41125e-15 0.00442514 0.160509)
(-5.16359e-15 0.00423569 0.15843)
(-5.90835e-15 0.00407877 0.156449)
(-6.58276e-15 0.00394814 0.154546)
(-6.86362e-15 0.00384142 0.152705)
(-7.35157e-15 0.00375766 0.15091)
(-7.33244e-15 0.00369672 0.149149)
(-8.69869e-15 0.00365877 0.147408)
(-1.06469e-14 0.00364409 0.145676)
(-1.048e-14 0.00365233 0.143943)
(-1.03799e-14 0.00368254 0.1422)
(-7.97908e-15 0.00373356 0.14044)
(-7.05974e-15 0.00380329 0.138657)
(-6.18864e-15 0.00388792 0.136846)
(-5.86872e-15 0.00398385 0.135006)
(-4.12177e-15 0.00408632 0.133136)
(-4.44528e-15 0.00419002 0.131241)
(-3.07028e-15 0.00429197 0.129321)
(-1.66613e-15 0.00438762 0.127379)
(-2.08609e-15 0.00447043 0.125424)
(-2.83151e-15 0.00453181 0.123463)
(-4.7809e-15 0.00456135 0.121512)
(-7.28787e-15 0.00455325 0.119586)
(-6.53448e-15 0.00450572 0.117698)
(-6.19962e-15 0.004416 0.115861)
(-6.03086e-15 0.0042777 0.114092)
(-6.53728e-15 0.00408752 0.112411)
(-7.27904e-15 0.0038442 0.110835)
(-8.09529e-15 0.00353837 0.109379)
(-8.75855e-15 0.00314579 0.108084)
(-7.11602e-15 0.00268242 0.106965)
(-6.23294e-15 0.00209465 0.106003)
(-6.43333e-15 0.00138694 0.105462)
(-6.83255e-15 0.000768562 0.104992)
(-3.3385e-15 0.000271447 0.104874)
(6.5046e-16 -0.000136519 0.104787)
(5.05116e-15 -0.000470079 0.104738)
(9.69837e-15 -0.000734209 0.104733)
(1.19684e-14 -0.000927572 0.10483)
(1.4936e-14 -0.0010737 0.104837)
(1.74266e-14 -0.00118838 0.105161)
(1.98258e-16 0.0717636 1.52879)
(1.74324e-16 0.0680536 1.43712)
(3.4284e-16 0.0656785 1.35552)
(5.78079e-16 0.0640555 1.28221)
(4.23813e-16 0.0624592 1.21241)
(4.4496e-16 0.0609652 1.1462)
(6.81353e-16 0.059517 1.08381)
(5.89006e-16 0.0579982 1.02479)
(4.31119e-16 0.0563773 0.968898)
(7.29487e-16 0.0546445 0.916034)
(7.30402e-16 0.0527925 0.866079)
(7.34098e-16 0.0508292 0.818915)
(7.50784e-16 0.0487772 0.774444)
(8.01883e-16 0.0466692 0.732572)
(8.43874e-16 0.0445452 0.693202)
(1.02552e-15 0.0424462 0.65623)
(1.26068e-15 0.0404063 0.62155)
(1.00825e-15 0.0384446 0.589059)
(6.00053e-16 0.0365618 0.558674)
(1.17163e-15 0.0347435 0.530334)
(1.23644e-15 0.0329689 0.503995)
(9.85839e-16 0.031222 0.479611)
(1.48172e-15 0.0294994 0.457121)
(4.11612e-16 0.0278122 0.436434)
(7.52363e-16 0.0261829 0.417429)
(1.26286e-15 0.0246385 0.399962)
(1.10327e-15 0.0232033 0.383877)
(3.06759e-16 0.0218941 0.369017)
(1.94791e-16 0.0207176 0.355235)
(2.17018e-16 0.0196709 0.342399)
(-4.0389e-16 0.018744 0.330395)
(-3.91182e-16 0.0179223 0.319126)
(-8.92101e-16 0.0171898 0.308511)
(-1.41878e-15 0.0165305 0.298483)
(-1.62438e-15 0.01593 0.288986)
(-1.07522e-15 0.0153752 0.279975)
(-1.26754e-15 0.014855 0.271412)
(-1.55121e-15 0.0143594 0.263265)
(-1.87698e-15 0.0138799 0.255511)
(-1.96685e-15 0.013409 0.248132)
(-2.46683e-15 0.0129414 0.241112)
(-2.69774e-15 0.0124756 0.234441)
(-4.6174e-15 0.0120132 0.228105)
(-5.25374e-15 0.0115574 0.222089)
(-5.82085e-15 0.011111 0.216379)
(-6.25117e-15 0.0106745 0.210959)
(-6.58855e-15 0.0102461 0.205817)
(-6.92952e-15 0.0098211 0.200941)
(-7.06144e-15 0.00939268 0.196325)
(-6.91714e-15 0.00895454 0.191966)
(-6.74457e-15 0.00850456 0.18786)