/*--------------------------------*- C++ -*----------------------------------*\
| =========                 |                                                 |
| \\      /  F ield         | OpenFOAM: The Open Source CFD Toolbox           |
|  \\    /   O peration     | Version:  4.1                                   |
|   \\  /    A nd           | Web:      www.OpenFOAM.org                      |
|    \\/     M anipulation  |                                                 |
\*---------------------------------------------------------------------------*/
FoamFile
{
    version     2.0;
    format      ascii;
    class       volScalarField;
    location    "500";
    object      p;
}
// * * * * * * * * * * * * * * * * * * * * * * * * * * * * * * * * * * * * * //

dimensions      [0 2 -2 0 0 0 0];

internalField   nonuniform List<scalar> 
26785
(
-59.6639
-51.7641
-46.8681
-44.3371
-41.9799
-39.5127
-37.1581
-34.8563
-32.5185
-30.1334
-27.6996
-25.2121
-22.6743
-20.0943
-17.4881
-14.8821
-12.3083
-9.80742
-7.42831
-5.21969
-3.21778
-1.44162
0.106189
1.43469
2.55322
3.47831
4.20727
4.73147
5.0642
5.16922
4.97855
4.73684
4.70568
4.71347
4.73088
4.67492
4.43648
3.9205
3.05039
1.76299
-0.006122
-2.36029
-5.43756
-9.37407
-14.2382
-19.9682
-26.3228
-32.9219
-39.3702
-45.1661
-49.3804
-50.9281
-49.1551
-43.7297
-35.8367
-26.9909
-18.1933
-10.0207
-2.69089
3.66152
8.75918
13.025
15.297
14.1441
11.564
9.38338
7.79585
6.64862
5.84726
5.34467
5.11957
5.16449
5.4726
6.03006
6.8074
7.76198
8.85724
10.0758
11.4137
12.8579
14.3654
15.8624
17.2767
18.567
19.747
20.8565
21.9174
22.8142
23.4239
23.6296
23.3333
22.463
20.9803
18.914
16.3161
13.4357
10.1294
7.50062
2.48379
4.79753
-59.6334
-51.7513
-46.8636
-44.3357
-41.9795
-39.5134
-37.1595
-34.858
-32.5206
-30.1361
-27.7029
-25.216
-22.6791
-20.0998
-17.4946
-14.8895
-12.3166
-9.81627
-7.43756
-5.22934
-3.22801
-1.45279
0.0937153
1.4207
2.53763
3.46085
4.18696
4.70749
5.03535
5.13904
4.95419
4.72077
4.7038
4.71019
4.72359
4.66269
4.41856
3.89629
3.0191
1.7234
-0.0558728
-2.42334
-5.51798
-9.47596
-14.3632
-20.1153
-26.4886
-33.1001
-39.5532
-45.3561
-49.5964
-51.1794
-49.467
-44.0463
-36.122
-27.246
-18.4292
-10.2487
-2.92305
3.41098
8.46903
12.641
14.8521
13.7658
11.3069
9.25784
7.72597
6.60174
5.81099
5.31371
5.09138
5.13836
5.44831
6.00716
6.78494
7.7382
8.83115
10.0497
11.3933
12.8454
14.3481
15.8151
17.1873
18.4641
19.6466
20.7548
21.7942
22.6591
23.2326
23.4016
23.0692
22.1647
20.6504
18.5565
15.9374
13.0466
9.75903
7.16219
2.36064
4.44247
-59.5985
-51.7307
-46.8583
-44.3367
-41.9815
-39.5169
-37.164
-34.8627
-32.5258
-30.1422
-27.7101
-25.2247
-22.6896
-20.1124
-17.5091
-14.906
-12.3347
-9.83565
-7.45771
-5.25029
-3.25013
-1.47675
0.0672547
1.39139
2.50529
3.42489
4.14558
4.6595
4.97872
5.07834
4.90591
4.69046
4.69925
4.7005
4.70484
4.63376
4.37858
3.84437
2.95368
1.64197
-0.156786
-2.54882
-5.67363
-9.66597
-14.5861
-20.3657
-26.7579
-33.3733
-39.8114
-45.6014
-49.87
-51.5112
-49.9116
-44.5334
-36.5918
-27.6913
-18.8596
-10.6764
-3.36464
2.93536
7.93931
11.9403
13.9702
13.0297
10.89
9.04985
7.60587
6.51944
5.74679
5.25856
5.04033
5.08938
5.4007
5.96046
6.73812
7.68902
8.77755
9.99175
11.3339
12.785
14.2763
15.7131
17.051
18.2997
19.47
20.5677
21.569
22.3808
22.894
23.0002
22.6053
21.6414
20.0735
17.9342
15.2835
12.3792
9.13364
6.5955
2.1536
3.89238
-59.5523
-51.689
-46.8429
-44.3342
-41.9825
-39.5213
-37.1705
-34.8699
-32.5338
-30.1516
-27.721
-25.2379
-22.7057
-20.1312
-17.5307
-14.9303
-12.3616
-9.86432
-7.4878
-5.28196
-3.28402
-1.51376
0.0263561
1.34631
2.45579
3.37008
4.08289
4.58814
4.8983
4.99427
4.83966
4.64832
4.68689
4.67907
4.6706
4.58549
4.31526
3.76478
2.85564
1.52221
-0.302312
-2.7256
-5.88705
-9.91872
-14.873
-20.6781
-27.086
-33.6987
-40.1125
-45.8819
-50.1773
-51.8823
-50.4151
-45.1083
-37.1722
-28.2651
-19.4318
-11.2568
-3.97033
2.28173
7.21916
11.0387
12.905
12.1627
10.4026
8.78146
7.43936
6.40085
5.65279
5.1777
4.96628
5.01939
5.33327
5.89423
6.67183
7.62119
8.70665
9.91544
11.2485
12.6842
14.1499
15.5509
16.8522
18.074
19.2304
20.3047
21.2573
22.0028
22.4386
22.4615
21.9819
20.9358
19.2929
17.0894
14.3949
11.4695
8.28419
5.8145
1.868
3.17415
-59.5
-51.6411
-46.8275
-44.3342
-41.9862
-39.529
-37.1805
-34.8805
-32.5454
-30.1647
-27.736
-25.2562
-22.728
-20.1571
-17.56
-14.9631
-12.3974
-9.90255
-7.52798
-5.32451
-3.32993
-1.56413
-0.0292674
1.28522
2.38895
3.29628
3.99924
4.49506
4.79878
4.89328
4.7598
4.5981
4.66316
4.64319
4.61954
4.51735
4.2288
3.65857
2.72731
1.3684
-0.485586
-2.94371
-6.14479
-10.2169
-15.2022
-21.0269
-27.4438
-34.0439
-40.4208
-46.1585
-50.472
-52.2395
-50.9083
-45.6899
-37.7882
-28.905
-20.0941
-11.9455
-4.69926
1.4914
6.34875
10.0232
11.802
11.2776
9.87299
8.45857
7.22548
6.24343
5.52617
5.06825
4.86637
4.92575
5.24353
5.80558
6.58198
7.52872
8.611
9.81438
11.1357
12.5496
13.9823
15.3456
16.6116
17.807
18.9412
19.9814
20.8781
21.5493
21.8977
21.8248
21.2459
20.1023
18.3696
16.0885
13.3413
10.3885
7.27737
4.88368
1.53484
2.34218
-59.4002
-51.579
-46.809
-44.3345
-41.9915
-39.5394
-37.1938
-34.8943
-32.56
-30.1806
-27.7544
-25.279
-22.7559
-20.1895
-17.5967
-15.0039
-12.4419
-9.94991
-7.57783
-5.37759
-3.38755
-1.6276
-0.0993158
1.20844
2.30507
3.20407
3.89617
4.38323
4.6846
4.77966
4.67191
4.55134
4.62678
4.59145
4.55103
4.42916
4.11952
3.52683
2.57116
1.18511
-0.699444
-3.19311
-6.43387
-10.5447
-15.5551
-21.3908
-27.8095
-34.3886
-40.7214
-46.424
-50.7485
-52.5684
-51.3633
-46.2349
-38.3913
-29.564
-20.8029
-12.7012
-5.51204
0.606354
5.37897
8.95085
10.6958
10.4008
9.30795
8.08672
6.96709
6.04908
5.36886
4.93238
4.743
4.81118
5.13487
5.699
6.47386
7.41642
8.49304
9.68776
10.9933
12.3803
13.7755
15.1004
16.3341
17.5037
18.6092
19.6081
20.444
21.0363
21.2911
21.1145
20.4267
19.1746
17.3409
14.9713
12.1639
9.17709
6.15033
3.83808
1.16568
1.44132
-59.2517
-51.5023
-46.7872
-44.3347
-41.9981
-39.5525
-37.2103
-34.9114
-32.5777
-30.1995
-27.7762
-25.3058
-22.7881
-20.2267
-17.6387
-15.0511
-12.4938
-10.0056
-7.63684
-5.4408
-3.45649
-1.70364
-0.183139
1.11664
2.20495
3.09484
3.77634
4.25654
4.55982
4.65764
4.57963
4.52238
4.57672
4.52394
4.46529
4.32131
3.98821
3.37121
2.39017
0.976937
-0.937494
-3.46549
-6.74435
-10.8906
-15.9183
-21.7543
-28.1667
-34.7163
-40.9984
-46.6663
-50.995
-52.8535
-51.7547
-46.7091
-38.9451
-30.2056
-21.5211
-13.4872
-6.37157
-0.330739
4.3677
7.8708
9.60197
9.53542
8.7121
7.67195
6.66728
5.81876
5.18077
4.76944
4.59521
4.67459
5.00617
5.57374
6.34761
7.28556
8.35482
9.53798
10.824
12.1809
13.5368
14.8228
16.0257
17.1687
18.2408
19.1939
19.9663
20.4777
20.6365
20.3524
19.5506
18.1833
16.2411
13.7745
10.8999
7.87187
4.93491
2.71352
0.771274
0.526863
-59.0998
-51.4234
-46.7684
-44.339
-42.0087
-39.5695
-37.2306
-34.9319
-32.5986
-30.2216
-27.802
-25.3376
-22.8257
-20.2691
-17.6862
-15.1041
-12.5523
-10.0688
-7.70434
-5.51357
-3.5361
-1.79143
-0.279817
1.01082
2.0899
2.97068
3.64284
4.11887
4.42782
4.53027
4.48139
4.49718
4.51063
4.44198
4.36297
4.1946
3.83614
3.1938
2.18747
0.74814
-1.19411
-3.7538
-7.06792
-11.2445
-16.2795
-22.1043
-28.5039
-35.0168
-41.2433
-46.8819
-51.2107
-53.0918
-52.0685
-47.0899
-39.4236
-30.8017
-22.219
-14.2718
-7.2435
-1.28086
3.36966
6.80977
8.53669
8.6816
8.09113
7.22049
6.33006
5.55503
4.96397
4.58147
4.42506
4.51787
4.8589
5.43095
6.20407
7.13675
8.19692
9.36584
10.6295
11.9541
13.2703
14.5181
15.6909
16.8057
17.8412
18.7453
19.4529
19.883
19.9455
19.553
18.6349
17.1487
15.0926
12.5219
9.57243
6.49373
3.64539
1.5316
0.349413
-0.344716
-58.9403
-51.3274
-46.7422
-44.3413
-42.0197
-39.5885
-37.2534
-34.955
-32.6219
-30.2465
-27.8317
-25.3739
-22.8681
-20.3166
-17.7386
-15.1621
-12.6164
-10.1386
-7.77951
-5.5951
-3.62549
-1.88994
-0.38821
0.892282
1.96176
2.83411
3.4987
3.97385
4.29062
4.39723
4.37531
4.44437
4.4283
4.34679
4.24507
4.05029
3.66508
2.99707
1.96623
0.502725
-1.46433
-4.0523
-7.39778
-11.5978
-16.6295
-22.4329
-28.8139
-35.2813
-41.4472
-47.0659
-51.392
-53.2809
-52.2937
-47.3617
-39.8092
-31.3317
-22.8723
-15.0285
-8.09512
-2.20942
2.41703
5.77147
7.51057
7.83995
7.45147
6.73853
5.95993
5.26091
4.72056
4.37006
4.23399
4.34242
4.69433
5.27198
6.04468
6.97151
8.021
9.17332
10.4122
11.7032
12.9801
14.1909
15.3338
16.4184
17.4149
18.2683
18.9105
19.2599
19.2271
18.7268
17.6922
16.085
13.9112
11.23
8.19602
5.05271
2.28222
0.301551
-0.110323
-1.12157
-58.7831
-51.2293
-46.718
-44.3465
-42.0338
-39.6108
-37.2795
-34.9811
-32.6479
-30.2749
-27.8656
-25.4149
-22.9154
-20.3691
-17.7959
-15.225
-12.6856
-10.2141
-7.86147
-5.68445
-3.72354
-1.99794
-0.506997
0.762681
1.82273
2.68771
3.34691
3.82448
4.14755
4.25636
4.26182
4.35652
4.3308
4.23852
4.11296
3.89007
3.47711
2.78358
1.72958
0.244573
-1.74375
-4.35613
-7.72769
-11.943
-16.9624
-22.736
-29.089
-35.4989
-41.6011
-47.2169
-51.5373
-53.4238
-52.4227
-47.5147
-40.0908
-31.7804
-23.4616
-15.733
-8.90316
-3.07445
1.50181
4.76306
6.52532
7.01181
6.79931
6.2319
5.56152
4.93971
4.45278
4.13687
4.02358
4.14981
4.51363
5.09788
5.87045
6.79095
7.82843
8.96225
10.1747
11.4312
12.6699
13.8451
14.9578
16.0105
16.9664
17.7679
18.345
18.6147
18.4881
17.8812
16.7304
15.0012
12.7068
9.90835
6.77748
3.5484
0.831869
-0.981804
-0.623589
-1.76481
-58.5972
-51.1262
-46.6949
-44.3534
-42.0498
-39.6353
-37.3078
-35.0088
-32.6755
-30.3056
-27.9027
-25.4595
-22.967
-20.4262
-17.8578
-15.2923
-12.7593
-10.2948
-7.94929
-5.78047
-3.829
-2.1141
-0.634679
0.623922
1.67505
2.53404
3.19026
3.67113
3.99628
4.10723
4.14121
4.24554
4.21822
4.11704
3.96821
3.71603
3.27457
2.55599
1.48062
-0.0226443
-2.02851
-4.66078
-8.05188
-12.2749
-17.2759
-23.0083
-29.3184
-35.6626
-41.7038
-47.3392
-51.6447
-53.5269
-52.4517
-47.544
-40.262
-32.1368
-23.9714
-16.3649
-9.64137
-3.86045
0.615998
3.79483
5.5798
6.19909
6.14015
5.70613
5.13953
4.59501
4.16316
3.88377
3.79573
3.94202
4.31828
4.90996
5.68268
6.59647
7.62086
8.7347
9.91938
11.1413
12.343
13.4838
14.5661
15.5856
16.4998
17.249
17.7615
17.9529
17.7342
17.0221
15.7554
13.9035
11.4857
8.56332
5.31962
1.9736
-0.729672
-2.33334
-1.2022
-2.21052
-58.3757
-51.0146
-46.6705
-44.3596
-42.066
-39.661
-37.3377
-35.0384
-32.7054
-30.3388
-27.9416
-25.5055
-23.0205
-20.4861
-17.9232
-15.3635
-12.837
-10.3796
-8.0419
-5.88193
-3.94056
-2.23705
-0.769594
0.477931
1.52094
2.37558
3.02956
3.51166
3.83612
3.95111
4.0135
4.12039
4.09222
3.98232
3.81177
3.53051
3.05998
2.317
1.22246
-0.295713
-2.31529
-4.96178
-8.3655
-12.5911
-17.5665
-23.2417
-29.4979
-35.7824
-41.7633
-47.4359
-51.7084
-53.5866
-52.3741
-47.4474
-40.3203
-32.3932
-24.3876
-16.9133
-10.2758
-4.58556
-0.229727
2.87092
4.67298
5.40382
5.47876
5.16633
4.69854
4.23036
3.85413
3.61243
3.55205
3.72111
4.10972
4.70954
5.48263
6.38947
7.39997
8.49275
9.6489
10.8363
12.0025
13.1103
14.1619
15.1472
16.0191
16.7162
17.1649
17.2796
16.9703
16.154
14.7716
12.7963
10.2523
7.20001
3.82497
0.31938
-2.43177
-3.77891
-1.89211
-2.24146
-58.1497
-50.9032
-46.6498
-44.3687
-42.0849
-39.6893
-37.37
-35.0704
-32.7388
-30.3762
-27.9843
-25.5545
-23.0763
-20.5485
-17.9915
-15.4376
-12.9177
-10.4677
-8.13815
-5.98755
-4.05689
-2.36533
-0.910067
0.326598
1.36265
2.2134
2.86307
3.34516
3.66841
3.78943
3.8799
3.98631
3.95597
3.83498
3.64357
3.33517
2.83609
2.0695
0.95799
-0.572083
-2.6011
-5.25482
-8.66551
-12.89
-17.8279
-23.4309
-29.6384
-35.8678
-41.7557
-47.4781
-51.7168
-53.5837
-52.1777
-47.2256
-40.2651
-32.5436
-24.7027
-17.3547
-10.8047
-5.25741
-1.02795
1.99197
3.80421
4.62787
4.81921
4.61713
4.24276
3.84908
3.52801
3.32439
3.29341
3.48818
3.88966
4.49798
5.2717
6.17146
7.16757
8.23859
9.36579
10.5191
11.6511
12.7274
13.7482
14.6986
15.5281
16.1736
16.5599
16.5995
16.201
15.2812
13.7828
11.6831
9.01128
5.82598
2.3025
-1.41265
-4.28712
-5.33114
-2.79767
-1.92322
-57.9193
-50.7817
-46.6249
-44.3758
-42.1029
-39.7177
-37.4028
-35.1042
-32.7753
-30.417
-28.0301
-25.606
-23.1341
-20.6127
-18.0618
-15.5139
-13.0005
-10.5579
-8.23685
-6.0961
-4.17671
-2.49751
-1.05449
0.171972
1.20145
2.04586
2.68965
3.17277
3.49473
3.62426
3.74329
3.84735
3.81249
3.67721
3.46337
3.12952
2.6047
1.81662
0.690027
-0.849598
-2.88302
-5.5366
-8.95071
-13.1681
-18.0519
-23.5799
-29.7515
-35.889
-41.618
-47.4467
-51.6745
-53.5026
-51.8513
-46.8818
-40.0986
-32.5833
-24.9055
-17.6656
-11.2447
-5.87348
-1.77799
1.15748
2.9729
3.8728
4.16496
4.06264
3.77601
3.45423
3.18695
3.02111
3.02046
3.24315
3.65953
4.27667
5.0513
5.94405
6.92553
7.97448
9.07263
10.1921
11.2913
12.3375
13.3277
14.2429
15.0304
15.6253
15.9507
15.9171
15.4308
14.4077
12.7926
10.5682
7.76945
4.45684
0.781927
-3.1707
-6.18316
-6.70785
-3.694
-2.15822
-57.6942
-50.6604
-46.6019
-44.3841
-42.1223
-39.7477
-37.4377
-35.1409
-32.8152
-30.4613
-28.0791
-25.66
-23.1937
-20.6782
-18.1332
-15.5913
-13.0843
-10.6492
-8.33684
-6.20641
-4.29879
-2.6322
-1.20115
0.0154029
1.03611
1.87132
2.51053
2.99595
3.31682
3.45783
3.60545
3.7067
3.66441
3.51181
3.2728
2.91214
2.36413
1.55921
0.420713
-1.12572
-3.1579
-5.80556
-9.22095
-13.4197
-18.2332
-23.7001
-29.8327
-35.7966
-41.3537
-47.4475
-51.6679
-53.3497
-51.4034
-46.4276
-39.817
-32.4988
-24.9726
-17.8474
-11.6073
-6.4349
-2.48151
0.366618
2.17831
3.13986
3.51893
3.50642
3.30165
3.04854
2.833
2.70403
2.73453
2.98654
3.42043
4.04703
4.82296
5.70891
6.67582
7.70271
8.77203
9.85843
10.9255
11.9428
12.903
13.7833
14.5294
15.0751
15.3416
15.2366
14.6638
13.5374
11.8047
9.45685
6.53934
3.12735
-0.649073
-4.73221
-7.63033
-7.30803
-4.39087
-3.27784
-57.4514
-50.5388
-46.581
-44.3925
-42.1413
-39.7772
-37.4729
-35.1792
-32.8574
-30.5082
-28.1307
-25.7163
-23.2546
-20.7443
-18.2049
-15.6687
-13.168
-10.7405
-8.43707
-6.31741
-4.42196
-2.76799
-1.34867
-0.143909
0.864744
1.69062
2.32753
2.81599
3.13646
3.29174
3.46638
3.56651
3.51377
3.34102
3.07484
2.68467
2.11216
1.2927
0.14725
-1.39937
-3.42312
-6.06174
-9.47533
-13.6378
-18.373
-23.8028
-29.8653
-35.584
-41.0627
-47.5591
-51.7316
-53.0899
-50.808
-45.8407
-39.3949
-32.2661
-24.8927
-17.9192
-11.903
-6.9458
-3.14064
-0.381741
1.41958
2.42996
2.88348
2.95154
2.82264
2.63448
2.46805
2.37466
2.43738
2.71973
3.17363
3.81052
4.58823
5.46774
6.4204
7.42559
8.46661
9.52087
10.5567
11.5457
12.4768
13.3226
14.0284
14.5265
14.7362
14.5621
13.904
12.6742
10.8238
8.35757
5.345
1.91296
-1.7759
-5.60781
-7.98483
-7.22058
-4.74537
-4.04952
-57.1834
-50.413
-46.5597
-44.3993
-42.1591
-39.8067
-37.5089
-35.218
-32.8995
-30.5547
-28.1824
-25.7729
-23.3158
-20.8102
-18.2759
-15.7451
-13.2506
-10.8306
-8.53661
-6.42809
-4.545
-2.90363
-1.49744
-0.30808
0.687616
1.5056
2.14219
2.63399
2.95507
3.12735
3.32763
3.42775
3.36175
3.16664
2.87187
2.45066
1.85141
1.01494
-0.136858
-1.67647
-3.68186
-6.3073
-9.71055
-13.8167
-18.4779
-23.8904
-29.8293
-35.2793
-40.7959
-47.5495
-51.5988
-52.6007
-49.9969
-45.0686
-38.8075
-31.8789
-24.6784
-17.9029
-12.1428
-7.41076
-3.75756
-1.089
0.695695
1.74373
2.26055
2.40057
2.34156
2.21434
2.09411
2.03507
2.13149
2.4443
2.92055
3.56869
4.34872
5.22231
6.16127
7.1454
8.15893
9.18231
10.1877
11.1491
12.0515
12.8637
13.5306
13.983
14.1384
13.8975
13.1556
11.8223
9.85554
7.28381
4.23016
0.948957
-2.3198
-5.5469
-7.29798
-6.52939
-4.50678
-4.14503
-56.9135
-50.2887
-46.5416
-44.4072
-42.1776
-39.8376
-37.5474
-35.2595
-32.9437
-30.6024
-28.2342
-25.8291
-23.3762
-20.8747
-18.3449
-15.8192
-13.3309
-10.9189
-8.63457
-6.53751
-4.66679
-3.03907
-1.64966
-0.477382
0.506441
1.31786
1.9557
2.45086
2.77352
2.96546
3.1912
3.29041
3.20857
2.98988
2.66585
2.21282
1.5857
0.729713
-0.430559
-1.96081
-3.94316
-6.54968
-9.92345
-13.9531
-18.5529
-23.9495
-29.7058
-34.8965
-40.494
-47.2404
-51.0894
-51.7024
-48.9323
-44.1172
-38.067
-31.3504
-24.3517
-17.8183
-12.3365
-7.83392
-4.33448
-1.75683
0.00552263
1.08149
1.65158
1.8556
1.86068
1.79035
1.71354
1.68765
1.81921
2.1623
2.66271
3.32312
4.10605
4.97435
5.9004
6.86434
7.85146
8.8454
9.82135
10.7555
11.6298
12.4094
13.0389
13.448
13.5519
13.2468
12.4229
10.9863
8.90791
6.2571
3.26203
0.35994
-2.29372
-4.84756
-6.11892
-5.42612
-4.15573
-4.11596
-56.6425
-50.1589
-46.5213
-44.4129
-42.1948
-39.8686
-37.587
-35.3023
-32.9892
-30.6507
-28.2857
-25.8842
-23.4347
-20.9366
-18.4109
-15.8902
-13.4084
-11.0046
-8.73017
-6.64471
-4.78691
-3.17624
-1.8061
-0.650206
0.322769
1.12872
1.76898
2.2673
2.59236
2.80595
3.05666
3.15317
3.05353
2.81116
2.45826
1.97354
1.31774
0.440305
-0.729109
-2.24861
-4.20846
-6.79206
-10.1131
-14.0476
-18.5967
-23.958
-29.4862
-34.4545
-40.1139
-46.6445
-50.1431
-50.4205
-47.6661
-43.0227
-37.1982
-30.7017
-23.9354
-17.6821
-12.4918
-8.21885
-4.8736
-2.38705
-0.652136
0.443289
1.05766
1.31832
1.38198
1.36471
1.32899
1.33519
1.50286
1.87612
2.40174
3.07539
3.86181
4.72553
5.63963
6.5845
7.54664
8.5127
9.46022
10.3675
11.2142
11.9625
12.5565
12.9248
12.9802
12.614
11.7102
10.1718
7.99256
5.31
2.50029
0.132745
-1.84186
-3.93014
-5.02845
-4.45204
-3.87335
-4.13179
-56.3785
-50.0303
-46.5026
-44.4184
-42.2124
-39.9009
-37.6281
-35.3466
-33.0359
-30.6993
-28.3363
-25.9371
-23.4901
-20.9948
-18.4729
-15.9573
-13.4823
-11.0868
-8.82291
-6.74879
-4.90682
-3.31637
-1.96545
-0.825
0.137813
0.939182
1.58273
2.08385
2.41196
2.64811
2.92128
3.01312
2.89521
2.63031
2.24989
1.73471
1.0502
0.149798
-1.02901
-2.53724
-4.47602
-7.03023
-10.276
-14.103
-18.6047
-23.8943
-29.1692
-33.9693
-39.6409
-45.805
-48.9345
-48.9401
-46.2706
-41.8226
-36.2237
-29.9525
-23.4496
-17.5076
-12.6148
-8.56881
-5.37716
-2.9816
-1.27854
-0.171054
0.479525
0.790054
0.907179
0.939444
0.943018
0.981284
1.18657
1.58827
2.13937
2.82702
3.6175
4.47745
5.38066
6.30783
7.24674
8.18652
9.10663
9.98756
10.8073
11.5255
12.086
12.4165
12.4269
12.0034
11.0224
9.38574
7.12717
4.47967
1.95469
0.255099
-1.27641
-3.12584
-4.1158
-3.72094
-3.55896
-4.0703
-56.1062
-49.9044
-46.486
-44.423
-42.2293
-39.9335
-37.6698
-35.3919
-33.0836
-30.7481
-28.3855
-25.9871
-23.5415
-21.0484
-18.5302
-16.02
-13.5518
-11.1652
-8.91162
-6.85045
-5.02818
-3.45863
-2.12627
-1.00058
-0.0474918
0.750028
1.39744
1.9009
2.23253
2.49103
2.78216
2.86682
2.73206
2.44668
2.04091
1.4974
0.785118
-0.138431
-1.32628
-2.82426
-4.74398
-7.25995
-10.4116
-14.1257
-18.5694
-23.7396
-28.7569
-33.4425
-39.0768
-44.7989
-47.5858
-47.3808
-44.8001
-40.5396
-35.1549
-29.1178
-22.9122
-17.3063
-12.7107
-8.88694
-5.84741
-3.54246
-1.87499
-0.761924
-0.082393
0.271846
0.437722
0.516018
0.557146
0.629154
0.875743
1.30155
1.8774
2.57943
3.37449
4.23151
5.12502
6.03617
6.95385
7.86856
8.76234
9.61777
10.4111
11.101
11.6304
11.9263
11.8958
11.4194
10.3651
8.63784
6.33525
3.78053
1.69001
0.622826
-0.811309
-2.40355
-3.30377
-3.08078
-3.1686
-3.89934
-55.8184
-49.7782
-46.4699
-44.4259
-42.2447
-39.9641
-37.7091
-35.4349
-33.1297
-30.7952
-28.432
-26.033
-23.5878
-21.0965
-18.5822
-16.0777
-13.6167
-11.2391
-8.99544
-6.95142
-5.15077
-3.60178
-2.28746
-1.17607
-0.23243
0.56182
1.2134
1.71864
2.05398
2.33369
2.6375
2.71205
2.5627
2.25943
1.83106
1.262
0.523758
-0.421717
-1.6174
-3.10657
-5.00825
-7.47647
-10.5218
-14.1217
-18.4837
-23.4808
-28.2466
-32.8586
-38.4214
-43.6883
-46.1531
-45.7841
-43.2693
-39.1729
-33.9948
-28.2135
-22.3408
-17.088
-12.784
-9.17633
-6.28659
-4.07157
-2.44281
-1.32987
-0.6279
-0.235521
-0.0252946
0.0953309
0.172417
0.28138
0.575744
1.01916
1.61759
2.33388
3.13399
3.98892
4.87407
5.7711
6.66959
7.56023
8.42866
9.25974
10.0279
10.6912
11.1923
11.4573
11.3902
10.8664
9.74447
7.94138
5.63522
3.24942
1.81711
0.957866
-0.370229
-1.7438
-2.56979
-2.47443
-2.75391
-3.672
-55.5329
-49.6547
-46.456
-44.4292
-42.2607
-39.9951
-37.7477
-35.4764
-33.1735
-30.8392
-28.4743
-26.0735
-23.6281
-21.1387
-18.6285
-16.1298
-13.6768
-11.3067
-9.07571
-7.0524
-5.27364
-3.74488
-2.44822
-1.35082
-0.416464
0.374942
1.03071
1.53702
1.87601
2.17515
2.48619
2.5478
2.38604
2.06768
1.61982
1.02838
0.266746
-0.698212
-1.89992
-3.38138
-5.26418
-7.67577
-10.6096
-14.0953
-18.344
-23.1188
-27.6414
-32.191
-37.6287
-42.4536
-44.6241
-44.1261
-41.6582
-37.713
-32.7529
-27.2621
-21.7538
-16.8609
-12.8388
-9.44
-6.69689
-4.57087
-2.98336
-1.87556
-1.15701
-0.731509
-0.481102
-0.322027
-0.210537
-0.0621215
0.284934
0.743788
1.36144
2.09145
2.89701
3.75072
4.62899
5.5138
6.39465
7.26258
8.10711
8.91498
9.65952
10.2984
10.7741
11.0123
10.9138
10.3494
9.16775
7.31142
5.02819
2.98888
2.12372
1.25163
0.0614142
-1.15392
-1.92106
-1.92605
-2.35985
-3.41638
-55.25
-49.5295
-46.4416
-44.4314
-42.2764
-40.0258
-37.7854
-35.5158
-33.2143
-30.879
-28.5111
-26.1078
-23.6619
-21.1747
-18.6687
-16.1764
-13.7302
-11.3679
-9.15411
-7.15293
-5.39603
-3.88728
-2.60799
-1.52436
-0.5992
0.189625
0.8493
1.35582
1.69819
2.01452
2.32746
2.37354
2.20139
1.87076
1.40662
0.796104
0.0141824
-0.966917
-2.17238
-3.6464
-5.50763
-7.85549
-10.6784
-14.0498
-18.1528
-22.6691
-26.9561
-31.4206
-36.6515
-41.04
-42.9506
-42.3637
-39.9509
-36.1695
-31.4569
-26.2925
-21.1681
-16.6315
-12.8785
-9.68083
-7.08042
-5.0422
-3.498
-2.39975
-1.66995
-1.21584
-0.929068
-0.735546
-0.5926
-0.405175
-0.00553706
0.475045
1.10996
1.853
2.66437
3.51782
4.39066
5.26485
6.12932
6.97608
7.79855
8.58477
9.30752
9.9245
10.3781
10.5942
10.47
9.87312
8.64373
6.75542
4.5507
3.08689
2.40369
1.55627
0.473618
-0.620783
-1.34983
-1.44542
-1.99194
-3.12678
-54.9759
-49.4065
-46.4279
-44.433
-42.2919
-40.0563
-37.822
-35.5531
-33.2512
-30.9132
-28.5413
-26.135
-23.689
-21.2042
-18.7027
-16.2162
-13.7745
-11.4242
-9.23089
-7.25255
-5.51747
-4.0285
-2.76636
-1.69637
-0.780374
0.0059626
0.668976
1.17471
1.52006
1.85105
2.16087
2.18933
2.00856
1.66829
1.191
0.564673
-0.234155
-1.22761
-2.43436
-3.90015
-5.73585
-8.01505
-10.7308
-13.9874
-17.9188
-22.1588
-26.2164
-30.5527
-35.491
-39.4423
-41.1224
-40.4955
-38.1698
-34.5809
-30.1474
-25.3339
-20.5973
-16.4044
-12.9063
-9.90155
-7.43921
-5.48738
-3.98813
-2.90327
-2.16707
-1.68836
-1.36849
-1.14477
-0.975018
-0.749915
-0.302393
0.210329
0.863483
1.61915
2.43675
3.29093
4.15956
5.02426
5.87348
6.70109
7.50366
8.27014
8.97328
9.57111
10.0064
10.2054
10.0619
9.44273
8.18075
6.26682
4.29122
3.35217
2.67811
1.86577
0.869608
-0.127784
-0.836238
-1.01907
-1.64587
-2.80025
-54.7017
-49.2891
-46.4161
-44.4342
-42.3073
-40.0863
-37.8577
-35.5878
-33.2835
-30.9409
-28.5641
-26.1549
-23.7092
-21.2268
-18.73
-16.2461
-13.8105
-11.4768
-9.30604
-7.35098
-5.63762
-4.16824
-2.92307
-1.86665
-0.959831
-0.176059
0.489492
0.993391
1.34124
1.68416
1.98647
1.99585
1.8079
1.4603
0.972714
0.33367
-0.478599
-1.48059
-2.68617
-4.14208
-5.94779
-8.15552
-10.7693
-13.9096
-17.6533
-21.6168
-25.4525
-29.6163
-34.2051
-37.7323
-39.2023
-38.5778
-36.3716
-32.9993
-28.8642
-24.4087
-20.05
-16.1828
-12.925
-10.1046
-7.77519
-5.90813
-4.45513
-3.38693
-2.64879
-2.14903
-1.79885
-1.54977
-1.35709
-1.09215
-0.606283
-0.0521051
0.622
1.3904
2.21479
3.07039
3.93549
4.79177
5.62722
6.43795
7.22294
7.97184
8.65788
9.2396
9.6607
9.84798
9.6922
9.06376
7.78085
5.85604
4.33337
3.62472
2.96737
2.17127
1.25232
0.330518
-0.366737
-0.635931
-1.32658
-2.44695
-54.4203
-49.1745
-46.4046
-44.4329
-42.3202
-40.1135
-37.8904
-35.6188
-33.3101
-30.961
-28.5789
-26.1673
-23.722
-21.2429
-18.7478
-16.2649
-13.8401
-11.5264
-9.37961
-7.44807
-5.7563
-4.30628
-3.07796
-2.03511
-1.13752
-0.356528
0.310608
0.811682
1.16148
1.51354
1.80482
1.79441
1.60027
1.24723
0.751857
0.102896
-0.719437
-1.72635
-2.92849
-4.37236
-6.14378
-8.27895
-10.7956
-13.818
-17.3669
-21.0662
-24.689
-28.6471
-32.8663
-36.0063
-37.2847
-36.6856
-34.6155
-31.4693
-27.6355
-23.5307
-19.5312
-15.9689
-12.937
-10.2923
-8.09017
-6.3061
-4.90037
-3.85158
-3.11559
-2.59791
-2.21999
-1.9501
-1.7361
-1.42545
-0.913572
-0.313259
0.385309
1.16714
1.99884
2.85614
3.71814
4.56675
5.39035
6.18683
6.95666
7.6904
8.36208
8.93098
9.34231
9.52349
9.36336
8.7415
7.43254
5.57714
4.55503
3.90819
3.25878
2.4776
1.62164
0.753984
0.0624188
-0.293939
-1.04186
-2.07996
-54.1453
-49.0647
-46.3945
-44.4302
-42.3312
-40.1375
-37.919
-35.6444
-33.3295
-30.9729
-28.5857
-26.1721
-23.7277
-21.2501
-18.753
-16.2743
-13.8648
-11.5737
-9.45171
-7.54377
-5.87338
-4.4425
-3.23095
-2.20174
-1.31345
-0.535569
0.132129
0.629544
0.980716
1.33918
1.61698
1.58679
1.38701
1.02993
0.528826
-0.12757
-0.95681
-1.96542
-3.16206
-4.59147
-6.32492
-8.38771
-10.8113
-13.7138
-17.0679
-20.5219
-23.9414
-27.6752
-31.5313
-34.3318
-35.4438
-34.8754
-32.942
-30.0177
-26.4763
-22.7061
-19.0427
-15.7641
-12.9445
-10.4665
-8.38585
-6.68284
-5.32514
-4.29807
-3.56796
-3.03529
-2.63187
-2.34463
-2.10946
-1.74394
-1.21744
-0.572709
0.153268
0.94967
1.78892
2.64785
3.50705
4.34912
5.16307
5.94776
6.70491
7.42607
8.08632
8.64586
9.05217
9.23281
9.07771
8.47814
7.11895
5.52148
4.82067
4.20334
3.54144
2.78495
1.97514
1.14449
0.452593
0.00799088
-0.792483
-1.70923
-53.8765
-48.9567
-46.3846
-44.4262
-42.3405
-40.1579
-37.9425
-35.6633
-33.3407
-30.9762
-28.5844
-26.1692
-23.7253
-21.2441
-18.7454
-16.2762
-13.8859
-11.6192
-9.52245
-7.63808
-5.98881
-4.57683
-3.38203
-2.36656
-1.48768
-0.713309
-0.0460659
0.447106
0.799095
1.16132
1.42429
1.37511
1.16966
0.809495
0.304302
-0.357382
-1.19067
-2.19822
-3.38751
-4.79998
-6.49258
-8.48404
-10.8177
-13.5986
-16.7625
-19.9914
-23.2177
-26.7221
-30.2378
-32.7444
-33.7172
-33.1751
-31.3703
-28.6567
-25.3926
-21.9366
-18.5853
-15.5696
-12.9491
-10.6289
-8.66378
-7.03978
-5.73067
-4.7272
-4.00643
-3.4615
-3.0347
-2.73427
-2.47743
-2.03931
-1.5102
-0.828657
-0.0739769
0.738155
1.58466
2.44524
3.30231
4.13911
4.94538
5.72063
6.46762
7.17886
7.83074
8.38447
8.79068
8.97603
8.83783
8.26713
6.847
5.65185
5.10863
4.49543
3.81881
3.09008
2.31138
1.50526
0.806102
0.273939
-0.571804
-1.34297
-53.6174
-48.852
-46.3749
-44.4207
-42.3482
-40.1745
-37.9598
-35.6741
-33.343
-30.9709
-28.5748
-26.1586
-23.7105
-21.2227
-18.7274
-16.2726
-13.9042
-11.6631
-9.59198
-7.73101
-6.10256
-4.70924
-3.53123
-2.52967
-1.66026
-0.889841
-0.223997
0.264656
0.616923
0.980403
1.22817
1.16151
0.949896
0.587178
0.0791561
-0.58598
-1.42081
-2.42496
-3.60523
-4.9984
-6.6481
-8.56975
-10.8155
-13.4743
-16.455
-19.4781
-22.5209
-25.8001
-29.0079
-31.2626
-32.1155
-31.5926
-29.9053
-27.3885
-24.3846
-21.2215
-18.1586
-15.3864
-12.9524
-10.7809
-8.9254
-7.37828
-6.11811
-5.13979
-4.43162
-3.87697
-3.42938
-3.12304
-2.84514
-2.31985
-1.78381
-1.07851
-0.296102
0.531872
1.38565
2.24821
3.10379
3.93677
4.73722
5.50527
6.24456
6.94857
7.59519
8.14665
8.55771
8.75258
8.64596
8.08988
6.67031
5.86746
5.40322
4.77002
4.09421
3.38802
2.62845
1.8371
1.12443
0.5087
-0.37079
-0.989598
-53.3645
-48.7541
-46.3665
-44.414
-42.3543
-40.1867
-37.9701
-35.6761
-33.3362
-30.9569
-28.5574
-26.1372
-23.6791
-21.1878
-18.7014
-16.265
-13.9207
-11.7059
-9.66041
-7.82262
-6.21466
-4.83977
-3.6786
-2.6911
-1.83122
-1.0652
-0.401567
0.082596
0.434606
0.796973
1.02995
0.947938
0.729197
0.36422
-0.145658
-0.812677
-1.64689
-2.64571
-3.8154
-5.18711
-6.79263
-8.64625
-10.8057
-13.3425
-16.1488
-18.9831
-21.8518
-24.9157
-27.8507
-29.8926
-30.6359
-30.1252
-28.5445
-26.2109
-23.45
-20.5592
-17.7624
-15.2152
-12.9555
-10.9238
-9.17209
-7.69959
-6.48853
-5.53664
-4.84397
-4.28211
-3.81771
-3.5187
-3.22228
-2.60737
-2.04222
-1.32019
-0.512999
0.330182
1.19121
2.05642
2.91163
3.7421
4.53845
5.30143
6.03541
6.73484
7.37924
7.9319
8.35251
8.56154
8.50212
7.92568
6.62246
6.12533
5.68357
5.01988
4.3633
3.67226
2.92284
2.13791
1.40729
0.715771
-0.182068
-0.656996
-53.1104
-48.6609
-46.3575
-44.4049
-42.3579
-40.1937
-37.9724
-35.6687
-33.3202
-30.9342
-28.5306
-26.0997
-23.6312
-21.142
-18.6694
-16.2546
-13.9358
-11.7477
-9.72785
-7.91296
-6.32514
-4.96843
-3.8242
-2.8509
-2.00054
-1.23932
-0.578575
-0.0986199
0.252573
0.611514
0.830409
0.735536
0.508755
0.141727
-0.369221
-1.03676
-1.86853
-2.86042
-4.01808
-5.36644
-6.92713
-8.71453
-10.789
-13.2051
-15.8463
-18.5066
-21.2105
-24.0738
-26.7668
-28.627
-29.2696
-28.7662
-27.2826
-25.1198
-22.5859
-19.9477
-17.3961
-15.0566
-12.9593
-11.0587
-9.40515
-8.00491
-6.84292
-5.91839
-5.24378
-4.67771
-4.20113
-3.92898
-3.62092
-2.92471
-2.29797
-1.55315
-0.724924
0.132611
1.00149
1.87004
2.72583
3.55503
4.3489
5.1088
5.83977
6.53717
7.18225
7.73937
8.17368
8.40207
8.4023
7.76986
6.6757
6.39932
5.93096
5.24974
4.62017
3.93645
3.1905
2.40495
1.6542
0.897793
-0.00140174
-0.351147
-52.8666
-48.573
-46.3475
-44.3924
-42.3576
-40.1941
-37.9659
-35.6519
-33.2949
-30.9028
-28.4892
-26.0429
-23.5694
-21.0882
-18.6334
-16.2423
-13.9501
-11.7889
-9.79442
-8.0021
-6.43405
-5.09531
-3.96809
-3.00906
-2.16817
-1.4121
-0.754757
-0.27858
0.0711599
0.424322
0.6295
0.52402
0.289375
-0.0794152
-0.590732
-1.25758
-2.08535
-3.06899
-4.21326
-5.53666
-7.05233
-8.77534
-10.7661
-13.0639
-15.5493
-18.0484
-20.5968
-23.2753
-25.7524
-27.4505
-28.0065
-27.5077
-26.1135
-24.1107
-21.789
-19.3851
-17.059
-14.9109
-12.9645
-11.1864
-9.62582
-8.29538
-7.18216
-6.28573
-5.63148
-5.06519
-4.58054
-4.35326
-4.03446
-3.28199
-2.55879
-1.77945
-0.93217
-0.0606641
0.816416
1.68908
2.54638
3.37546
4.16838
4.92705
5.65718
6.35498
7.00339
7.56799
8.01923
8.27367
8.33494
7.6358
6.79627
6.66174
6.12778
5.46169
4.85792
4.17496
3.42779
2.6366
1.86596
1.05733
0.172125
-0.075749
-52.6328
-48.4885
-46.3361
-44.3765
-42.3525
-40.1868
-37.9501
-35.6255
-33.2606
-30.8593
-28.4278
-25.969
-23.4968
-21.0285
-18.5947
-16.2288
-13.9637
-11.8295
-9.86021
-8.09011
-6.54146
-5.22047
-4.1103
-3.16556
-2.334
-1.58338
-0.92984
-0.456961
-0.109384
0.23552
0.426815
0.312579
0.0715641
-0.29855
-0.809557
-1.4746
-2.29706
-3.27131
-4.40092
-5.69804
-7.16887
-8.82923
-10.7377
-12.9204
-15.2593
-17.6085
-20.0109
-22.519
-24.8029
-26.3526
-26.8364
-26.3422
-25.0314
-23.179
-21.0559
-18.8693
-16.7504
-14.7781
-12.9716
-11.3079
-9.8353
-8.57207
-7.50702
-6.63941
-6.00722
-5.44435
-4.95354
-4.77921
-4.43416
-3.67132
-2.82858
-2.00121
-1.13523
-0.249757
0.636006
1.51351
2.37317
3.20325
3.99665
4.75587
5.48717
6.1876
6.84171
7.41638
7.88685
8.17591
8.28158
7.5287
6.96551
6.89462
6.27407
5.65466
5.06917
4.38327
3.63217
2.83272
2.04465
1.19665
0.33654
0.167236
-52.4098
-48.4072
-46.3229
-44.3566
-42.3417
-40.1708
-37.9247
-35.5896
-33.216
-30.797
-28.3459
-25.8813
-23.4163
-20.965
-18.5542
-16.2146
-13.9769
-11.8697
-9.92531
-8.17706
-6.64745