/*--------------------------------*- C++ -*----------------------------------*\
| =========                 |                                                 |
| \\      /  F ield         | OpenFOAM: The Open Source CFD Toolbox           |
|  \\    /   O peration     | Version:  4.1                                   |
|   \\  /    A nd           | Web:      www.OpenFOAM.org                      |
|    \\/     M anipulation  |                                                 |
\*---------------------------------------------------------------------------*/
FoamFile
{
    version     2.0;
    format      ascii;
    class       surfaceScalarField;
    location    "500";
    object      phi;
}
// * * * * * * * * * * * * * * * * * * * * * * * * * * * * * * * * * * * * * //

dimensions      [0 3 -1 0 0 0 0];

internalField   nonuniform List<scalar> 
52920
(
2375.48
25.8024
2362.4
13.0785
2358.79
3.60812
2362.7
-3.90906
2373.7
-10.9968
2391.05
-17.3528
2413.22
-22.1713
2437.98
-24.7542
2462.44
-24.4602
2483.57
-21.1298
2498.67
-15.1031
2505.37
-6.69191
2501.44
3.93143
2485.07
16.3703
2454.98
30.0899
2410.44
44.5351
2351.48
58.9656
2278.9
72.5808
2194.04
84.8552
2098.29
95.7548
1992.59
105.704
1877.12
115.462
1751.39
125.735
1614.87
136.521
1467.48
147.388
1308.42
159.068
1134.44
173.981
940.708
193.729
720.638
220.072
482.032
238.608
261.467
220.569
89.643
171.83
55.9156
33.7376
123.028
-67.1069
250.156
-127.125
422.819
-172.66
633.205
-210.384
876.866
-243.659
1152.67
-275.803
1463.45
-310.782
1815.84
-352.382
2216.86
-401.021
2670.17
-453.315
3172.7
-502.526
3713.56
-540.855
4276.88
-563.324
4846.7
-569.824
5405.59
-558.881
5924.41
-518.823
6354.22
-429.806
6631.78
-277.567
6700.79
-69.0109
6537.95
162.843
6192.93
345.025
5735.99
456.935
5217.61
518.376
4665.35
552.268
4091.76
573.588
3498.2
593.564
2878.01
620.181
2208.13
669.887
1417.02
791.104
486.419
930.605
-339.773
826.193
-834.743
494.971
-1106.65
271.908
-1284.1
177.454
-1412.09
127.989
-1506.63
94.5328
-1574.18
67.5524
-1617.83
43.6501
-1639.77
21.9398
-1642.32
2.55685
-1627.42
-14.9066
-1596.14
-31.2746
-1548.81
-47.3313
-1484.71
-64.0959
-1402.46
-82.2497
-1300.32
-102.141
-1176.22
-124.106
-1027.98
-148.241
-851.757
-176.218
-650.046
-201.711
-380.708
-269.337
21.3214
-402.029
538.144
-516.823
1119.9
-581.755
1761.68
-641.78
2461.04
-699.36
3214.92
-753.877
4017.66
-802.743
4860.74
-843.077
5732.94
-872.207
6620.61
-887.669
7509.7
-889.087
8384.55
-874.852
9240.09
-855.541
10058.8
-818.719
10886
-827.139
-765.768
2412.12
51.1046
2401.9
23.3015
2401.5
4.01104
2407.96
-10.3716
2420.55
-23.5856
2438.22
-35.0247
2459.23
-43.1742
2481.34
-46.8673
2502.05
-45.1716
2519.03
-38.1019
2530.24
-26.3144
2533.43
-9.88625
2526.17
11.1919
2506.52
36.025
2473.12
63.4941
2425.14
92.5117
2362.49
121.617
2285.83
149.243
2196.29
174.394
2095.01
197.039
1982.72
217.994
1859.62
238.565
1725.6
259.759
1580.84
281.278
1425.57
302.663
1258.24
326.392
1074.53
357.693
869.276
398.986
640.204
449.145
408.014
470.8
216.889
411.698
89.1882
299.536
94.4826
28.4514
191.2
-163.821
340.532
-276.454
529.42
-361.545
751.624
-432.586
1003.25
-495.286
1283.14
-555.693
1593.27
-620.903
1938.17
-697.285
2321.97
-784.819
2745.24
-876.589
3202.38
-959.662
3680.87
-1019.35
4164
-1046.45
4636.08
-1041.9
5084.29
-1007.1
5494.3
-928.827
5843.92
-779.427
6096.17
-529.82
6194.25
-167.085
6084.24
272.85
5790.51
638.753
5375.74
871.703
4890.85
1003.27
4365.47
1077.64
3813.66
1125.4
3237.58
1169.64
2633.19
1224.58
1970.33
1332.75
1170.88
1590.55
304.512
1796.97
-343.759
1474.46
-712.365
863.577
-949.152
508.695
-1114.49
342.791
-1236.74
250.243
-1327.73
185.518
-1392.83
132.655
-1434.81
85.6286
-1455.65
42.7867
-1456.91
3.8148
-1439.5
-32.3225
-1403.85
-66.9247
-1349.77
-101.412
-1276.35
-137.509
-1182.23
-176.372
-1065.41
-218.961
-922.618
-266.897
-746.942
-323.917
-528.454
-394.705
-229.901
-500.264
158.456
-657.694
585.514
-829.087
1039.13
-970.437
1543.2
-1085.83
2099.64
-1198.22
2709.96
-1309.68
3373.85
-1417.76
4088.64
-1517.54
4848.77
-1603.21
5645.51
-1668.95
6466.74
-1708.9
7298.83
-1721.17
8125.49
-1701.51
8938.26
-1668.31
9718.75
-1599.21
10500.7
-1609.08
-1474.31
2438.12
74.7319
2430.48
30.9468
2432.66
1.83036
2441.16
-18.8726
2454.78
-37.2045
2471.97
-52.2161
2490.66
-61.8657
2508.66
-64.8611
2523.88
-60.3909
2534.68
-48.9012
2539.54
-31.1783
2536.28
-6.61995
2522.49
24.9835
2496.48
62.0322
2457.15
102.825
2403.83
145.833
2336.39
189.056
2255.22
230.416
2160.91
268.698
2053.94
304.013
1934.5
337.432
1802.8
370.273
1659.47
403.082
1505.68
435.074
1341.55
466.795
1164.17
503.77
968.355
553.51
751.377
615.966
522.341
678.183
315.889
677.254
168.693
558.896
79.5232
388.71
112.345
-4.36512
219.29
-270.763
370.179
-427.342
556.51
-547.875
772.889
-648.964
1015.31
-737.705
1281.74
-822.12
1572.33
-911.498
1889.39
-1014.34
2235.33
-1130.76
2610.41
-1251.66
3009.79
-1359.05
3422.29
-1431.84
3832.4
-1456.56
4225.48
-1434.99
4590.4
-1372.01
4917.99
-1256.41
5200.03
-1061.47
5421.56
-751.351
5538.21
-283.736
5477.73
333.334
5239.85
876.634
4876.18
1235.37
4435.14
1444.31
3946.79
1566
3425.82
1646.36
2876.53
1718.93
2292.68
1808.43
1624.01
2001.42
832.702
2381.86
125.154
2504.52
-310.809
1910.43
-594.031
1146.8
-812.928
727.592
-980.228
510.091
-1109.02
379.033
-1206.94
283.437
-1278.01
203.734
-1324.33
131.947
-1347.47
65.9252
-1348.69
5.03485
-1329.26
-51.7552
-1290.07
-106.112
-1231.15
-160.334
-1151.74
-216.915
-1050.42
-277.691
-924.791
-344.59
-770.487
-421.202
-580.009
-514.394
-341.065
-633.649
-43.3897
-797.939
295.968
-997.051
657.358
-1190.48
1048.43
-1361.51
1481.02
-1518.41
1957.01
-1674.22
2477.88
-1830.55
3044.33
-1984.21
3655.85
-2129.05
4309.78
-2257.13
5000.8
-2359.97
5720.09
-2428.2
6456.92
-2458
7196.7
-2441.29
7932.18
-2403.79
8643.82
-2310.85
9366.34
-2331.6
-2129.11
2452.2
94.8465
2447.94
35.2003
2452.65
-2.87461
2462.34
-28.5681
2475.35
-50.2051
2489.82
-66.6914
2503.82
-75.8671
2515.68
-76.7179
2524.14
-68.8536
2528.37
-53.1285
2526.99
-29.7983
2517.36
3.01825
2496.8
45.5368
2463.74
95.1003
2417.31
149.249
2357.22
205.926
2283.58
262.695
2196.71
317.286
2096.74
368.67
1983.4
417.355
1856.37
464.465
1716.1
510.545
1564.24
554.943
1402.47
596.839
1229.94
639.328
1042.33
691.384
835.829
760.01
614.786
837.011
402.316
890.654
234.402
845.169
127.292
666.008
62.5418
453.465
109.529
-51.3468
215.478
-376.71
360.334
-572.196
538.63
-726.168
745.597
-855.929
977
-969.107
1229.24
-1074.36
1499.92
-1182.18
1789.04
-1303.45
2098.21
-1439.93
2428.62
-1582.07
2777.35
-1707.77
3134.98
-1789.47
3487.26
-1808.83
3820.23
-1767.97
4123.18
-1674.95
4388.25
-1521.49
4613.48
-1286.7
4797.26
-935.126
4907.73
-394.204
4866.97
374.088
4663.35
1080.26
4339.7
1559.02
3938.83
1845.19
3487.64
2017.18
2999.99
2134.01
2481.04
2237.89
1912.61
2376.86
1236.45
2677.58
514.769
3103.54
5.35872
3013.93
-277.442
2193.23
-516.653
1386.01
-725.394
936.333
-894.404
679.101
-1027.67
512.302
-1129.9
385.66
-1204.09
277.926
-1251.94
179.801
-1275.02
89.005
-1274.37
4.38756
-1251.57
-74.5623
-1208.02
-149.658
-1144.12
-224.237
-1059.37
-301.659
-952.5
-384.562
-821.079
-476.012
-660.806
-581.473
-465.678
-709.522
-226.787
-872.539
55.1338
-1079.86
362.567
-1304.48
688.451
-1516.36
1040.24
-1713.3
1424.65
-1902.82
1843.29
-2092.86
2297.09
-2284.35
2786.55
-2473.68
3311.64
-2654.14
3871.11
-2816.61
4461.88
-2950.74
5077.74
-3044.06
5710.72
-3090.98
6348.14
-3078.71
6985.11
-3040.76
7601.72
-2927.46
8237.6
-2967.49
-2705.32
2451.65
110.082
2450.83
36.0158
2456.99
-9.02824
2465.94
-37.5199
2475.88
-60.1426
2485.2
-76.0118
2492.53
-83.2037
2497
-81.1804
2498.23
-70.0894
2496.12
-51.0168
2489.2
-22.8791
2474.39
17.8368
2448.79
71.1315
2410.55
133.338
2358.62
201.183
2292.64
271.903
2212.84
342.498
2119.57
410.562
2012.76
475.476
1891.83
538.289
1756.47
599.82
1607.98
659.039
1448.94
713.989
1280.54
765.235
1100.19
819.677
903.626
887.952
691.934
971.704
479.109
1049.84
296.757
1073.01
168.963
972.965
91.8017
743.172
42.0551
503.216
95.298
-104.586
194.636
-476.046
330.102
-707.661
498.187
-894.252
694.523
-1052.27
914.181
-1188.76
1151.67
-1311.85
1402.36
-1432.87
1664.68
-1565.78
1939.85
-1715.1
2230.02
-1872.24
2534.07
-2011.82
2844.49
-2099.9
3148.47
-2112.81
3432.85
-2052.35
3686.99
-1929.09
3902.86
-1737.36
4081.49
-1465.33
4230.12
-1083.75
4326.29
-490.375
4288.71
411.671
4102.7
1266.26
3807.37
1854.34
3440.06
2212.49
3022.95
2434.3
2568.36
2588.6
2078.04
2728.21
1516.71
2938.18
853.618
3340.68
260.23
3696.93
-65.9481
3340.11
-262.672
2389.95
-476.103
1599.44
-673.603
1133.83
-839.456
844.955
-972.751
645.597
-1075.63
488.544
-1149.98
352.276
-1197.09
226.91
-1218.57
110.484
-1215.11
0.930418
-1188.6
-101.074
-1140.85
-197.404
-1072.53
-292.565
-983.395
-390.791
-872.415
-495.542
-737.354
-611.072
-574.398
-744.43
-379.197
-904.723
-147.358
-1104.38
115.372
-1342.59
397.114
-1586.23
696.781
-1816.03
1019.3
-2035.81
1368.15
-2251.67
1743.97
-2468.68
2146.57
-2686.94
2575.42
-2902.53
3029.95
-3108.67
3509.15
-3295.8
4010.91
-3452.5
4530.51
-3563.67
5061.58
-3622.04
5592.51
-3609.64
6119.93
-3568.19
6624.38
-3431.9
7151.04
-3494.15
-3179.24
2425.02
119.947
2427.84
33.2013
2435.26
-16.4543
2443.28
-45.5311
2450.23
-67.0931
2454.94
-80.7218
2456.63
-84.8896
2454.98
-79.5389
2450.17
-65.2729
2442.17
-43.0226
2429.27
-9.97248
2408.64
38.4703
2378.08
101.691
2335.89
175.528
2280.61
256.464
2211.11
341.406
2126.84
426.768
2027.72
509.684
1913.61
589.582
1784.25
667.654
1640.34
743.729
1484.63
814.753
1320.04
878.572
1146.12
939.162
958.925
1006.87
757.027
1089.85
548.956
1179.78
356.298
1242.5
209.349
1219.96
115.556
1066.76
59.4859
799.246
21.6031
541.104
74.5631
-157.542
164.319
-565.799
288.758
-832.099
445.309
-1050.8
629.686
-1236.64
836.14
-1395.22
1057.97
-1533.68
1289.53
-1664.42
1528.2
-1804.45
1774.19
-1961.09
2029.5
-2127.55
2294.27
-2276.6
2563.21
-2368.84
2825.6
-2375.2
3069.49
-2296.24
3284.15
-2143.75
3460.42
-1913.63
3600.38
-1605.29
3717.28
-1200.65
3794.96
-568.057
3749.59
457.037
3569.93
1445.93
3294.6
2129.67
2955.38
2551.71
2569.11
2820.58
2145.99
3011.71
1678.52
3195.68
1121.81
3494.89
510.495
3951.99
75.8551
4131.57
-112.923
3528.89
-267.477
2544.5
-459.995
1791.96
-644.057
1317.9
-803.238
1004.14
-933.362
775.721
-1034.23
589.414
-1106.62
424.66
-1151.43
271.72
-1170.32
129.382
-1163.41
-5.97937
-1133
-131.483
-1081.33
-249.076
-1009.36
-364.532
-917.14
-483.014
-803.803
-608.879
-667.304
-747.571
-504.42
-907.313
-311.947
-1097.19
-89.1748
-1327.15
156.613
-1588.38
419.132
-1848.74
699.639
-2096.54
1000.84
-2337.02
1324.28
-2575.11
1669.49
-2813.89
2035.03
-3052.48
2418.98
-3286.48
2819.61
-3509.3
3235.25
-3711.44
3663.57
-3880.82
4100.01
-4000.11
4538.16
-4060.19
4966.06
-4037.53
5379.22
-3981.36
5759.52
-3812.2
6154.13
-3888.76
-3525.17
2389.26
126.808
2393.6
28.8551
2401.07
-23.9154
2407.75
-52.2155
2412.18
-71.5222
2413.42
-81.9651
2411.05
-82.5169
2405.23
-73.7155
2396.53
-56.5781
2384.53
-31.018
2366.42
8.13535
2339.17
65.7288
2301.37
139.487
2252.55
224.351
2191.97
317.047
2118.08
415.288
2029.13
515.72
1923.9
614.918
1801.94
711.543
1663.79
805.799
1512.02
895.502
1350.85
975.929
1182.35
1047.06
1003.83
1117.69
811.945
1198.75
610.862
1290.94
416.128
1374.51
251.32
1407.31
137.518
1333.76
68.5646
1135.71
26.4549
841.357
3.33043
564.233
50.5873
-204.796
129.439
-644.649
241.721
-944.379
385.343
-1194.42
556.054
-1407.35
747.65
-1586.81
953.211
-1739.24
1166.93
-1878.13
1385.26
-2022.78
1606.67
-2182.5
1831.91
-2352.79
2061.82
-2506.5
2293.6
-2600.62
2519.4
-2600.99
2728.93
-2505.77
2911.24
-2326.06
3055.18
-2057.58
3162.78
-1712.88
3251.64
-1289.5
3308.62
-625.037
3247.78
517.881
3067.22
1626.49
2806.89
2390
2492.13
2866.47
2134.16
3178.55
1739.58
3406.29
1287.89
3647.37
745.41
4037.38
228.186
4469.22
-49.8175
4409.57
-153.763
3632.83
-286.159
2676.9
-458.739
1964.54
-628.547
1487.7
-779.153
1154.74
-903.91
900.478
-1000.81
686.317
-1069.77
493.614
-1111.33
313.288
-1127.13
145.177
-1116.42
-16.6866
-1082.15
-165.75
-1026.97
-304.259
-952.155
-439.348
-857.958
-577.21
-743.657
-723.18
-607.442
-883.785
-446.794
-1067.96
-259.814
-1284.17
-47.5117
-1539.45
183.765
-1819.65
430.995
-2095.97
696.056
-2361.6
980.599
-2621.56
1285.07
-2879.59
1608.23
-3137.05
1947.57
-3391.82
2299.94
-3638.85
2662.29
-3871.65
3031.72
-4080.87
3404.72
-4253.82
3775.77
-4371.16
4136.75
-4421.16
4473.83
-4374.62
4777.06
-4284.58
5030.47
-4065.61
5275.68
-4133.97
-3720.26
2346.22
131.293
2351.47
23.6071
2358.58
-31.0278
2363.93
-57.5662
2366.15
-73.7469
2364.46
-80.2693
2358.68
-76.7403
2349.45
-64.4824
2337.65
-44.78
2322.2
-15.5613
2299.52
30.8145
2266.39
98.8569
2221.55
184.334
2165.3
280.594
2097.91
384.447
2017.96
495.235
1922.82
610.862
1810.24
727.501
1679.67
842.114
1533.05
952.418
1375.12
1053.43
1210.67
1140.38
1039.58
1218.16
857.662
1299.61
665.016
1391.4
472.317
1483.64
298.735
1548.09
164
1542.04
77.2033
1420.56
24.9829
1187.94
-8.71524
875.058
-14.3501
569.873
25.6559
-244.798
93.1022
-712.093
192.214
-1043.49
321.449
-1323.66
476.878
-1562.78
652.389
-1762.32
841.375
-1928.23
1038.1
-2074.85
1238.26
-2222.94
1438.57
-2382.81
1637.92
-2552.13
1837.17
-2705.76
2035.89
-2799.33
2229.61
-2794.72
2410.15
-2686.31
2565.92
-2481.83
2683.09
-2174.75
2762.93
-1792.72
2826.7
-1353.27
2860.95
-659.293
2778.96
599.875
2593.58
1811.87
2346.05
2637.54
2053.68
3158.84
1721.91
3510.32
1351.57
3776.63
911.508
4087.43
404.7
4544.19
12.1147
4861.8
-135.347
4557.03
-195.841
3693.33
-312.678
2793.74
-466.547
2118.41
-622.373
1643.53
-763.317
1295.69
-881.085
1018.25
-972.566
777.798
-1037.08
558.132
-1074.82
351.023
-1087.19
157.549
-1072.49
-31.3892
-1034.53
-203.71
-976.31
-362.474
-899.366
-516.292
-804.099
-672.477
-689.916
-837.363
-555.317
-1018.38
-398.46
-1224.82
-218.343
-1464.29
-16.6155
-1741.18
201.776
-2038.04
435.721
-2329.92
687.263
-2613.14
957.619
-2891.92
1246.76
-3168.73
1553.07
-3443.36
1873.49
-3712.24
2204.05
-3969.4
2540.57
-4208.17
2878.71
-4419.01
3213.32
-4588.42
3537.27
-4695.11
3839.61
-4723.51
4103.6
-4638.61
4308.53
-4489.52
4441.61
-4198.69
4528.14
-4220.5
-3747.68
2296.97
134.057
2302.72
17.8561
2309.3
-37.6075
2313.25
-61.5186
2313.22
-73.7092
2308.54
-75.597
2299.47
-67.6621
2287.2
-52.2098
2272.7
-30.2859
2254.12
3.01762
2227.42
57.5154
2189.27
137.014
2138.23
235.372
2074.92
343.901
2000.15
459.223
1912.71
582.676
1809.57
714.003
1688.13
848.942
1548.52
981.722
1394.71
1106.22
1233.16
1214.97
1067.46
1306.08
894.723
1390.9
711.563
1482.77
523.644
1579.32
346.453
1660.83
198.203
1696.34
91.416
1648.83
25.1912
1486.78
-14.8217
1227.95
-40.6361
900.874
-33.6045
562.846
1.05261
-279.453
57.3641
-768.403
142.45
-1128.57
255.906
-1437.11
394.647
-1701.52
553.179
-1920.85
725.336
-2100.38
905.315
-2254.83
1088.28
-2405.91
1269.75
-2564.28
1446.86
-2729.24
1619.75
-2878.65
1789.6
-2969.18
1955.72
-2960.83
2112.26
-2842.85
2246.57
-2616.14
2341.4
-2269.57
2396.73
-1848.05
2437.53
-1394.07
2446.06
-667.828
2338.67
707.268
2147.39
2003.14
1912.58
2872.34
1641.57
3429.86
1333.79
3818.09
983.102
4127.32
556.249
4514.29
114.214
4986.22
-142.692
5118.71
-198.711
4613.05
-239.713
3734.33
-342.865
2896.89
-480.026
2255.57
-622.501
1786.01
-753.076
1426.26
-862.724
1127.89
-947.852
862.926
-1007.35
617.632
-1040.91
384.584
-1049.62
166.262
-1030.77
-50.2398
-989.284
-245.2
-928.432
-423.325
-849.916
-594.808
-754.269
-768.123
-641.053
-950.58
-509.067
-1150.37
-356.981
-1376.9
-184.331
-1636.94
7.08965
-1932.6
213.692
-2244.65
435.526
-2551.75
674.66
-2852.27
932.182
-3149.44
1207.98
-3444.53
1500.43
-3735.81
1806.44
-4018.24
2121.68
-4284.64
2441.18
-4527.67
2759.26
-4737.1
3069.08
-4898.24
3361.84
-4987.87
3623.34
-4985
3833.13
-4848.4
3954.69
-4611.08
3980.13
-4224.13
3901.78
-4142.15
-3593.3
2242.55
135.861
2247.81
12.5977
2252.42
-42.2179
2253.56
-62.653
2250.24
-70.3908
2242.1
-67.4546
2229.64
-55.2051
2214.47
-37.0354
2197.35
-13.1673
2176.09
24.2807
2146.71
86.8958
2105.42
178.306
2050.05
290.745
1980.85
413.096
1898.72
541.353
1802.67
678.732
1689.9
826.771
1558.53
980.311
1410.44
1129.82
1251.84
1264.82
1089.44
1377.38
923.854
1471.67
750.445
1564.31
569.494
1663.72
392.356
1756.46
235.64
1817.55
113.085
1818.9
30.0404
1731.88
-20.067
1536.89
-49.7386
1257.62
-67.0058
918.144
-53.416
549.262
-22.4835
-310.382
23.6287
-814.514
94.1042
-1199.05
190.583
-1533.59
311.32
-1822.26
451.964
-2061.5
606.949
-2255.37
770.269
-2418.15
936.5
-2572.14
1100.59
-2728.37
1258.43
-2887.07
1408.79
-3029.02
1553.7
-3114.1
1696.09
-3103.22
1832.88
-2979.63
1950.45
-2733.71
2027.25
-2346.37
2060.76
-1881.56
2080.51
-1413.83
2058.47
-645.784
1922.89
842.851
1727.3
2198.74
1506.6
3093.04
1256.29
3680.17
970.061
4104.32
635.67
4461.71
230.516
4919.44
-117.865
5334.6
-248.41
5249.25
-252.092
4616.73
-283.79
3766.03
-374.353
2987.45
-496.97
2378.19
-626.721
1915.76
-746.524
1546.07
-847.413
1228.78
-925.719
941.232
-979.891
671.805
-1009.04
413.736
-1013.83
171.051
-990.693
-73.3784
-945.798
-290.095
-882.607
-486.515
-802.938
-674.477
-707.458
-863.603
-595.884
-1062.15
-467.258
-1279
-320.595
-1523.57
-155.678
-1801.86
25.8368
-2114.11
221.495
-2440.3
432.062
-2762.32
659.588
-3079.8
905.173
-3395.02
1168.82
-3708.18
1449.2
-4016.19
1743.48
-4312.52
2047.39
-4588.55
2355.45
-4835.73
2660.99
-5042.65
2955.81
-5193.07
3229.56
-5261.62
3465
-5220.44
3636.91
-5020.31
3688.56
-4662.73
3617.55
-4153.12
3350.51
-3875.11
-3228.51
2165.57
138.57
2170.76
7.40521
2175.29
-46.7461
2176.46
-63.8235
2173.1
-67.0263
2164.58
-58.9347
2151.27
-41.8988
2134.38
-20.1466
2114.01
7.2127
2088.6
49.684
2055.85
119.645
2012.31
221.847
1954.61
348.453
1881.35
486.353
1792.49
630.21
1687.2
784.026
1563.84
950.137
1422.55
1121.6
1267.88
1284.48
1107.68
1425.02
946.635
1538.42
781.781
1636.52
609.336
1736.76
435.156
1837.9
273.972
1917.64
139.635
1951.88
40.6181
1917.92
-22.5415
1795.04
-59.0657
1573.42
-79.4954
1278.05
-88.7166
927.367
-71.8549
532.405
-44.3803
-337.855
-7.52377
-851.369
48.4685
-1255.04
127.142
-1612.26
228.637
-1923.75
350.238
-2183.1
487.398
-2392.53
634.14
-2564.89
784.351
-2722.35
932.469
-2876.49
1073.17
-3027.77
1203.7
-3159.55
1326.47
-3236.86
1447.35
-3224.09
1567.17
-3099.46
1672.66
-2839.2
1736.55
-2410.26
1751.32
-1896.33
1753.85
-1416.35
1693.3
-585.24
1528.42
1007.74
1332.53
2394.62
1128.05
3297.51
897.752
3910.48
630.911
4371.16
309.206
4783.42
-53.9674
5282.61
-288.67
5569.31
-321.913
5282.49
-300.848
4595.67
-326.494
3791.67
-405.865
3066.82
-515.793
2488.12
-633.387
2033.35
-742.317
1655
-834.231
1320.7
-905.555
1012.56
-954.222
720.472
-978.805
438.319
-979.3
171.546
-951.707
-100.971
-903.481
-338.321
-838.173
-551.823
-757.692
-754.958
-662.842
-958.452
-553.478
-1171.52
-428.808
-1403.66
-288.049
-1664.33
-130.984
-1958.92
41.0023
-2286.1
226.353
-2625.66
426.311
-2962.28
642.902
-3296.39
877.297
-3629.42
1129.73
-3960.61
1399.24
-4285.7
1683.44
-4596.72
1978.26
-4883.37
2278.04
-5135.51
2575.49
-5340.09
2861.43
-5479.01
3124.13
-5524.32
3343.84
-5440.14
3487.91
-5164.38
3475.68
-4650.5
3298.49
-3975.93
2766
-3342.61
-2588.91
2103.04
142.078
2107.49
2.94892
2111.35
-50.5987
2111.84
-64.3211
2107.7
-62.8804
2098.29
-49.5222
2084.25
-27.8608
2066.12
-2.01162
2042.23
31.0996
2010.44
81.4725
1969.91
160.174
1919.45
272.314
1856.3
411.6
1777.5
565.158
1681.04
726.671
1565.72
899.341
1431.61
1084.25
1281.87
1271.35
1123.84
1442.51
965.167
1583.7
806.551
1697.04
642.764
1800.31
474.04
1905.48
311.418
2000.53
169.186
2059.87
56.6359
2064.43
-21.2652
1995.82
-67.32
1841.09
-92.2302
1598.33
-104.466
1290.29
-106.634
929.537
-87.8582
513.636
-64.1873
-361.523
-35.8391
-879.715
6.46576
-1297.34
67.086
-1672.88
148.356
-2005.02
249.513
-2284.25
367.618
-2510.63
497.545
-2694.82
632.855
-2857.66
766.848
-3010.48
892.278
-3153.2
1004.74
-3272.02
1106.58
-3338.7
1206.22
-3323.74
1310.23
-3203.47
1407.11
-2936.07
1463.6
-2466.75
1464.84
-1897.57
1453.81
-1405.33
1346.1
-477.521
1153.26
1200.58
962.941
2584.94
776.763
3483.69
565.927
4121.31
314.726
4622.36
7.26088
5090.88
-285.406
5575.28
-405.171
5689.07
-377.389
5254.71
-346.451
4564.73
-366.901
3812.12
-436.645
3136.57
-535.314
2586.79
-641.298
2139.34
-739.523
1753.22
-822.539
1403.71
-886.853
1076.87
-929.859
763.479
-949.963
458.423
-945.603
167.186
-913.252
-133.322
-861.778
-389.794
-794.545
-619.055
-713.552
-835.951
-619.731
-1052.27
-513.052
-1278.2
-392.837
-1523.88
-258.372
-1798.79
-109.247
-2108.05
53.4738
-2448.82
228.946
-2801.13
418.778
-3152.11
624.989
-3502.6
848.85
-3853.28
1090.86
-4202.61
1350.46
-4545.31
1625.68
-4871.94
1912.68
-5170.37
2205.7
-5428.53
2497.06
-5631.45
2776.74
-5758.69
3031.36
-5778.94
3238.5
-5647.29
3351.69
-5277.57
3259.18
-4557.99
2904.59
-3621.35
1962.26
-2400.28
-1604.08
2040.45
145.502
2044.25
-0.853397
2047.22
-53.5668
2046.8
-63.9042
2041.7
-57.7788
2031.39
-39.2108
2016.65
-13.1188
1997.22
17.4111
1970.38
57.9456
1933.38
118.478
1885.55
208.004
1827.09
330.771
1756.38
482.307
1669.84
651.702
1564.12
832.395
1438.13
1025.33
1294.26
1228.12
1139.01
1426.6
981.43
1600.09
826.397
1738.73
670.106
1853.33
508.272
1962.14
346.981
2066.77
199.598
2147.91
76.9482
2182.52
-14.7954
2156.18
-73.3887
2054.41
-105.077
1872.78
-120.174
1613.43
-125.058
1295.18
-121.119
925.6
-100.978
493.5
-81.4103
-381.089
-61.229
-899.895
-31.5944
-1326.98
11.6331
-1716.11
72.2039
-2065.59
151.542
-2363.59
248.863
-2607.95
360.981
-2806.94
482.048
-2978.73
603.88
-3132.32
716.677
-3266
813.295
-3368.64
894.821
-3420.22
972.708
-3401.62
1059.41
-3290.17
1146.33
-3022.99
1200.64
-2521.07
1198.55
-1895.47
1173.24
-1380.02
1011.14
-315.419
796.337
1415.38
618.733
2762.54
452.553
3649.87
260.157
4313.71
18.3037
4864.21
-260.602
5369.79
-457.753
5772.43
-482.254
5713.57
-423.379
5195.84
-388.865
4530.22
-404.64
3827.9
-466.179
3198.11
-554.664
2675.27
-649.602
2234.27
-737.504
1841.12
-811.877
1478.09
-869.19
1134.18
-906.352
800.642
-921.798
473.869
-911.65
157.038
-874.765
-170.207
-820.174
-444.385
-751.212
-688.017
-669.976
-917.187
-577.523
-1144.73
-473.937
-1381.78
-358.605
-1639.21
-230.773
-1926.62
-89.6947
-2249.13
63.884
-2602.4
229.709
-2966.95
409.713
-3332.11
605.939
-3698.82
819.785
-4067.13
1052.05
-4434.88
1302.55
-4795.81
1569.6
-5139
1849.46
-5450.23
2136.15
-5715.22
2421.35
-5916.65
2693.33
-6030.67
2935.33
-6020.93
3117.81
-5829.77
3164.12
-5323.87
2908.57
-4302.44
2195.43
-2908.22
766.721
-971.563
-337.283
1976.55
149.089
1979.7
-3.99725
1981.76
-55.6224
1980.28
-62.4302
1974.01
-51.5058
1962.71
-27.9102
1946.99
2.60332
1925.84
38.5626
1896.03
87.757
1854.38
160.13
1800.01
262.375
1733.59
397.19
1654.12
561.778
1557.92
747.897
1441.49
948.828
1305.01
1161.81
1153.79
1379.34
997.058
1583.33
843.222
1753.93
692.29
1889.67
537.762
2007.86
379.89
2120.02
229.694
2216.97
99.2075
2278.4
-3.74172
2285.47
-75.0449
2227.48
-116.622
2095.99
-136.732
1892.89
-143.514
1620.21
-141.679
1293.34
-132.446
916.369
-111.17
472.233
-95.7821
-396.474
-83.4238
-912.252
-65.6022
-1344.8
-38.5689
-1743.14
1.64977
-2105.81
58.2831
-2420.22
133.087
-2682.75
225.52
-2899.37
331.419
-3084.62
442.122
-3243.02
545.645
-3369.52
630.372
-3453.36
693.767
-3483.62
749.434
-3457.29
813.456
-3354.19
882.582
-3092.12
938.755
-2577.24
944.707
-1901.42
903.873
-1339.18
683.04
-94.5846
457.888
1640.53
300.642
2919.79
154.98
3795.54
-23.1415
4491.83
-255.261
5096.33
-481.758
5596.29
-576.158
5866.83
-534.814
5672.23
-463.88
5124.91
-427.843
4494.18
-439.625
3839.68
-494.094
3252.58
-573.218
2754.39
-657.698
2318.75
-735.805
1919.23
-801.882
1544.17
-852.206
1184.51
-883.282
831.718
-893.533
484.121
-876.828
140.333
-835.784
-211.25
-778.221
-501.948
-707.726
-758.512
-626.493
-998.419
-535.703
-1235.51
-435.561
-1481.92
-325.479
-1749.29
-204.511
-2047.59
-71.5943
-2382.04
72.779
-2746.77
228.985
-3123.16
399.286
-3502.42
585.738
-3885.28
789.898
-4271.29
1012.9
-4657.88
1254.91
-5037.82
1514.39
-5398.48
1787.41
-5723.24
2067.26
-5995.08
2343.82
-6193.21
2600.54
-6287.4
2810.47
-6230.86
2918.34
-5937.64
2777.81
-5183.34
2132.97
-3657.61
796.711
-1571.96
-655.025
480.173
632.325
1911.63
153.215
1913.27
-5.632
1912.97
-55.3203
1908.95
-58.4122
1900.36
-42.9179
1887.27
-14.812
1869.96
19.911
1847.11
61.4083
1815.35
119.52
1770.69
204.791
1711.26
321.806
1637.36
471.097
1548.28
650.856
1441
855.177
1313.31
1076.52
1167.91
1307.22
1013.06
1534.18
859
1737.39
710.637
1902.29
562.777
2037.53
410.037
2160.6
258.955
2271.1
122.229
2353.7
9.74685
2390.88
-72.6011
2367.82
-124.631
2279.51
-152.212
2123.57
-163.108
1903.79
-162.793
1619.89
-154.917
1285.47
-141.287
902.74
-118.906
449.857
-107.434
-407.944
-102.178
-917.507
-95.4298
-1351.54
-83.4548
-1755.11
-62.443
-2126.82
-28.376
-2454.29
22.7553
-2733.89
93.204
-2969.82
181.307
-3172.73
279.852
-3341.56
376.196
-3465.86
454.076
-3531.24
504.411
-3533.95
538.32
-3491.2
573.465
-3389.33
614.606
-3133.26
665.534
-2628.17
686.215
-1922.1
627.564
-1280.53
356.124
176.856
140.225
1856.43
8.56797
3051.44
-118.552
3922.66
-285.034
4658.31
-494.277
5305.58
-648.877
5750.89
-653.611
5871.57
-573.792
5592.41
-500.369
5051.48
-463.342
4457.15
-471.877
3848.22
-520.124
3300.83
-590.539
2824.81
-665.167
2393.38
-734.065
1988.13
-792.181
1602.28
-835.49
1227.82
-860.187
856.415
-864.901
488.835
-841.317
116.75
-795.946
-256.621
-735.536
-562.357
-663.709
-830.339
-582.707
-1079.42
-493.835
-1324.39
-397.44
-1578.32
-292.927
-1853.81
-179.055
-2161.46
-54.4942
-2506.6
80.5465
-2881.81
227.086
-3269.7
387.668
-3663
564.384
-4061.99
758.981
-4465.88
972.978
-4871.88
1206.87
-5271.71
1459.1
-5650.7
1725.09
-5989.23
1996.33
-6266.32
2257.89
-6454.76
2480.27
-6509.78
2605.53
-6356.12
2502.79
-5834.9
1904.21
-4584.77
575.47
-2328.87
-1024.04
27.55
-1790.46
1246.59
1093.78
1826.74
159.274
1827.77
-6.65676
1827.01
-54.5601
1822.71
-54.1102
1813.97
-34.1749
1800.16
-1.00413
1780.98
39.0874
1755.98
86.4156
1722.98
152.515
1677.66
250.114
1615.94
383.523
1536.12
550.923
1437.39
749.582
1318.57
973.997
1180.52
1214.57
1029.32
1458.42
875.284
1688.22
726.972
1885.7
583.721
2045.54
437.352
2183.9
287.527
2310.43
145.793
2412.83
24.5087
2474.98
-67.8717
2483.26
-129.39
2429.34
-164.824
2314.95
-181.384
2140.13
-184.819
1907.22
-178.471
1613.55
-165.521
1272.52
-148.732
885.953
-125.091
426.225
-116.969
-416.063
-117.589
-916.885
-120.718
-1348.41
-122.947
-1752.88
-120.071
-2129.69
-107.344
-2467.01
-79.8294
-2761.4
-33.1791
-3016.47
33.8389
-3239.74
116.927
-3424.65
204.906
-3553.84
279.28
-3605.62
323.625
-3578.29
340.324
-3507.9
345.069
-3394.08
349.17
-3137.36
370.831
-2649.83
407.442
-1958.71
318.675
-1191.76
21.8171
473.715
-157.055
2035.31
-259.462
3153.85
-369.246
4032.44
-518.609
4807.67
-686.604
5473.57
-765.048
5829.33
-704.341
5810.86
-605.695
5493.76
-533.324
4979.11
-495.512
4419.34
-501.454
3854.16
-544.098
3343.47
-606.335
2887.05
-671.718
2458.76
-731.987
2048.4
-782.416
1652.71
-818.656
1264.06
-836.665
874.424
-835.468
487.639
-804.723
86.005
-754.943
-306.401
-691.82
-625.479
-618.867
-903.292
-538.313
-1159.98
-451.582
-1411.12
-359.185
-1670.72
-260.503
-1952.49
-153.983
-2267.98
-38.0427
-2622.54
87.5254
-3007.38
224.309
-3406.48
375.05
-3813.74
541.922
-4228.86
726.894
-4650.85
931.914
-5076.9
1157.8
-5497.59
1402.73
-5895.64
1660.79
-6247.29
1919.46
-6524.99
2152.47
-6687.77
2298.25
-6655.57
2219.4
-6277.26
1641.23
-5256.73
306.275
-3249.81
-1270.35
-752.241
-2145.17
902.366
-2368.35
1469.77
1409.08
1760.34
167.072
1760.07
-6.38724
1758.16
-52.6498
1752.86
-48.8106
1743.48
-24.7945
1728.62
13.8615
1706.38
61.3286
1675.81
116.986
1636.17
192.155
1584.93
301.351
1517.54
450.911
1430.07
638.395
1320.91
858.743
1191.02
1103.89
1045.11
1360.48
892.416
1611.12
743.216
1837.43
601.689
2027.23
461.472
2185.76
315.497
2329.87
170.301
2455.63
40.5244
2542.61
-61.9998
2577.51
-132.463
2553.73
-175.046
2471.93
-197.185
2337.09
-205.112
2148.06
-202.382
1904.49
-191.05
1602.22
-174.281
1255.75
-155.767
867.441
-130.801
401.264
-125.38
-421.482
-130.3
-911.964
-141.401
-1337.31
-156.324
-1737.96
-170.859
-2115.16
-179.018
-2458.85
-174.324
-2766.09
-151.416
-3039.37
-107.716
-3283.44
-44.2724
-3488.09
31.0506
-3629.16
101.05
-3675.62
145.552
-3622.8
154.836
-3517.18
133.322
-3372.56
95.8479
-3099.89
79.0078
-2632.99
97.8929
-1977.6
-70.6596
-1023.2
-310.262
713.318
-427.284
2152.33
-502.17
3228.74
-592.108
4122.38
-713.831
4929.4
-828.95
5588.69
-840.792
5841.17
-739.632
5709.7
-633.766
5387.9
-562.956
4908.3
-524.59
4380.98
-528.428
3858
-565.918
3380.96
-620.423
2941.55
-677.155
2515.5
-729.339
2100.58
-772.323
1695.69
-801.431
1293.17
-812.383
885.376
-804.821
480.078
-766.736
47.9201
-712.555
-360.582
-646.875
-691.16
-573.011
-977.155
-493.118
-1239.87
-408.725
-1495.51
-320.512
-1758.93
-227.844
-2045.16
-128.882
-2366.94
-21.8259
-2729.6
94.0767
-3123.28
220.945
-3533.35
361.643
-3954.44
518.449
-4385.67
693.58
-4825.99
889.451
-5272.77
1107.17
-5715.31
1344.35
-6132.82
1592.39
-6495.33
1830.66
-6763.25
2007.99
-6865.1
1992.4
-6639.98
1500.58
-5785.45
225.97
-3982.12
-1397.08
-1626.76
-2342.38
193.055
-2589.66
1149.64
-2744.19
1624.31
1670.29
1695.74
175.019
1694.54
-5.19015
1691.34
-49.4491
1684.88
-42.348
1674.57
-14.479
1658.41
30.0197
1633.64
86.0961
1598.47
152.157
1552.15
238.48
1493.06
360.439
1417.01
526.961
1319.43
735.979
1199.1
979.071
1059.82
1243.18
909.982
1510.31
760.323
1760.78
618.428
1979.32
482.365
2163.29
342.348
2325.78
196.509
2475.71
58.4718
2593.66
-54.8817
2655.97
-134.997
2657.62
-184.319
2603.05
-211.278
2498.89
-223.083
2348.89
-224.172
2149.15
-216.374
1896.7
-201.209
1587.05
-182.044
1236.59
-163.195
848.595
-137.086
375.165
-133.842
-424.723
-141.407
-904.398
-158.101
-1320.62
-183.182
-1712.88
-213.245
-2085.09
-241.708
-2430.39
-260.383
-2747.42
-261.947
-3037.81
-242.121
-3303.27
-200.502
-3529.71
-142.647
-3687.02
-81.5658
-3736.7
-35.3436
-3669.02
-24.3121
-3528.21
-61.9068
-3334.97
-132.013
-3029.78
-191.898
-2573.1
-253.44
-1916.06
-440.942
-835.7
-595.215
867.592
-664.616
2221.73
-713.505
3277.63
-779.29
4188.17
-867.226
5017.33
-928.497
5649.96
-888.843
5801.52
-766.717
5587.58
-659.356
5280.53
-589.458
4838.4
-550.824