/*--------------------------------*- C++ -*----------------------------------*\
| =========                 |                                                 |
| \\      /  F ield         | OpenFOAM: The Open Source CFD Toolbox           |
|  \\    /   O peration     | Version:  4.1                                   |
|   \\  /    A nd           | Web:      www.OpenFOAM.org                      |
|    \\/     M anipulation  |                                                 |
\*---------------------------------------------------------------------------*/
FoamFile
{
    version     2.0;
    format      ascii;
    class       volVectorField;
    location    "500";
    object      U;
}
// * * * * * * * * * * * * * * * * * * * * * * * * * * * * * * * * * * * * * //

dimensions      [0 1 -1 0 0 0 0];

internalField   nonuniform List<vector> 
26785
(
(6.15324e-16 0.0460546 19.533)
(5.90409e-16 0.0387715 18.6062)
(4.40622e-16 0.0335176 17.8435)
(1.10283e-15 0.0292266 17.2325)
(6.83044e-16 0.0252636 16.7105)
(1.81464e-15 0.0217786 16.2606)
(1.73953e-15 0.0190476 15.8779)
(1.90003e-15 0.0172918 15.5453)
(9.81779e-16 0.0167262 15.2398)
(1.88861e-15 0.017398 14.9401)
(1.65861e-15 0.019138 14.6294)
(1.83325e-15 0.021741 14.2942)
(1.84756e-15 0.0250398 13.9237)
(1.89476e-15 0.0288463 13.5094)
(1.95392e-15 0.0329632 13.0463)
(1.99075e-15 0.0371923 12.5329)
(2.01413e-15 0.0412844 11.9709)
(1.94873e-15 0.0449834 11.3657)
(2.064e-15 0.0481342 10.7261)
(1.4672e-15 0.0507501 10.0611)
(6.64395e-16 0.0530012 9.37838)
(7.39474e-16 0.055176 8.68177)
(-5.01619e-16 0.0575548 7.97111)
(-1.39402e-15 0.0601659 7.24403)
(-3.48774e-15 0.0628379 6.49982)
(-5.36109e-15 0.0657429 5.74166)
(-8.17142e-15 0.0696167 4.96159)
(-9.67161e-15 0.0748736 4.14125)
(-1.64186e-14 0.0822835 3.2703)
(-3.36068e-14 0.0881302 2.32243)
(-4.6169e-14 0.0822577 1.33637)
(3.49256e-14 0.0595741 0.528075)
(2.09251e-14 0.0153614 0.138047)
(6.80984e-15 -0.0156036 0.262791)
(-9.59268e-15 -0.0374044 0.62235)
(-1.0602e-14 -0.0541812 1.13567)
(-7.47068e-15 -0.0676344 1.76999)
(-5.00888e-15 -0.0790191 2.50012)
(-3.0249e-15 -0.0896448 3.31193)
(-2.002e-15 -0.101128 4.20418)
(2.30391e-16 -0.115134 5.18981)
(1.80325e-15 -0.132137 6.28842)
(2.25612e-15 -0.151177 7.51361)
(2.3868e-15 -0.169952 8.86269)
(2.30125e-15 -0.185567 10.3088)
(3.26989e-15 -0.196036 11.8039)
(3.07882e-15 -0.201033 13.298)
(3.49004e-15 -0.199016 14.7494)
(3.67641e-15 -0.183519 16.0992)
(3.94215e-15 -0.145235 17.2404)
(2.57436e-15 -0.0804175 18.0264)
(2.84449e-15 0.00335359 18.2921)
(2.85809e-15 0.0884255 17.9215)
(2.88753e-15 0.152433 16.9854)
(2.89891e-15 0.190717 15.6883)
(3.12594e-15 0.210704 14.2123)
(3.48175e-15 0.220527 12.6628)
(3.17691e-15 0.225451 11.0845)
(3.54412e-15 0.229462 9.50508)
(2.49415e-15 0.235889 7.9152)
(2.56188e-15 0.248871 6.25196)
(2.77742e-15 0.281343 4.58189)
(-9.21741e-15 0.319172 2.5969)
(-1.49147e-14 0.296621 -0.124012)
(-6.54491e-17 0.169074 -1.54945)
(2.29873e-15 0.090839 -2.27698)
(4.55691e-15 0.0586014 -2.72622)
(5.04461e-15 0.0413731 -3.02842)
(4.6102e-15 0.0295156 -3.23892)
(3.34282e-15 0.0198895 -3.38106)
(3.42079e-15 0.0113576 -3.46557)
(4.16682e-15 0.00362047 -3.49821)
(3.69155e-15 -0.00308361 -3.48405)
(4.48649e-15 -0.00868913 -3.42945)
(5.04959e-15 -0.013524 -3.34058)
(3.33824e-15 -0.0181376 -3.22147)
(-9.88454e-17 -0.0231219 -3.07309)
(-1.54251e-15 -0.0285379 -2.89295)
(-6.8784e-15 -0.0335968 -2.67656)
(-1.58279e-14 -0.0373967 -2.41928)
(-2.2649e-14 -0.0406293 -2.11725)
(-1.54541e-14 -0.0493342 -1.77101)
(4.90516e-16 -0.0709356 -1.35964)
(-3.18273e-15 -0.105998 -0.902111)
(-4.32523e-15 -0.153496 -0.310024)
(-5.75647e-15 -0.19009 0.607795)
(-5.35822e-15 -0.215448 1.61381)
(-4.0097e-15 -0.238533 2.72028)
(-6.339e-15 -0.258667 3.91724)
(-5.84632e-15 -0.276136 5.19888)
(-4.65478e-15 -0.290527 6.55439)
(-4.25571e-15 -0.301206 7.96891)
(-4.11816e-15 -0.307565 9.42201)
(-4.20046e-15 -0.30903 10.8928)
(-4.12224e-15 -0.305811 12.349)
(-4.24265e-15 -0.297386 13.7849)
(-4.15577e-15 -0.288351 15.1234)
(-4.14285e-15 -0.273048 16.5127)
(-4.03471e-15 -0.276653 17.4949)
(-3.66688e-15 -0.257693 19.3142)
(6.23406e-16 0.12878 19.8228)
(1.53419e-15 0.108977 18.9036)
(1.29213e-15 0.0953339 18.1559)
(1.29842e-15 0.0847419 17.5556)
(9.27812e-16 0.0748962 17.0377)
(2.21957e-15 0.0661371 16.584)
(6.20638e-16 0.059293 16.1884)
(8.41809e-16 0.0549975 15.8337)
(1.56191e-15 0.0537897 15.4987)
(1.41601e-15 0.0557003 15.1665)
(1.49817e-15 0.0603124 14.825)
(1.4614e-15 0.0673672 14.4639)
(1.49927e-15 0.0766859 14.0701)
(1.57136e-15 0.0877788 13.6341)
(1.98295e-15 0.100053 13.1507)
(1.74557e-15 0.112894 12.6174)
(1.8173e-15 0.125499 12.0356)
(2.11009e-15 0.137026 11.41)
(1.9755e-15 0.146952 10.7486)
(2.55487e-15 0.155285 10.0595)
(2.09283e-15 0.162513 9.34915)
(1.9954e-15 0.169454 8.62105)
(1.06008e-15 0.17682 7.87596)
(-6.96632e-16 0.184548 7.11451)
(-1.68054e-15 0.192228 6.33916)
(-4.46358e-15 0.200866 5.55211)
(-7.81905e-15 0.213052 4.74004)
(-1.00059e-14 0.230261 3.88132)
(-1.61213e-14 0.253629 2.96588)
(-3.97988e-14 0.264278 1.99952)
(-2.74447e-14 0.230835 1.09581)
(2.40495e-14 0.160547 0.454331)
(5.84824e-15 0.0353076 0.217925)
(-8.14718e-15 -0.0728672 0.457924)
(-1.64711e-14 -0.136095 0.902797)
(-1.2713e-14 -0.181662 1.47671)
(-7.36042e-15 -0.218292 2.15301)
(-4.76449e-15 -0.249705 2.91019)
(-2.96701e-15 -0.279479 3.73583)
(-1.45808e-15 -0.311791 4.62819)
(-6.19464e-16 -0.350441 5.59632)
(1.10318e-15 -0.395563 6.65245)
(2.19395e-15 -0.443337 7.80151)
(2.90803e-15 -0.486605 9.03325)
(3.61578e-15 -0.517234 10.3163)
(3.61411e-15 -0.530226 11.6012)
(4.7875e-15 -0.526115 12.8378)
(4.74356e-15 -0.504696 13.9901)
(6.20452e-15 -0.45577 15.024)
(4.96453e-15 -0.360222 15.8929)
(5.84327e-15 -0.203077 16.5365)
(4.96412e-15 0.0139959 16.8425)
(4.21132e-15 0.254749 16.6275)
(4.88427e-15 0.443535 15.8563)
(3.30791e-15 0.557919 14.696)
(3.44849e-15 0.617761 13.3283)
(3.88319e-15 0.647348 11.8648)
(3.39813e-15 0.662851 10.3567)
(3.97953e-15 0.676958 8.83359)
(4.33233e-15 0.697339 7.28795)
(5.20662e-15 0.741993 5.67233)
(-1.84793e-15 0.866516 3.97873)
(-1.43951e-14 0.969948 1.87325)
(-1.08606e-14 0.804978 -0.333923)
(-7.4114e-15 0.457389 -1.32357)
(-7.46954e-15 0.259375 -1.93781)
(-8.49265e-15 0.168665 -2.34853)
(-1.10266e-14 0.117964 -2.63685)
(-1.02517e-14 0.0823293 -2.84131)
(-6.28773e-15 0.0531438 -2.98078)
(-5.8321e-15 0.0270915 -3.06468)
(-2.32962e-16 0.00312765 -3.09807)
(5.98379e-15 -0.0182959 -3.08533)
(8.47965e-15 -0.0371891 -3.03062)
(8.66748e-15 -0.0545381 -2.93852)
(5.67103e-15 -0.0717519 -2.81196)
(4.1888e-15 -0.090227 -2.65125)
(6.09883e-16 -0.110428 -2.45364)
(3.00205e-15 -0.131366 -2.2138)
(3.53109e-15 -0.151344 -1.92577)
(-9.41074e-15 -0.171416 -1.58366)
(-1.81108e-14 -0.200799 -1.17629)
(-1.22554e-14 -0.253098 -0.68732)
(-6.30927e-15 -0.345261 -0.0317323)
(-2.83292e-15 -0.443208 0.750675)
(-3.95662e-15 -0.519409 1.56724)
(-5.06293e-15 -0.583944 2.44783)
(-3.40544e-15 -0.645931 3.4046)
(1.23773e-15 -0.705185 4.44141)
(1.37243e-15 -0.760383 5.55873)
(2.18553e-16 -0.808982 6.75216)
(-4.38394e-16 -0.848034 8.01292)
(-7.2149e-16 -0.874711 9.32574)
(-2.35899e-15 -0.886323 10.6732)
(-2.90219e-15 -0.882446 12.0247)
(-2.88333e-15 -0.861289 13.3726)
(-3.33006e-15 -0.833952 14.6416)
(-3.40677e-15 -0.787207 15.9581)
(-3.39146e-15 -0.787607 16.9062)
(-3.13167e-15 -0.709272 18.5881)
(9.47523e-16 0.216959 20.0247)
(1.29657e-16 0.183363 19.1173)
(7.48982e-16 0.159579 18.3832)
(7.32403e-16 0.141843 17.7924)
(-8.55369e-16 0.125968 17.278)
(6.00034e-16 0.112338 16.819)
(1.66897e-16 0.102176 16.4069)
(4.77581e-16 0.0962709 16.0243)
(3.19581e-16 0.0951446 15.6527)
(3.37439e-16 0.0985272 15.2796)
(4.01341e-16 0.105821 14.8979)
(5.24565e-16 0.117072 14.4984)
(7.22448e-16 0.132236 14.0674)
(9.30688e-16 0.150395 13.5963)
(1.22885e-15 0.170522 13.0811)
(1.57264e-15 0.191631 12.5205)
(2.00447e-15 0.212448 11.9157)
(1.87998e-15 0.231665 11.2707)
(1.84642e-15 0.2485 10.591)
(2.64929e-15 0.263006 9.88166)
(1.41772e-15 0.275919 9.14621)
(2.29603e-15 0.288317 8.38668)
(3.4985e-15 0.300919 7.60596)
(1.35629e-15 0.313373 6.80986)
(-9.12061e-17 0.325536 6.00399)
(-3.23893e-15 0.340162 5.1864)
(-1.08291e-14 0.361781 4.3362)
(-1.44097e-14 0.391694 3.43322)
(-1.83435e-14 0.426492 2.48505)
(-4.16065e-14 0.42728 1.56589)
(-1.77132e-14 0.353041 0.82982)
(2.48719e-14 0.232272 0.368893)
(-7.05022e-15 0.0181904 0.249431)
(-1.23731e-14 -0.147362 0.549918)
(-1.18505e-14 -0.241606 1.00663)
(-6.59842e-15 -0.310966 1.5761)
(-5.38085e-15 -0.367365 2.23675)
(-4.56178e-15 -0.415634 2.96804)
(-2.07474e-15 -0.461108 3.75679)
(-1.04744e-15 -0.509978 4.59734)
(-3.49442e-16 -0.567656 5.49222)
(5.59689e-16 -0.633928 6.4477)
(1.0679e-15 -0.702757 7.46656)
(1.41335e-15 -0.76306 8.54108)
(2.12006e-15 -0.802177 9.64479)
(3.32538e-15 -0.812359 10.733)
(4.75912e-15 -0.795321 11.7594)
(5.92153e-15 -0.75374 12.6915)
(6.42856e-15 -0.678345 13.5028)
(6.60531e-15 -0.548061 14.1683)
(6.20211e-15 -0.339353 14.6808)
(5.37728e-15 -0.0322293 14.9952)
(4.39654e-15 0.348558 14.9198)
(3.80717e-15 0.668501 14.3237)
(3.53396e-15 0.871591 13.3258)
(4.0756e-15 0.982692 12.0975)
(3.75202e-15 1.04068 10.7514)
(3.42716e-15 1.07339 9.3418)
(3.63981e-15 1.10235 7.89993)
(5.73543e-15 1.13945 6.42703)
(6.99435e-15 1.22911 4.86186)
(-6.38725e-15 1.45422 3.09578)
(-1.754e-14 1.55927 1.06147)
(-1.00245e-14 1.19954 -0.395064)
(-9.73575e-15 0.689045 -1.08064)
(5.21035e-16 0.416551 -1.62979)
(-2.25233e-17 0.281204 -2.03755)
(-3.86134e-15 0.201301 -2.3411)
(-3.4682e-15 0.143603 -2.56405)
(-1.76125e-15 0.095855 -2.72069)
(2.35456e-15 0.0529928 -2.81852)
(9.10691e-15 0.013233 -2.86134)
(1.48803e-14 -0.0230072 -2.85276)
(1.64505e-14 -0.0556334 -2.79771)
(1.88842e-14 -0.086006 -2.70223)
(1.90414e-14 -0.116158 -2.56967)
(1.39764e-14 -0.147954 -2.40091)
(8.03149e-15 -0.182656 -2.19318)
(4.19272e-15 -0.221102 -1.94035)
(2.44766e-15 -0.264353 -1.63573)
(-6.71563e-15 -0.315901 -1.27331)
(-1.57254e-14 -0.382838 -0.848598)
(-1.48171e-14 -0.478802 -0.334595)
(-1.03251e-14 -0.59659 0.281151)
(-5.13732e-15 -0.709258 0.938933)
(-3.53079e-15 -0.809653 1.63795)
(-1.36279e-15 -0.903736 2.39407)
(-1.27557e-16 -0.997324 3.21288)
(3.71064e-16 -1.09003 4.09694)
(-1.543e-15 -1.17938 5.04775)
(-1.42359e-15 -1.26134 6.06434)
(-9.45515e-16 -1.33097 7.14293)
(-1.88671e-15 -1.38319 8.27425)
(-1.73643e-15 -1.41266 9.44703)
(-1.84157e-15 -1.4176 10.6361)
(-1.95509e-15 -1.39391 11.8375)
(-2.56156e-15 -1.35782 12.9791)
(-2.7918e-15 -1.28889 14.183)
(-3.06697e-15 -1.28987 15.0488)
(-3.29157e-15 -1.15616 16.6186)
(1.08478e-15 0.303734 20.125)
(7.11844e-16 0.256923 19.2423)
(-3.46316e-16 0.223524 18.5274)
(-9.69727e-16 0.199075 17.946)
(-6.36639e-16 0.177821 17.4289)
(-1.85137e-15 0.160282 16.9536)
(-1.26258e-15 0.147875 16.5121)
(-5.30575e-16 0.141266 16.0903)
(-4.84712e-16 0.140727 15.6752)
(-1.77393e-16 0.145639 15.2602)
(1.84077e-17 0.155494 14.8421)
(2.65466e-16 0.170856 14.4089)
(5.19545e-16 0.191659 13.9437)
(6.38051e-16 0.216405 13.4382)
(1.17733e-15 0.243664 12.8892)
(1.43876e-15 0.272183 12.2972)
(1.62979e-15 0.300391 11.6651)
(2.0189e-15 0.326747 10.9972)
(2.29486e-15 0.350435 10.2973)
(1.82869e-15 0.371647 9.56732)
(1.14214e-15 0.391206 8.80706)
(2.02394e-15 0.409935 8.01768)
(3.05435e-15 0.427972 7.2059)
(2.45247e-15 0.444711 6.38275)
(1.87051e-15 0.461254 5.55304)
(-1.55063e-15 0.48286 4.70679)
(-1.11717e-14 0.514952 3.81959)
(-1.76461e-14 0.555238 2.887)
(-2.0535e-14 0.589205 1.95612)
(-3.94395e-14 0.563206 1.1653)
(-8.59623e-15 0.441733 0.612021)
(2.18772e-14 0.280119 0.279589)
(-7.20518e-15 -0.0142767 0.23044)
(-7.6529e-15 -0.223426 0.544478)
(-1.13818e-14 -0.344509 0.984029)
(-4.41426e-15 -0.436388 1.52894)
(-4.49689e-15 -0.511554 2.16067)
(-3.80784e-15 -0.575539 2.85993)
(-5.3126e-16 -0.634757 3.611)
(-5.56301e-16 -0.69664 4.40095)
(-6.63121e-16 -0.768148 5.224)
(3.2876e-16 -0.849648 6.08186)
(-1.41367e-16 -0.934165 6.97897)
(-3.41145e-16 -1.00738 7.91404)
(-1.83645e-16 -1.05204 8.86759)
(1.17416e-15 -1.05716 9.79958)
(2.4042e-15 -1.02511 10.6666)
(4.10626e-15 -0.960983 11.4382)
(5.73306e-15 -0.857283 12.0887)
(8.3909e-15 -0.695772 12.5989)
(8.49292e-15 -0.450973 12.9883)
(9.1967e-15 -0.081551 13.26)
(5.21209e-15 0.414634 13.2367)
(3.20574e-15 0.854563 12.7434)
(2.69793e-15 1.14402 11.8672)
(3.07201e-15 1.30822 10.7631)
(3.16551e-15 1.39817 9.53326)
(2.78462e-15 1.45223 8.22672)
(3.31147e-15 1.49866 6.87652)
(7.76756e-15 1.56005 5.4861)
(7.49931e-15 1.71592 3.93813)
(-1.03161e-14 2.00467 2.13111)
(-1.84964e-14 2.00283 0.46064)
(-8.37639e-15 1.45457 -0.375865)
(-5.95545e-16 0.875919 -0.919567)
(6.1345e-15 0.565349 -1.43158)
(-1.94384e-15 0.395436 -1.83949)
(-1.23354e-15 0.287622 -2.1537)
(-9.73386e-16 0.206551 -2.38855)
(-1.6538e-15 0.138028 -2.55505)
(-9.05732e-16 0.0758822 -2.6594)
(8.18208e-16 0.0180857 -2.70489)
(5.1274e-15 -0.0347181 -2.69521)
(8.42921e-15 -0.0824583 -2.63594)
(1.5638e-14 -0.127051 -2.53427)
(1.6869e-14 -0.170976 -2.39414)
(1.25748e-14 -0.216113 -2.21703)
(9.26284e-15 -0.263798 -2.00068)
(1.67686e-15 -0.315978 -1.73931)
(2.0907e-15 -0.376432 -1.42674)
(-1.0174e-14 -0.451329 -1.05889)
(-2.44257e-14 -0.548094 -0.635281)
(-8.67121e-15 -0.675497 -0.131447)
(-4.65159e-15 -0.815748 0.436891)
(-3.22892e-15 -0.946352 1.02944)
(-3.91014e-15 -1.06719 1.65836)
(-3.33719e-15 -1.18482 2.33262)
(-2.7341e-15 -1.30326 3.05528)
(-2.60404e-15 -1.42211 3.82766)
(-1.79061e-15 -1.53847 4.65052)
(9.62691e-17 -1.64761 5.52337)
(-8.64104e-17 -1.74334 6.44453)
(-7.86578e-16 -1.81888 7.40848)
(-7.79136e-16 -1.86646 8.40857)
(-1.24205e-15 -1.88293 9.42498)
(-1.17778e-15 -1.86106 10.457)
(-1.3067e-15 -1.82258 11.4386)
(-1.42854e-15 -1.73672 12.4856)
(-1.83441e-15 -1.74765 13.2291)
(-2.31792e-15 -1.56632 14.6224)
(1.14567e-15 0.379449 20.1041)
(1.2811e-16 0.320168 19.255)
(4.40825e-16 0.280207 18.5588)
(-4.55238e-17 0.252031 17.9793)
(1.06222e-16 0.228016 17.4473)
(1.22462e-15 0.208673 16.9423)
(1.3445e-16 0.195442 16.4609)
(-9.1668e-17 0.188767 15.9943)
(-1.70621e-16 0.188614 15.5351)
(4.64199e-17 0.194243 15.0826)
(2.11575e-16 0.20598 14.6357)
(1.31115e-16 0.225426 14.1778)
(6.38287e-16 0.252324 13.6908)
(7.40314e-16 0.284267 13.1646)
(1.39922e-15 0.319098 12.5945)
(1.7712e-15 0.355073 11.9804)
(1.55455e-15 0.39034 11.3255)
(1.89417e-15 0.423366 10.6348)
(2.07434e-15 0.453648 9.91199)
(2.23735e-15 0.481748 9.1572)
(1.43717e-15 0.508403 8.36902)
(1.94029e-15 0.533606 7.55056)
(2.09242e-15 0.556545 6.71421)
(1.81238e-15 0.577012 5.87323)
(2.2088e-15 0.59844 5.02537)
(-9.03061e-16 0.628203 4.15284)
(-1.53413e-14 0.669831 3.23967)
(-2.05941e-14 0.713328 2.31309)
(-2.0096e-14 0.730685 1.46268)
(-3.23395e-14 0.667204 0.841942)
(-4.37193e-15 0.501193 0.437958)
(2.19385e-15 0.311894 0.189438)
(-1.12392e-14 -0.0540137 0.184139)
(-9.60901e-15 -0.297195 0.485866)
(-1.05651e-14 -0.442875 0.895081)
(-5.5308e-15 -0.556742 1.40708)
(-2.73436e-15 -0.650519 2.00555)
(-1.85009e-15 -0.729703 2.67128)
(-1.40899e-15 -0.800708 3.38383)
(-9.61381e-17 -0.871703 4.12282)
(-8.51297e-17 -0.951776 4.87642)
(-9.31172e-16 -1.04312 5.64392)
(-2.35941e-15 -1.13903 6.43156)
(-3.20862e-15 -1.22242 7.24384)
(-2.85207e-15 -1.27124 8.06819)
(-1.89246e-15 -1.27078 8.86955)
(8.67698e-18 -1.22379 9.60778)
(2.56123e-15 -1.13762 10.2543)
(4.70563e-15 -1.00683 10.7823)
(8.7592e-15 -0.818998 11.1715)
(9.78709e-15 -0.550661 11.4567)
(1.22921e-14 -0.137273 11.677)
(9.79479e-15 0.460178 11.6655)
(6.37812e-15 1.01151 11.2245)
(3.89849e-15 1.38239 10.4309)
(2.62617e-15 1.59832 9.42813)
(2.64745e-15 1.72166 8.30321)
(2.78317e-15 1.79933 7.09549)
(2.75978e-15 1.86581 5.84047)
(7.31986e-15 1.96595 4.52104)
(3.61153e-15 2.19762 2.96003)
(-1.37668e-14 2.47365 1.24643)
(-1.7627e-14 2.29155 0.104066)
(-4.29747e-15 1.61933 -0.365753)
(1.76516e-15 1.03729 -0.843765)
(-3.91543e-15 0.707266 -1.3202)
(-3.35691e-15 0.510144 -1.71721)
(-3.83444e-15 0.377122 -2.0307)
(-2.00575e-15 0.273714 -2.26799)
(1.901e-16 0.184738 -2.4366)
(7.04906e-15 0.103161 -2.5412)
(1.12511e-14 0.0268662 -2.58472)
(1.25932e-14 -0.0433189 -2.57091)
(1.03976e-14 -0.106788 -2.50596)
(1.05322e-14 -0.166045 -2.3979)
(6.76253e-15 -0.224519 -2.25076)
(7.26256e-15 -0.284597 -2.06639)
(5.35732e-15 -0.347794 -1.84327)
(3.15135e-16 -0.416515 -1.57654)
(1.04397e-15 -0.495822 -1.26099)
(-1.08445e-14 -0.59317 -0.8945)
(-2.49823e-14 -0.71587 -0.477729)
(-8.59344e-15 -0.865273 0.00248787)
(1.74979e-15 -1.01954 0.524764)
(-1.30644e-15 -1.1638 1.06899)
(-5.53379e-15 -1.30151 1.64599)
(-5.81308e-15 -1.43796 2.2599)
(-5.19802e-15 -1.57595 2.91138)
(-4.0536e-15 -1.71491 3.59977)
(-1.65561e-15 -1.85174 4.32378)
(1.83842e-16 -1.9815 5.08169)
(8.92784e-16 -2.0974 5.87183)
(-1.12571e-15 -2.1916 6.69038)
(-2.45883e-15 -2.25427 7.53305)
(-3.04302e-15 -2.28103 8.38396)
(-2.67537e-15 -2.26108 9.24311)
(-2.37523e-15 -2.22199 10.0519)
(-2.45718e-15 -2.12145 10.9127)
(-2.72783e-15 -2.14839 11.5082)
(-2.55704e-15 -1.92645 12.6618)
(1.13578e-15 0.463739 19.8691)
(4.28255e-16 0.387796 19.0649)
(9.17386e-16 0.339904 18.3937)
(8.64887e-16 0.307466 17.8211)
(5.94686e-16 0.280661 17.2799)
(5.2242e-16 0.259685 16.7534)
(-8.12472e-16 0.245732 16.243)
(-8.66621e-16 0.238876 15.7445)
(-7.56991e-16 0.238679 15.2543)
(1.22347e-16 0.244361 14.7743)
(1.17231e-16 0.257262 14.3018)
(2.23047e-16 0.279953 13.8181)
(6.24723e-16 0.312035 13.3101)
(7.68163e-16 0.35065 12.7699)
(1.13348e-15 0.393129 12.1915)
(1.48979e-15 0.437114 11.5708)
(1.98904e-15 0.480161 10.9065)
(1.86777e-15 0.52052 10.2006)
(1.53258e-15 0.557965 9.45608)
(2.13018e-15 0.593437 8.674)
(2.78941e-15 0.627319 7.85587)
(2.18489e-15 0.658347 7.01151)
(1.93186e-15 0.685103 6.15943)
(3.26337e-15 0.709049 5.3089)
(1.83839e-15 0.736362 4.44637)
(-3.21498e-15 0.774388 3.55427)
(-2.02593e-14 0.821233 2.63995)
(-2.3158e-14 0.85737 1.76651)
(-1.86751e-14 0.845214 1.04362)
(-2.49386e-14 0.742572 0.58469)
(-4.77729e-15 0.543623 0.287463)
(-3.34019e-14 0.355457 0.105504)
(-1.12922e-14 -0.0941646 0.123636)
(-1.18096e-14 -0.36549 0.397219)
(-8.71596e-15 -0.534981 0.76982)
(-3.16219e-15 -0.670944 1.2446)
(-2.73708e-15 -0.783483 1.80628)
(-2.28039e-15 -0.877348 2.43441)
(-8.21919e-16 -0.958396 3.10431)
(1.03548e-15 -1.0356 3.7922)
(4.93622e-17 -1.12056 4.48361)
(-1.32422e-15 -1.21772 5.17483)
(-2.95199e-15 -1.32141 5.86998)
(-3.6995e-15 -1.41258 6.57608)
(-4.01415e-15 -1.46463 7.28743)
(-3.13582e-15 -1.45875 7.9758)
(-1.30743e-15 -1.39743 8.60601)
(6.8077e-16 -1.28953 9.15222)
(2.34492e-15 -1.13107 9.58455)
(2.62448e-15 -0.917616 9.87721)
(3.09363e-15 -0.631788 10.0744)
(5.56447e-15 -0.186353 10.242)
(8.01054e-15 0.500676 10.2166)
(7.23766e-15 1.15232 9.79288)
(4.99167e-15 1.59556 9.05432)
(3.69948e-15 1.85843 8.13506)
(3.17437e-15 2.01431 7.1036)
(3.01255e-15 2.11599 5.98902)
(1.89362e-15 2.20745 4.82622)
(5.7523e-15 2.3627 3.55151)
(-7.42315e-16 2.65205 1.99091)
(-1.51196e-14 2.8328 0.548191)
(-1.59684e-14 2.4613 -0.0942602)
(-4.59941e-15 1.74021 -0.394942)
(-7.89705e-15 1.18112 -0.826859)
(-1.34145e-14 0.840132 -1.26346)
(-7.85663e-15 0.621096 -1.64108)
(-7.60497e-15 0.464963 -1.94593)
(-5.02048e-15 0.339397 -2.17889)
(-2.41076e-15 0.229284 -2.34409)
(5.94042e-15 0.127395 -2.44472)
(1.22036e-14 0.0319689 -2.48331)
(2.27629e-14 -0.0559816 -2.46346)
(2.95246e-14 -0.135047 -2.39188)
(2.74312e-14 -0.208342 -2.27736)
(1.67362e-14 -0.280186 -2.12416)
(1.11712e-14 -0.353702 -1.9345)
(5.33262e-15 -0.43107 -1.70747)
(-1.40159e-15 -0.51547 -1.43901)
(-4.19734e-15 -0.612818 -1.12478)
(-1.1204e-14 -0.73071 -0.764478)
(-1.85507e-14 -0.875646 -0.357929)
(-9.10235e-15 -1.0423 0.0970984)
(2.50516e-15 -1.20862 0.582762)
(-3.29529e-15 -1.36585 1.09174)
(-7.10809e-15 -1.51828 1.63074)
(-5.99584e-15 -1.67015 2.20121)
(-5.37362e-15 -1.8234 2.80192)
(-3.49269e-15 -1.97714 3.43009)
(-2.24025e-15 -2.12814 4.08194)
(9.89055e-16 -2.27157 4.75358)
(3.08631e-16 -2.40059 5.44193)
(-3.28914e-15 -2.50681 6.14305)
(-5.31728e-15 -2.57869 6.85251)
(-4.73746e-15 -2.61067 7.55653)
(-4.14645e-15 -2.58814 8.25169)
(-3.7912e-15 -2.54466 8.88774)
(-3.72836e-15 -2.42667 9.54087)
(-3.67056e-15 -2.47031 9.97108)
(-3.40463e-15 -2.21502 10.8122)
(1.1274e-15 0.525129 19.568)
(1.15197e-15 0.439586 18.7929)
(3.40296e-16 0.388445 18.1371)
(-2.60812e-16 0.355382 17.5687)
(-3.66311e-16 0.328616 17.0219)
(7.16359e-16 0.308046 16.4828)
(9.71488e-16 0.294696 15.9555)
(8.93441e-16 0.288395 15.4386)
(1.37165e-15 0.288486 14.932)
(1.97066e-15 0.294683 14.4394)
(1.31013e-15 0.309509 13.9505)
(1.75819e-15 0.335819 13.4419)
(1.55545e-15 0.372546 12.9039)
(1.50126e-15 0.41663 12.3351)
(1.51958e-15 0.46562 11.736)
(1.71446e-15 0.517237 11.103)
(1.88459e-15 0.56862 10.4289)
(2.68124e-15 0.617438 9.70879)
(2.66444e-15 0.663197 8.9418)
(2.40597e-15 0.706693 8.13061)
(2.34661e-15 0.747421 7.28374)
(1.08087e-15 0.782865 6.42113)
(2.2642e-15 0.812253 5.56364)
(3.48655e-15 0.840013 4.70928)
(1.41398e-15 0.87395 3.83574)
(-6.58751e-15 0.918034 2.93976)
(-2.64994e-14 0.962744 2.05985)
(-2.55343e-14 0.980954 1.28183)
(-1.29376e-14 0.933193 0.703229)
(-2.41053e-14 0.79668 0.369138)
(-7.01924e-15 0.577045 0.142249)
(-2.34322e-14 0.422181 0.0253703)
(-9.13743e-15 -0.132328 0.0578048)
(-1.1607e-14 -0.426559 0.294386)
(-1.06055e-14 -0.620016 0.626804)
(-5.70277e-15 -0.778094 1.06046)
(-3.86043e-15 -0.909327 1.58037)
(-1.75991e-15 -1.01731 2.16516)
(3.89313e-16 -1.10738 2.78814)
(2.06586e-15 -1.18945 3.42623)
(7.30222e-16 -1.27717 4.06356)
(-8.57092e-16 -1.37687 4.69229)
(-2.39953e-15 -1.48457 5.3104)
(-2.86219e-15 -1.58062 5.92425)
(-2.31212e-15 -1.63479 6.53505)
(-1.594e-15 -1.62412 7.12324)
(-6.82198e-16 -1.55013 7.6608)
(-2.61139e-16 -1.42214 8.12554)
(5.38556e-16 -1.23641 8.48234)
(-2.1958e-15 -0.998404 8.69643)
(-5.26764e-15 -0.700244 8.81946)
(-8.90869e-15 -0.230365 8.93767)
(-2.28415e-15 0.541201 8.87983)
(3.05727e-15 1.28373 8.44906)
(4.33262e-15 1.78896 7.74852)
(4.03233e-15 2.0926 6.90151)
(3.7339e-15 2.27889 5.95458)
(3.44748e-15 2.40441 4.92791)
(7.80357e-16 2.52917 3.84648)
(3.45445e-15 2.74883 2.5914)
(-5.3893e-15 3.0483 1.10354)
(-1.59779e-14 3.07597 0.0649022)
(-1.55934e-14 2.55262 -0.225278)
(-8.09378e-15 1.83992 -0.459052)
(-1.47934e-14 1.30913 -0.844663)
(-1.06152e-14 0.962588 -1.24049)
(-7.37942e-15 0.726484 -1.59467)
(-3.02833e-15 0.549885 -1.88575)
(-1.53204e-15 0.403377 -2.10943)
(-4.03019e-15 0.27271 -2.26733)
(-1.44119e-15 0.150768 -2.3613)
(3.72514e-17 0.0362249 -2.39334)
(9.60567e-15 -0.0701228 -2.36641)
(1.58182e-14 -0.165244 -2.28783)
(2.10757e-14 -0.252825 -2.16722)
(1.98644e-14 -0.337994 -2.00906)
(1.33821e-14 -0.424586 -1.81595)
(4.59514e-15 -0.51556 -1.5874)
(-4.23833e-16 -0.614957 -1.31998)
(-4.81492e-15 -0.729252 -1.01031)
(-1.53943e-14 -0.865507 -0.659742)
(-2.44699e-14 -1.02863 -0.268189)
(-1.18436e-14 -1.20912 0.162307)
(-2.501e-15 -1.38672 0.618482)
(-3.66874e-15 -1.55644 1.09876)
(-5.41995e-15 -1.72234 1.60753)
(-6.33801e-15 -1.88767 2.14492)
(-5.84992e-15 -2.0535 2.70851)
(-2.97303e-15 -2.21837 3.2939)
(-7.45351e-16 -2.3788 3.89518)
(5.19793e-16 -2.53016 4.50623)
(-2.12167e-15 -2.66582 5.12184)
(-6.03066e-15 -2.77705 5.7365)
(-6.21466e-15 -2.85087 6.34351)
(-5.54812e-15 -2.88027 6.92949)
(-4.57442e-15 -2.84678 7.4831)
(-4.55651e-15 -2.78861 7.96296)
(-4.92652e-15 -2.64486 8.40162)
(-5.28731e-15 -2.69612 8.66423)
(-4.91254e-15 -2.41191 9.12539)
(8.166e-16 0.587603 19.2108)
(3.61122e-16 0.493761 18.4609)
(-4.77399e-16 0.438679 17.8185)
(-1.21108e-15 0.404396 17.2551)
(-9.00865e-16 0.377375 16.7061)
(-6.33528e-16 0.35708 16.1594)
(-6.42445e-16 0.344211 15.6208)
(1.56473e-16 0.338142 15.0915)
(4.98808e-17 0.338031 14.575)
(2.91822e-16 0.344761 14.0751)
(5.11603e-16 0.362401 13.573)
(8.66992e-16 0.39358 13.0452)
(1.23449e-15 0.435754 12.4811)
(1.48295e-15 0.484973 11.8826)
(1.48896e-15 0.539183 11.2564)
(1.87491e-15 0.597188 10.6028)
(2.67502e-15 0.656594 9.91158)
(3.20459e-15 0.714523 9.17137)
(3.25002e-15 0.76951 8.37775)
(2.84637e-15 0.821223 7.53663)
(2.04258e-15 0.867613 6.66694)
(3.23257e-16 0.905614 5.79777)
(1.20172e-15 0.936939 4.94418)
(4.0713e-15 0.969264 4.08916)
(1.42557e-15 1.00925 3.2127)
(-1.07234e-14 1.05457 2.33818)
(-3.36697e-14 1.08865 1.52926)
(-2.4322e-14 1.08143 0.871515)
(-6.98814e-15 0.999134 0.427542)
(-2.39133e-14 0.836591 0.17806)
(-7.8778e-15 0.605436 -0.00148577)
(-9.32549e-15 0.425574 -0.0633572)
(-8.63752e-15 -0.165278 -0.00842304)
(-9.98559e-15 -0.479496 0.187465)
(-9.09463e-15 -0.697141 0.477353)
(-5.82648e-15 -0.877041 0.865688)
(-3.89769e-15 -1.02676 1.33834)
(-7.8929e-16 -1.14852 1.87484)
(1.31021e-15 -1.24742 2.44829)
(2.38627e-15 -1.33415 3.03791)
(1.01039e-15 -1.4237 3.626)
(-5.69544e-16 -1.5235 4.2017)
(-8.41152e-16 -1.63165 4.75523)
(9.05143e-17 -1.72937 5.29)
(9.0075e-16 -1.78426 5.81232)
(9.38727e-16 -1.76968 6.31203)
(1.3777e-16 -1.68535 6.77052)
(-1.71726e-16 -1.5392 7.16991)
(-7.45891e-16 -1.326 7.46699)
(-1.16983e-16 -1.06291 7.61498)
(2.78516e-15 -0.755509 7.67365)
(-1.47404e-15 -0.265341 7.7457)
(-2.33081e-15 0.58807 7.63982)
(4.92841e-16 1.41053 7.18584)
(2.97595e-15 1.96577 6.51542)
(3.86316e-15 2.3035 5.73491)
(4.33506e-15 2.51766 4.86607)
(4.06928e-15 2.66792 3.92153)
(6.56124e-16 2.83619 2.9041)
(2.12075e-15 3.11295 1.66434)
(-9.851e-15 3.36215 0.359438)
(-1.702e-14 3.2137 -0.239681)
(-1.85802e-14 2.60191 -0.340805)
(-1.52268e-14 1.92612 -0.543049)
(-1.58822e-14 1.42224 -0.882062)
(-7.00595e-15 1.07454 -1.23954)
(-5.28404e-15 0.825307 -1.56849)
(-2.71194e-15 0.630463 -1.84208)
(-6.46273e-15 0.46409 -2.05271)
(-1.29414e-14 0.313418 -2.20053)
(-1.66604e-14 0.171764 -2.28617)
(-1.86438e-14 0.0384524 -2.31068)
(-1.15568e-14 -0.0863035 -2.27599)
(-2.79256e-15 -0.197077 -2.19043)
(5.7722e-15 -0.29841 -2.06431)
(8.89873e-15 -0.396292 -1.90232)
(8.24982e-15 -0.49532 -1.70732)
(3.98683e-15 -0.599226 -1.47909)
(5.81024e-18 -0.712782 -1.21484)
(-5.64434e-15 -0.842744 -0.912191)
(-1.95307e-14 -0.995387 -0.573648)
(-2.37052e-14 -1.17403 -0.198858)
(-9.88021e-15 -1.3666 0.208615)
(-3.47954e-15 -1.55519 0.639149)
(-6.26018e-15 -1.73716 1.09412)
(-7.52284e-15 -1.91591 1.57675)
(-7.48652e-15 -2.09374 2.08671)
(-5.70345e-15 -2.27076 2.62113)
(-2.91544e-15 -2.44471 3.17483)
(6.7584e-17 -2.61165 3.74065)
(-3.32069e-16 -2.76705 4.3108)
(-4.56163e-15 -2.90439 4.87782)
(-6.54692e-15 -3.01456 5.43383)
(-5.30873e-15 -3.08327 5.96864)
(-4.52055e-15 -3.10137 6.46832)
(-4.82873e-15 -3.04659 6.91032)
(-5.57231e-15 -2.95785 7.26213)
(-6.31425e-15 -2.77507 7.49411)
(-6.57571e-15 -2.81314 7.60235)
(-5.97905e-15 -2.50012 7.63081)
(-5.18062e-16 0.645244 18.8057)
(-5.36993e-16 0.543902 18.0779)
(-9.8384e-16 0.485092 17.4486)
(-1.15769e-15 0.449851 16.8915)
(-3.46787e-16 0.423066 16.3417)
(-4.71025e-16 0.40362 15.7886)
(-1.734e-15 0.391686 15.2402)
(-8.7876e-16 0.386027 14.7012)
(-5.1872e-16 0.385862 14.1793)
(-1.02447e-15 0.393598 13.6749)
(-5.17717e-16 0.414694 13.1628)
(-1.89371e-16 0.45141 12.6208)
(3.9244e-16 0.49982 12.0369)
(9.11762e-16 0.554669 11.4132)
(1.22772e-15 0.613946 10.7602)
(1.74363e-15 0.677867 10.0807)
(2.45252e-15 0.745165 9.36395)
(3.0425e-15 0.812593 8.59536)
(2.27763e-15 0.877108 7.7704)
(2.58747e-15 0.936272 6.90192)
(2.28708e-15 0.986293 6.02065)
(-4.5022e-16 1.02513 5.15811)
(8.63956e-16 1.05852 4.31417)
(2.34992e-15 1.09587 3.46156)
(7.32751e-16 1.13928 2.59773)
(-1.38928e-14 1.17932 1.77494)
(-3.74802e-14 1.19541 1.06405)
(-2.11833e-14 1.15999 0.531108)
(-3.48024e-15 1.04861 0.198085)
(-2.37557e-14 0.865228 0.00453953)
(-2.25645e-14 0.626673 -0.131317)
(-6.09973e-15 0.3931 -0.153089)
(-8.64209e-15 -0.191537 -0.076066)
(-8.26006e-15 -0.525199 0.0831423)
(-8.57092e-15 -0.765565 0.329138)
(-7.33962e-15 -0.966628 0.667962)
(-4.06387e-15 -1.13467 1.08804)
(2.96774e-17 -1.27027 1.57228)
(1.46358e-15 -1.3783 2.09459)
(2.02854e-15 -1.46997 2.63609)
(6.35913e-16 -1.56111 3.17661)
(9.13738e-16 -1.65967 3.70414)
(1.3084e-15 -1.76546 4.20254)
(1.84987e-15 -1.86165 4.67127)
(2.45364e-15 -1.9156 5.11776)
(2.07578e-15 -1.89841 5.54081)
(5.8462e-16 -1.80663 5.93332)
(-8.28955e-16 -1.64416 6.28201)
(-7.06084e-16 -1.40276 6.53264)
(1.22304e-15 -1.1135 6.62314)
(3.62119e-15 -0.799626 6.62339)
(3.60869e-15 -0.290813 6.65083)
(3.57729e-16 0.644963 6.48097)
(1.80915e-16 1.53509 5.99511)
(2.08279e-15 2.1274 5.35445)
(3.46224e-15 2.49287 4.63845)
(4.3701e-15 2.73285 3.84271)
(4.71133e-15 2.91043 2.97236)
(4.14519e-16 3.13082 2.0024)
(3.1828e-16 3.43652 0.801211)
(-1.41399e-14 3.58105 -0.200496)
(-1.8229e-14 3.27029 -0.43391)
(-2.40281e-14 2.63101 -0.457453)
(-2.043e-14 2.00097 -0.63439)
(-1.64721e-14 1.5219 -0.930746)
(-5.2484e-15 1.17634 -1.25332)
(-4.76348e-15 0.916823 -1.55609)
(-3.74395e-15 0.705586 -1.80945)
(-8.18531e-15 0.520581 -2.00448)
(-1.39864e-14 0.350775 -2.14061)
(-1.92395e-14 0.189973 -2.21698)
(-2.32037e-14 0.0382851 -2.23332)
(-2.07925e-14 -0.105006 -2.19034)
(-1.61449e-14 -0.231004 -2.09787)
(-4.04263e-15 -0.345479 -1.96678)
(8.95892e-15 -0.455342 -1.80184)
(5.20941e-15 -0.566013 -1.60609)
(9.25865e-16 -0.681993 -1.37962)
(-2.4514e-15 -0.808659 -1.12021)
(-4.27503e-15 -0.95286 -0.826297)
(-1.41909e-14 -1.12009 -0.500917)
(-2.22989e-14 -1.3122 -0.143425)
(-9.27183e-15 -1.51567 0.242339)
(-2.67027e-15 -1.71498 0.649605)
(-6.87799e-15 -1.90897 1.08131)
(-7.01749e-15 -2.10027 1.5401)
(-7.65972e-15 -2.29022 2.0257)
(-4.97627e-15 -2.47795 2.53535)
(-1.35673e-15 -2.66024 3.06395)
(5.76525e-16 -2.83248 3.60399)
(-1.24244e-15 -2.9899 4.14677)
(-4.43059e-15 -3.12579 4.68279)
(-4.78684e-15 -3.23042 5.20172)
(-3.86375e-15 -3.2883 5.68974)
(-4.74213e-15 -3.28707 6.13192)
(-5.28763e-15 -3.20071 6.49316)
(-6.11493e-15 -3.06163 6.74853)
(-6.7153e-15 -2.82366 6.79099)
(-6.85049e-15 -2.81593 6.76827)
(-6.24096e-15 -2.46876 6.31553)
(1.12834e-15 0.691043 18.3619)
(1.05448e-15 0.583895 17.6514)
(1.04873e-15 0.524591 17.0268)
(8.98182e-16 0.490717 16.4666)
(1.77487e-15 0.465615 15.9091)
(1.17679e-15 0.447798 15.3466)
(2.87705e-15 0.43696 14.7891)
(2.30116e-15 0.431241 14.2432)
(2.24457e-15 0.430595 13.7192)
(1.98593e-15 0.439566 13.2118)
(1.30828e-15 0.464952 12.6971)
(1.17045e-15 0.508357 12.1524)
(8.80796e-16 0.564184 11.5611)
(5.79051e-16 0.625507 10.9221)
(1.59496e-15 0.690219 10.2462)