/*--------------------------------*- C++ -*----------------------------------*\
| =========                 |                                                 |
| \\      /  F ield         | OpenFOAM: The Open Source CFD Toolbox           |
|  \\    /   O peration     | Version:  4.1                                   |
|   \\  /    A nd           | Web:      www.OpenFOAM.org                      |
|    \\/     M anipulation  |                                                 |
\*---------------------------------------------------------------------------*/
FoamFile
{
    version     2.0;
    format      ascii;
    class       volScalarField;
    location    "900";
    object      p;
}
// * * * * * * * * * * * * * * * * * * * * * * * * * * * * * * * * * * * * * //

dimensions      [0 2 -2 0 0 0 0];

internalField   nonuniform List<scalar> 
26785
(
181.23
179.759
179.638
179.864
181.193
183.628
187.475
193.003
200.55
210.408
222.587
236.542
251.384
266.509
281.779
297.177
312.546
327.594
342.007
355.532
367.898
378.817
388.131
395.783
401.789
406.219
409.183
410.821
411.269
410.64
409.005
406.257
402.176
396.554
389.159
379.745
368.059
353.842
336.848
316.844
293.63
267.065
237.101
203.824
167.502
128.619
87.9094
46.3663
5.24361
-33.9719
-69.62
-99.9641
-123.303
-138.074
-142.964
-137.078
-120.162
-92.5827
-55.0257
-8.75217
44.617
103.208
165.038
228.111
290.424
349.753
403.182
446.645
474.831
482.707
472.262
451.842
436.913
434.6
436.395
436.014
432.643
427.288
420.221
411.282
400.579
388.431
375.126
360.859
345.765
329.934
313.417
296.225
278.336
259.707
240.272
219.958
198.662
176.321
152.73
128.029
101.464
74.6196
43.0401
19.3056
181.242
179.75
179.63
179.851
181.178
183.607
187.45
192.973
200.514
210.371
222.554
236.516
251.366
266.494
281.765
297.166
312.541
327.597
342.016
355.549
367.923
378.848
388.168
395.822
401.829
406.259
409.223
410.86
411.308
410.681
409.051
406.314
402.243
396.631
389.246
379.84
368.157
353.941
336.943
316.928
293.698
267.109
237.112
203.796
167.426
128.487
87.7125
46.0988
4.89993
-34.3955
-70.1249
-100.549
-123.966
-138.811
-143.768
-137.937
-121.062
-93.5233
-55.9966
-9.75408
43.574
102.102
163.834
226.761
288.877
347.973
401.181
444.483
472.629
480.802
470.348
450.097
436.162
434.578
436.428
436.088
432.785
427.436
420.31
411.298
400.538
388.351
375.021
360.741
345.643
329.817
313.309
296.13
278.256
259.644
240.225
219.929
198.649
176.324
152.746
128.061
101.494
74.6775
43.0455
19.3861
181.258
179.734
179.613
179.827
181.146
183.568
187.4
192.912
200.443
210.296
222.485
236.464
251.327
266.461
281.736
297.144
312.531
327.6
342.034
355.581
367.972
378.911
388.239
395.899
401.909
406.34
409.303
410.939
411.387
410.762
409.144
406.428
402.377
396.786
389.419
380.028
368.354
354.139
337.131
317.096
293.832
267.196
237.136
203.739
167.272
128.219
87.3153
45.5587
4.20601
-35.2509
-71.1445
-101.731
-125.304
-140.296
-145.382
-139.652
-122.846
-95.3732
-57.8947
-11.6973
41.5717
100.006
161.582
224.273
286.066
344.787
397.646
440.725
468.852
477.279
466.911
447.365
434.885
434.527
436.495
436.234
433.02
427.647
420.394
411.247
400.391
388.141
374.773
360.477
345.381
329.571
313.089
295.94
278.1
259.521
240.137
219.876
198.628
176.335
152.782
128.129
101.558
74.7896
43.0553
19.5328
181.278
179.707
179.587
179.788
181.098
183.507
187.326
192.822
200.339
210.185
222.385
236.387
251.272
266.414
281.693
297.111
312.515
327.607
342.062
355.63
368.046
379.005
388.347
396.015
402.029
406.461
409.423
411.057
411.505
410.884
409.283
406.596
402.576
397.015
389.676
380.307
368.646
354.431
337.409
317.343
294.029
267.32
237.165
203.649
167.035
127.812
86.7155
44.7459
3.16436
-36.5325
-72.67
-103.497
-127.303
-142.514
-147.795
-142.215
-125.513
-98.1334
-60.7205
-14.582
38.6109
96.9211
158.29
220.658
282.01
340.22
392.62
435.441
463.634
472.451
462.31
443.663
433.455
434.544
436.588
436.361
433.196
427.765
420.353
411.045
400.076
387.757
374.354
360.051
344.973
329.196
312.757
295.657
277.868
259.343
240.011
219.801
198.601
176.358
152.84
128.234
101.657
74.9566
43.0728
19.7476
181.3
179.673
179.55
179.736
181.033
183.425
187.226
192.702
200.2
210.039
222.252
236.286
251.198
266.353
281.637
297.068
312.496
327.617
342.1
355.697
368.146
379.131
388.49
396.17
402.19
406.624
409.584
411.215
411.663
411.047
409.467
406.817
402.838
397.317
390.014
380.674
369.03
354.815
337.774
317.666
294.284
267.48
237.199
203.522
166.716
127.266
85.9134
43.6613
1.77598
-38.2393
-74.7004
-105.846
-129.959
-145.46
-150.996
-145.611
-129.038
-101.769
-64.4304
-18.3537
34.7606
92.9363
154.068
216.056
276.876
334.471
386.33
428.88
457.223
466.574
456.863
439.47
432.59
434.55
436.484
436.263
433.175
427.678
420.089
410.618
399.543
387.167
373.745
359.454
344.412
328.688
312.312
295.282
277.564
259.111
239.85
219.71
198.575
176.396
152.926
128.382
101.798
75.1842
43.1003
20.0376
181.334
179.627
179.503
179.669
180.949
183.322
187.101
192.553
200.029
209.859
222.089
236.162
251.108
266.277
281.568
297.015
312.472
327.63
342.15
355.782
368.271
379.288
388.671
396.364
402.391
406.827
409.786
411.413
411.861
411.251
409.695
407.087
403.158
397.686
390.429
381.125
369.501
355.286
338.22
318.059
294.594
267.671
237.231
203.356
166.309
126.579
84.9066
42.3025
0.0386305
-40.3735
-77.2376
-108.779
-133.275
-149.137
-154.99
-149.841
-133.419
-106.272
-69.0142
-22.9967
30.044
88.0858
148.967
210.534
270.756
327.65
378.901
421.183
449.78
459.845
450.846
435.286
431.863
434.399
436.232
435.943
432.836
427.265
419.522
409.923
398.771
386.361
372.941
358.683
343.697
328.046
311.754
294.813
277.187
258.825
239.653
219.6
198.547
176.449
153.041
128.573
101.982
75.4771
43.1373
20.417
181.35
179.573
179.444
179.587
180.848
183.198
186.951
192.376
199.826
209.645
221.895
236.014
251.002
266.188
281.486
296.953
312.445
327.648
342.212
355.887
368.424
379.479
388.888
396.597
402.632
407.072
410.029
411.652
412.098
411.495
409.964
407.404
403.534
398.121
390.918
381.655
370.055
355.839
338.743
318.519
294.953
267.887
237.26
203.148
165.813
125.746
83.6921
40.6666
-2.05011
-42.9364
-80.2814
-112.294
-137.243
-153.534
-159.761
-154.886
-138.632
-111.612
-74.4324
-28.4628
24.5213
82.4457
143.082
204.215
263.793
319.924
370.513
412.535
441.49
452.47
444.482
431.095
430.99
433.976
435.775
435.348
432.145
426.519
418.663
408.974
397.769
385.345
371.945
357.738
342.828
327.27
311.081
294.248
276.732
258.481
239.417
219.47
198.515
176.517
153.183
128.81
102.212
75.8408
43.1831
20.9072
181.354
179.508
179.374
179.49
180.728
183.051
186.776
192.17
199.591
209.397
221.67
235.844
250.88
266.085
281.392
296.881
312.415
327.67
342.287
356.013
368.604
379.704
389.144
396.871
402.916
407.358
410.313
411.931
412.374
411.779
410.274
407.765
403.963
398.617
391.475
382.261
370.687
356.47
339.338
319.04
295.357
268.127
237.281
202.892
165.224
124.765
82.2653
38.7489
-4.49494
-45.9324
-83.8349
-116.392
-141.863
-158.647
-165.303
-160.733
-144.657
-117.76
-80.6494
-34.7065
18.2509
76.0919
136.513
197.222
256.141
311.466
361.352
403.122
432.537
444.66
437.942
427.136
429.967
433.333
435.133
434.493
431.183
425.504
417.554
407.793
396.551
384.129
370.767
356.628
341.809
326.359
310.289
293.582
276.194
258.071
239.133
219.31
198.471
176.59
153.346
129.087
102.485
76.2761
43.2341
21.5352
181.352
179.433
179.292
179.377
180.589
182.883
186.576
191.935
199.325
209.117
221.417
235.653
250.743
265.97
281.286
296.8
312.381
327.697
342.375
356.16
368.812
379.962
389.438
397.186
403.241
407.687
410.64
412.25
412.69
412.102
410.622
408.168
404.441
399.17
392.098
382.938
371.395
357.175
340.002
319.62
295.803
268.384
237.289
202.586
164.536
123.629
80.621
36.5441
-7.30054
-49.3645
-87.898
-121.068
-147.122
-164.455
-171.584
-167.341
-151.448
-124.66
-87.6006
-41.6518
11.3234
69.1335
129.392
189.719
247.993
302.494
351.647
393.166
423.134
436.627
431.372
423.556
428.914
432.519
434.311
433.411
430
424.255
416.219
406.403
395.141
382.736
369.427
355.369
340.653
325.322
309.382
292.812
275.565
257.585
238.788
219.108
198.402
176.657
153.519
129.393
102.794
76.7775
43.2872
22.3304
181.347
179.349
179.196
179.248
180.431
182.692
186.351
191.673
199.028
208.806
221.135
235.44
250.592
265.842
281.167
296.708
312.344
327.729
342.477
356.329
369.05
380.256
389.771
397.542
403.608
408.058
411.008
412.61
413.044
412.463
411.008
408.61
404.966
399.777
392.782
383.683
372.172
357.949
340.73
320.252
296.285
268.655
237.28
202.225
163.745
122.334
78.7532
34.046
-10.472
-53.2349
-92.4679
-126.31
-152.997
-170.921
-178.555
-174.645
-158.935
-132.236
-95.1993
-49.2004
3.85047
61.7001
121.873
181.889
239.566
293.252
341.653
382.913
413.505
428.576
424.906
420.415
427.785
431.503
433.265
432.108
428.61
422.789
414.684
404.831
393.565
381.194
367.95
353.982
339.377
324.171
308.367
291.94
274.842
257.014
238.37
218.845
198.287
176.696
153.68
129.71
103.123
77.3296
43.3412
23.3055
181.359
179.25
179.088
179.103
180.253
182.478
186.102
191.384
198.702
208.463
220.824
235.206
250.426
265.701
281.035
296.607
312.303
327.765
342.594
356.522
369.318
380.586
390.145
397.941
404.019
408.472
411.419
413.011
413.437
412.861
411.429
409.089
405.533
400.434
393.523
384.49
373.016
358.788
341.516
320.932
296.799
268.935
237.251
201.803
162.845
120.873
76.655
31.2482
-14.0135
-57.5429
-97.5344
-132.093
-159.443
-177.979
-186.126
-182.539
-167.011
-140.383
-103.336
-57.2373
-4.04514
53.9269
114.113
173.919
231.079
283.992
331.635
372.622
403.889
420.68
418.68
417.745
426.506
430.239
431.964
430.585
427.021
421.125
412.972
403.102
391.85
379.529
366.362
352.494
338.003
322.925
307.258
290.975
274.025
256.352
237.866
218.504
198.105
176.683
153.803
130.009
103.447
77.9067
43.4062
24.4123
181.311
179.144
178.966
178.94
180.055
182.242
185.827
191.069
198.347
208.091
220.487
234.953
250.247
265.549
280.892
296.496
312.258
327.807
342.724
356.738
369.617
380.953
390.559
398.383
404.474
408.93
411.872
413.454
413.868
413.296
411.883
409.601
406.14
401.138
394.318
385.356
373.92
359.687
342.357
321.656
297.34
269.219
237.194
201.315
161.831
119.239
74.3193
28.1448
-17.9268
-62.2809
-103.075
-138.371
-166.385
-185.524
-194.17
-190.888
-175.556
-148.999
-111.913
-65.6706
-12.2738
45.9087
106.222
165.946
222.71
274.929
321.837
362.537
394.512
413.075
412.834
415.531
425.029
428.721
430.392
428.846
425.235
419.279
411.101
401.236
390.019
377.763
364.687
350.926
336.556
321.606
306.073
289.929
273.125
255.603
237.273
218.076
197.838
176.593
153.857
130.256
103.735
78.4736
43.5105
25.4935
181.244
179.027
178.829
178.76
179.836
181.983
185.528
190.727
197.964
207.69
220.122
234.68
250.055
265.385
280.736
296.375
312.21
327.854
342.87
356.979
369.947
381.357
391.016
398.87
404.973
409.431
412.37
413.938
414.338
413.766
412.369
410.144
406.782
401.883
395.161
386.276
374.881
360.64
343.246
322.417
297.903
269.502
237.106
200.755
160.694
117.425
71.7386
24.7312
-22.2088
-67.4313
-109.047
-145.071
-173.715
-193.421
-202.542
-199.57
-184.477
-158.021
-120.888
-74.4748
-20.8191
37.6616
98.2279
158.028
214.557
266.209
312.443
352.859
385.575
405.858
407.515
413.712
423.331
426.969
428.55
426.894
423.26
417.262
409.085
399.247
388.085
375.914
362.942
349.299
335.054
320.233
304.831
288.822
272.156
254.778
236.596
217.558
197.478
176.41
153.819
130.422
103.96
78.9878
43.6815
26.3286
181.169
178.897
178.677
178.562
179.596
181.7
185.205
190.361
197.554
207.26
219.732
234.389
249.851
265.209
280.569
296.245
312.159
327.907
343.03
357.246
370.312
381.801
391.516
399.401
405.517
409.978
412.911
414.463
414.845
414.269
412.884
410.716
407.456
402.665
396.047
387.245
375.893
361.643
344.178
323.211
298.481
269.778
236.98
200.117
159.429
115.424
68.9065
21.0058
-26.849
-72.9607
-115.385
-152.089
-181.301
-201.534
-211.133
-208.529
-193.76
-167.467
-130.299
-83.701
-29.7407
29.1257
90.0828
150.141
206.633
257.894
303.563
343.732
377.239
399.105
402.87
412.186
421.413
425.004
426.452
424.739
421.102
415.086
406.935
397.147
386.063
373.994
361.141
347.626
333.513
318.824
303.553
287.674
271.138
253.896
235.853
216.964
197.033
176.136
153.686
130.494
104.099
79.4115
43.8917
26.8131
181.084
178.757
178.509
178.345
179.333
181.394
184.857
189.969
197.119
206.803
219.317
234.081
249.635
265.023
280.389
296.103
312.103
327.965
343.207
357.538
370.711
382.284
392.06
399.978
406.107
410.569
413.496
415.031
415.39
414.804
413.425
411.312
408.157
403.481
396.973
388.257
376.951
362.69
345.149
324.032
299.07
270.041
236.81
199.393
158.027
113.226
65.8175
16.9717
-31.8254
-78.8161
-121.997
-159.302
-189.02
-209.779
-219.927
-217.813
-203.476
-177.411
-140.228
-93.4357
-39.128
20.2112
81.7027
142.216
198.902
249.989
295.25
335.244
369.62
392.892
399.024
410.841
419.308
422.846
424.119
422.396
418.773
412.763
404.663
394.948
383.961
372.013
359.294
345.919
331.944
317.392
302.252
286.502
270.093
252.98
235.068
216.319
196.526
175.79
153.47
130.481
104.143
79.7317
44.0419
27.0726
181.022
178.601
178.324
178.108
179.048
181.063
184.484
189.553
196.659
206.321
218.877
233.755
249.409
264.825
280.197
295.951
312.042
328.029
343.399
357.857
371.146
382.809
392.65
400.603
406.744
411.206
414.125
415.641
415.972
415.369
413.99
411.929
408.882
404.325
397.933
389.308
378.049
363.775
346.15
324.872
299.663
270.285
236.589
198.576
156.481
110.825
62.4689
12.6394
-37.1012
-84.9226
-128.773
-166.595
-196.798
-218.162
-229.008
-227.533
-213.728
-187.933
-150.746
-103.745
-49.0475
10.8485
73.0168
134.19
191.314
242.476
287.524
327.452
362.792
387.32
396.051
409.563
417.062
420.511
421.578
419.88
416.287
410.307
402.282
392.66
381.792
369.982
357.41
344.184
330.355
315.943
300.938
285.318
269.036
252.05
234.264
215.651
195.987
175.406
153.205
130.409
104.105
79.9692
44.0434
27.3209
180.872
178.435
178.121
177.849
178.738
180.706
184.086
189.114
196.176
205.814
218.414
233.414
249.174
264.618
279.992
295.787
311.977
328.098
343.608
358.204
371.617
383.376
393.286
401.276
407.429
411.889
414.799
416.293
416.591
415.964
414.578
412.566
409.626
405.192
398.922
390.392
379.182
364.892
347.177
325.726
300.253
270.503
236.31
197.66
154.782
108.214
58.8619
8.02933
-42.6222
-91.1872
-135.605
-173.895
-204.637
-226.768
-238.508
-237.805
-224.589
-199.076
-161.88
-114.649
-59.5208
1.00803
63.9871
126.02
183.834
235.336
280.4
320.399
356.795
382.504
393.948
408.256
414.716
418.011
418.859
417.212
413.661
407.736
399.807
390.299
379.568
367.911
355.498
342.43
328.753
314.485
299.616
284.128
267.975
251.118
233.459
214.98
195.445
175.014
152.924
130.317
104.023
80.169
43.9134
27.6632
180.708
178.257
177.899
177.569
178.403
180.323
183.663
188.651
195.671
205.283
217.928
233.057
248.929
264.4
279.775
295.612
311.906
328.173
343.834
358.58
372.124
383.987
393.971
401.998
408.163
412.619
415.518
416.987
417.246
416.586
415.185
413.217
410.385
406.079
399.934
391.505
380.344
366.035
348.222
326.587
300.832
270.688
235.965
196.634
152.922
105.389
55.0033
3.17402
-48.3175
-97.5104
-142.409
-181.184
-212.602
-235.711
-248.539
-248.696
-236.08
-210.836
-173.614
-126.13
-70.5366
-9.31068
54.5999
117.683
176.435
228.553
273.886
314.12
351.633
378.553
392.621
406.848
412.296
415.357
415.993
414.411
410.914
405.066
397.253
387.878
377.303
365.813
353.569
340.664
327.143
313.021
298.291
282.937
266.914
250.189
232.661
214.321
194.915
174.639
152.657
130.238
103.941
80.3816
43.739
28.1063
180.541
178.065
177.657
177.265
178.042
179.912
183.213
188.165
195.145
204.73
217.419
232.685
248.676
264.171
279.544
295.424
311.828
328.252
344.078
358.986
372.669
384.644
394.705
402.771
408.946
413.396
416.282
417.725
417.936
417.233
415.809
413.881
411.155
406.98
400.966
392.639
381.529
367.197
349.278
327.447
301.394
270.831
235.546
195.492
150.894
102.348
50.9074
-1.88029
-54.1043
-103.802
-149.145
-188.503
-220.784
-245.083
-259.151
-260.209
-248.179
-223.181
-185.912
-138.151
-82.068
-20.0951
44.853
109.164
169.094
222.107
267.978
308.636
347.279
375.521
391.888
405.294
409.816
412.567
413.007
411.496
408.068
402.318
394.637
385.412
375.009
363.698
351.632
338.896
325.532
311.556
296.965
281.745
265.855
249.265
231.872
213.675
194.405
174.288
152.418
130.194
103.885
80.6409
43.5712
28.6608
180.367
177.861
177.394
176.937
177.651
179.471
182.736
187.656
194.599
204.157
216.889
232.299
248.415
263.933
279.301
295.223
311.744
328.336
344.341
359.423
373.252
385.347
395.49
403.596
409.781
414.222
417.092
418.505
418.661
417.904
416.448
414.553
411.93
407.891
402.011
393.79
382.732
368.373
350.338
328.298
301.93
270.925
235.046
194.225
148.691
99.0922
46.5977
-7.07472
-59.897
-109.998
-155.818
-195.924
-229.272
-254.927
-270.334
-272.304
-260.84
-236.064
-198.722
-150.665
-94.0784
-31.3243
34.7516
100.454
161.789
215.968
262.656
303.937
343.675
373.369
391.513
403.583
407.286
409.667
409.929
408.49
405.144
399.509
391.977
382.919
372.701
361.58
349.698
337.133
323.926
310.095
295.641
280.555
264.798
248.345
231.091
213.043
193.914
173.963
152.209
130.188
103.863
80.957
43.4044
29.3556
180.212
177.639
177.11
176.583
177.231
178.998
182.229
187.123
194.035
203.567
216.339
231.898
248.147
263.685
279.043
295.009
311.651
328.425
344.622
359.893
373.876
386.098
396.329
404.475
410.667
415.096
417.948
419.328
419.421
418.598
417.1
415.232
412.707
408.806
403.064
394.953
383.945
369.554
351.395
329.133
302.432
270.962
234.455
192.823
146.308
95.6283
42.1073
-12.3414
-65.6191
-116.068
-162.471
-203.53
-238.125
-265.241
-282.043
-284.924
-274.008
-249.419
-211.974
-163.606
-106.513
-42.9621
24.3132
91.5553
154.504
210.103
257.876
299.981
340.734
371.949
391.245
401.728
404.724
406.696
406.792
405.417
402.166
396.661
389.291
380.414
370.393
359.47
347.775
335.382
322.329
308.641
294.321
279.367
263.743
247.429
230.317
212.422
193.441
173.661
152.028
130.216
103.87
81.3255
43.2226
30.1947
179.98
177.405
176.805
176.202
176.779
178.492
181.69
186.565
193.454
202.96
215.769
231.485
247.873
263.427
278.772
294.78
311.55
328.517
344.924
360.396
374.542
386.9
397.222
405.408
411.606
416.019
418.851
420.195
420.216
419.313
417.763
415.915
413.48
409.722
404.121
396.121
385.164
370.734
352.44
329.942
302.891
270.931
233.764
191.281
143.743
91.9692
37.4793
-17.6097
-71.2134
-122.016
-169.167
-211.399
-247.365
-275.978
-294.211
-297.993
-287.6
-263.152
-225.563
-176.869
-119.285
-54.9483
13.5736
82.4845
147.236
204.482
253.583
296.692
338.346
371.016
390.863
399.766
402.167
403.706
403.632
402.305
399.156
393.794
386.597
377.914
368.099
357.379
345.873
333.649
320.748
307.197
293.007
278.183
262.692
246.518
229.551
211.813
192.983
173.38
151.872
130.274
103.907
81.7375
43.0274
31.1495
179.74
177.157
176.477
175.794
176.294
177.95
181.118
185.981
192.855
202.34
215.182
231.058
247.593
263.159
278.486
294.535
311.44
328.613
345.245
360.933
375.252
387.755
398.171
406.399
412.599
416.993
419.801
421.106
421.045
420.047
418.435
416.598
414.245
410.633
405.175
397.289
386.382
371.907
353.465
330.717
303.298
270.825
232.964
189.589
140.994
88.1346
32.764
-22.8138
-76.6474
-127.873
-175.981
-219.583
-256.967
-287.059
-306.74
-311.398
-301.489
-277.118
-239.336
-190.307
-132.269
-67.1903
2.59177
73.2761
139.995
199.085
249.718
293.969
336.385
370.283
390.205
397.751
399.672
400.767
400.499
399.192
396.142
390.928
383.914
375.433
365.83
355.317
343.999
331.942
319.186
305.767
291.703
277.006
261.646
245.613
228.793
211.216
192.542
173.12
151.743
130.361
103.978
82.1861
42.8375
32.1782
179.502
176.895
176.126
175.358
175.775
177.37
180.509
185.367
192.24
201.709
214.58
230.619
247.308
262.879
278.184
294.273
311.32
328.711
345.586
361.507
376.008
388.664
399.18
407.447
413.648
418.017
420.798
422.061
421.908
420.798
419.116
417.279
414.997
411.535
406.223
398.451
387.593
373.064
354.462
331.448
303.642
270.632
232.047
187.743
138.067
84.151
28.0156
-27.8996
-81.9142
-133.69
-182.984
-228.107
-266.868
-298.364
-319.487
-324.976
-315.493
-291.119
-253.084
-203.715
-145.289
-79.5582
-8.54771
63.9825
132.806
193.9
246.222
291.703
334.724
369.483
389.191
395.745
397.309
397.96
397.456
396.119
393.149
388.086
381.259
372.986
363.599
353.292
342.16
330.263
317.647
304.354
290.41
275.837
260.608
244.716
228.047
210.633
192.121
172.882
151.644
130.478
104.089
82.6654
42.6757
33.2325
179.257
176.62
175.753
174.893
175.221
176.752
179.86
184.721
191.605
201.071
213.966
230.167
247.019
262.589
277.865
293.993
311.189
328.813
345.949
362.119
376.811
389.63
400.249
408.556
414.755
419.094
421.843
423.062
422.806
421.565
419.802
417.952
415.733
412.424
407.259
399.602
388.79
374.199
355.422
332.125
303.915
270.344
231.003
185.736
134.969
80.0513
23.2877
-32.8296
-87.0284
-139.526
-190.234
-236.951
-276.966
-309.726
-332.246
-338.504
-329.38
-304.909
-266.549
-216.842
-158.121
-91.8808
-19.7322
54.6728
125.707
188.927
243.042
289.788
333.245
368.431
387.812
393.798
395.149
395.373
394.575
393.133
390.205
385.288
378.649
370.585
361.415
351.312
340.36
328.618
316.133
302.959
289.131
274.678
259.579
243.83
227.314
210.067
191.722
172.67
151.578
130.626
104.247
83.1675
42.564
34.2572
179.026
176.328
175.359
174.401
174.632
176.092
179.17
184.037
190.949
200.427
213.344
229.704
246.725
262.286
277.528
293.694
311.047
328.916
346.332
362.771
377.665
390.656
401.382
409.727
415.92
420.224
422.936
424.108
423.739
422.348
420.492
418.614
416.451
413.296
408.277
400.735
389.968
375.303
356.336
332.739
304.104
269.95
229.824
183.568
131.714
75.8726
18.6289
-37.5846
-92.0221
-145.447
-197.766
-246.061
-287.113
-320.926
-344.759
-351.725
-342.902
-318.234
-279.461
-229.405
-170.503
-103.949
-30.8199
45.4335
118.745
184.174
240.136
288.132
331.859
367.048
386.113
391.934
393.233
393.091
391.938
390.277
387.339
382.553
376.097
368.242
359.285
349.382
338.605
327.009
314.648
301.586
287.868
273.533
258.563
242.958
226.597
209.522
191.348
172.486
151.548
130.805
104.458
83.6825
42.5221
35.1947
178.738
176.025
174.943
173.88
174.007
175.392
178.435
183.313
190.267
199.776
212.719
229.23
246.427
261.97
277.171
293.371
310.89
329.021
346.738
363.465
378.569
391.745
402.581
410.962
417.145
421.408
424.079
425.201
424.709
423.144
421.182
419.262
417.149
414.147
409.272
401.845
391.121
376.368
357.194
333.278
304.199
269.439
228.503
181.238
128.318
71.6541
14.0781
-42.1638
-96.9393
-151.512
-205.585
-255.339
-297.121
-331.713
-356.763
-364.42
-355.876
-330.907
-291.596
-241.144
-182.163
-115.524
-41.6431
36.367
111.976
179.656
237.47
286.663
330.507
365.359
384.171
390.139
391.557
391.147
389.593
387.587
384.58
379.903
373.62
365.966
357.215
347.506
336.897
325.439
313.195
300.237
286.625
272.404
257.563
242.104
225.902
209.001
191.003
172.332
151.557
131.015
104.723
84.1994
42.566
35.9915
178.444
175.71
174.505
173.332
173.348
174.651
177.654
182.544
189.552
199.118
212.095
228.748
246.124
261.64
276.791
293.024
310.718
329.125
347.167
364.203
379.527
392.899
403.849
412.264
418.432
422.646
425.271
426.342
425.715
423.956
421.872
419.896
417.828
414.972
410.24
402.926
392.241
377.388
357.985
333.73
304.189
268.801
227.031
178.749
124.805
67.4344
9.6623
-46.5818
-101.831
-157.77
-213.663
-264.651
-306.775
-341.849
-368.081
-376.513
-368.286
-342.895
-302.858
-251.879
-192.86
-126.366
-52.0154
27.5902
105.465
175.391
235.021
285.327
329.157
363.449
382.088
388.409
390.102
389.491
387.51
385.083
381.953
377.357
371.228
363.763
355.211
345.687
335.239
323.913
311.776
298.916
285.403
271.295
256.583
241.271
225.232
208.508
190.692
172.212
151.607
131.256
105.042
84.7066
42.7047
36.6043
178.152
175.381
174.047
172.757
172.655
173.868
176.827
181.727
188.799
198.448
211.477
228.261
245.813
261.295
276.385
292.647
310.525
329.229
347.619
364.989
380.543
394.122
405.188
413.635
419.783
423.941
426.512
427.53
426.761
424.782
422.56
420.513
418.489
415.767
411.173
403.97
393.323
378.352
358.699
334.085
304.06
268.025
225.405
176.108
121.198
63.2481
5.39489
-50.8666
-106.752
-164.251
-221.939
-273.827
-315.859
-351.185
-378.727
-388.153
-380.34
-354.362
-313.319
-261.563
-202.435
-136.259
-61.7458
19.2294
99.2782
171.404
232.777
284.091
327.803
361.428
379.957
386.741
388.793
388.035
385.673
382.803
379.491
374.933
368.934
361.641
353.274
343.929
333.634
322.431
310.395
297.625
284.209
270.211
255.628
240.466
224.593
208.048
190.417
172.128
151.7
131.525
105.413
85.193
42.94
37.0037
177.854
175.041
173.57
172.156
171.929
173.046
175.953
180.859
188.001
197.758
210.868
227.773
245.494
260.934
275.95
292.237
310.31
329.329
348.098
365.826
381.618
395.419
406.603
415.077
421.199
425.292
427.804
428.768
427.846
425.626
423.245
421.11
419.132
416.528
412.066
404.971
394.359
379.252
359.325
334.328
303.802
267.102
223.619
173.324
117.524
59.1236
1.27586
-55.0558
-111.753
-170.964
-230.321
-282.686
-324.219
-359.726
-388.941
-399.701
-392.417
-365.619
-323.199
-270.285
-210.834
-145.042
-70.6559
11.4145
93.4886
167.72
230.735
282.938
326.457
359.398
377.862
385.155
387.566
386.753
384.102
380.794
377.227
372.653
366.749
359.604
351.41
342.234
332.086
320.999
309.055
296.37
283.045
269.156
254.705
239.694
223.989
207.625
190.182
172.082
151.836
131.82
105.828
85.6479
43.2654
37.175
177.566
174.689
173.073
171.531
171.172
172.185
175.032
179.938
187.15
197.038
210.266
227.289
245.162
260.556
275.482
291.789
310.065
329.422
348.604
366.715
382.757
396.794
408.097
416.592
422.683
426.7
429.146
430.055
428.973
426.49
423.921
421.688
419.762
417.25
412.913
405.922
395.344
380.079
359.85
334.447
303.4
266.021
221.674
170.411
113.809
55.0809
-2.70733
-59.1939
-116.877
-177.893
-238.689
-291.058
-331.795
-367.618
-399.111
-411.608
-404.932
-377.021
-332.784
-278.23
-218.11
-152.629
-78.5955
4.27061
88.1689
164.375
228.899
281.864
325.141
357.438
375.863
383.684
386.445
385.659
382.805
379.083
375.19
370.535
364.684
357.659
349.619
340.605
330.598
319.621
307.763
295.156
281.919
268.138
253.818
238.961
223.427
207.245
189.991
172.075
152.011
132.137
106.277
86.0613
43.6679
37.1181
177.237
174.326
172.559
170.882
170.384
171.287
174.067
178.964
186.243
196.278
209.665
226.814
244.813
260.156
274.978
291.295
309.784
329.504
349.138
367.655
383.963
398.25
409.673
418.185
424.237
428.168
430.539
431.393
430.142
427.377
424.587
422.249
420.375
417.927
413.707
406.815
396.27
380.823
360.262
334.428
302.842
264.774
219.57
167.383
110.077
51.1304
-6.57805
-63.328
-122.156
-184.998
-246.913
-298.823
-338.629
-375.073
-409.645
-424.288
-418.229
-388.871
-342.339
-285.613
-224.384
-159.006
-85.4539
-2.08918
83.3926
161.401
227.27
280.874
323.886
355.593
374.002
382.332
385.435
384.735
381.758
377.675
373.408
368.599
362.75
355.812
347.908
339.046
329.175
318.303
306.523
293.989
280.836
267.162
252.975
238.272
222.911
206.91
189.844
172.107
152.224
132.469
106.75
86.424
44.1293
36.8453
176.903
173.953
172.027
170.211
169.567
170.353
173.059
177.938
185.275
195.464
209.055
226.351
244.443
259.731
274.432
290.744
309.454
329.568
349.699
368.645
385.241
399.794
411.336
419.858
425.862
429.695
431.982
432.781
431.353
428.289
425.243
422.798
420.953
418.562
414.441
407.642
397.131
381.473
360.547
334.257
302.116
263.353
217.308
164.256
106.348
47.2728
-10.3682
-67.505
-127.608
-192.22
-254.864
-305.924
-344.823
-382.304
-420.881
-438.04
-432.55
-401.377
-352.067
-292.624
-229.803
-164.216
-91.1639
-7.56847
79.2294
158.821
225.862
279.997
322.734
353.897
372.318
381.108
384.528
383.953
380.926
376.561
371.899
366.863
360.962
354.071
346.281
337.563
327.824
317.051
305.344
292.876
279.804
266.236
252.182
237.635
222.446
206.625
189.744
172.177
152.469
132.809
107.231
86.728
44.6288
36.3786
176.571
173.569
171.48
169.518
168.723
169.386
172.009
176.86
184.244
194.587
208.417
225.895
244.045
259.27
273.839
290.118
309.057
329.608
350.291
369.683
386.597
401.429
413.091
421.614
427.561
431.283
433.477
434.22
432.607
429.231
425.894
423.338
421.484
419.166
415.106
408.394
397.92
382.018
360.69
333.917
301.207
261.752
214.896
161.048
102.638
43.4989
-14.1158
-71.7678
-133.234
-199.483
-262.437
-312.364
-350.501
-389.501
-433.074
-453.048
-448.038
-414.654
-362.088
-299.402
-234.51
-168.337
-95.6981
-12.0891
75.7371
156.662
224.729
279.279
321.725
352.397
370.836
380.023
383.731
383.304
380.278
375.714
370.673
365.346
359.333
352.449
344.748
336.165
326.554
315.875
304.233
291.825
278.83
265.367
251.447
237.056
222.038
206.392
189.691
172.283
152.739
133.15
107.707
86.9661
45.1446
35.7463
176.231
173.176
170.917
168.806
167.852
168.386
170.92
175.732
183.151
193.636
207.733
225.434
243.608
258.759
273.183
289.386
308.566
329.619
350.919
370.764
388.039
403.164
414.944
423.458
429.339
432.935
435.022
435.71
433.903
430.205
426.545
423.873
421.973
419.76
415.692
409.062
398.629
382.447
360.678
333.395
300.106
259.967
212.339
157.773
98.9559
39.7913
-17.8621
-76.1525
-139.021
-206.706
-269.56
-318.19
-355.79
-396.821
-446.404
-469.401
-464.754
-428.729
-372.446
-306.024
-238.616
-171.459
-99.0565
-15.5916
72.9581
154.987
223.93
278.762
320.9
351.123
369.574
379.098
383.057
382.78
379.786
375.094
369.723
364.064
357.881
350.959
343.321
334.862
325.376
314.785
303.2
290.845
277.923
264.564
250.777
236.54
221.689
206.212
189.681
172.418
153.026
133.482
108.161
87.1328
45.6561
34.9802
175.891
172.774
170.341
168.074
166.958
167.357
169.794
174.558
181.994
192.606
206.978
224.944
243.116
258.172
272.444
288.515
307.958
329.601
351.581
371.876
389.572
405.008
416.904
425.396
431.199
434.653
436.619
437.251
435.241
431.213
427.208
424.41
422.419
420.362
416.184
409.635
399.253
382.747
360.494
332.674
298.8
257.996
209.646
154.446
95.3037
36.1254
-21.6493
-80.6866
-144.941
-213.808
-276.195
-323.469
-360.806
-404.374
-460.981
-487.093
-482.667
-443.537
-383.107
-312.51
-242.19
-173.664
-101.249
-18.0399
70.9384
153.88
223.505
278.484
320.29
350.101
368.552
378.35
382.517
382.378
379.426
374.66
369.026
363.027
356.622
349.62
342.016
333.669
324.303
313.793
302.256
289.946
277.091
263.834
250.178
236.092
221.403
206.085
189.712
172.579
153.32
133.794
108.579
87.2238
46.1448
34.1127
175.537
172.363
169.751
167.325
166.041
166.3
168.634
173.34
180.778
191.494
206.132
224.396
242.546
257.479
271.595
287.478
307.221
329.558
352.255
373.003
391.195
406.968