/*--------------------------------*- C++ -*----------------------------------*\
| =========                 |                                                 |
| \\      /  F ield         | OpenFOAM: The Open Source CFD Toolbox           |
|  \\    /   O peration     | Version:  4.1                                   |
|   \\  /    A nd           | Web:      www.OpenFOAM.org                      |
|    \\/     M anipulation  |                                                 |
\*---------------------------------------------------------------------------*/
FoamFile
{
    version     2.0;
    format      ascii;
    class       surfaceScalarField;
    location    "900";
    object      phi;
}
// * * * * * * * * * * * * * * * * * * * * * * * * * * * * * * * * * * * * * //

dimensions      [0 3 -1 0 0 0 0];

internalField   nonuniform List<scalar> 
52920
(
-3855.53
151.788
-4017.04
161.508
-4180.9
163.858
-4351.06
170.162
-4526.22
175.155
-4704.46
178.24
-4880.99
176.53
-5048.38
167.382
-5197.29
148.908
-5319.44
122.152
-5412.29
92.8442
-5481.81
69.5176
-5538.21
56.3986
-5587.39
49.1735
-5628.56
41.1743
-5659.15
30.5828
-5678.33
19.1807
-5686.41
8.07664
-5683.3
-3.10799
-5668.51
-14.8015
-5642.27
-26.238
-5606.32
-35.9554
-5562.86
-43.4589
-5514.54
-48.321
-5464.44
-50.1029
-5416.02
-48.4308
-5372.89
-43.1257
-5338.61
-34.2829
-5316.51
-22.107
-5309.78
-6.73558
-5321.04
11.2635
-5353.7
32.6514
-5412.47
58.7692
-5502.15
89.6756
-5627.69
125.531
-5793.85
166.166
-6005
211.141
-6264.71
259.712
-6575.59
310.878
-6939.01
363.412
-7354.91
415.898
-7821.65
466.74
-8335.84
514.193
-8892.24
556.391
-9483.65
591.407
-10100.9
617.29
-10733.1
632.125
-11367.2
634.107
-11988.8
621.644
-12582.3
593.466
-13131
548.762
-13618.4
487.309
-14027.8
409.486
-14344
316.173
-14552.9
208.839
-14642.7
89.8658
-14605.6
-37.1586
-14436.1
-169.426
-14129.1
-307.021
-13681
-448.124
-13088.6
-592.357
-12348.1
-740.523
-11452.8
-895.352
-10390.9
-1061.86
-9143.92
-1246.98
-7686.65
-1457.27
-5993.88
-1692.77
-4059
-1934.87
-1925.28
-2133.73
243.772
-2169.05
1924.5
-1680.73
2726.09
-801.591
3072.91
-346.819
3268.5
-195.593
3423.83
-155.331
3630.24
-206.405
3919.07
-288.829
4289.19
-370.121
4725.55
-436.364
5210.21
-484.655
5727.24
-517.028
6262.93
-535.69
6806.13
-543.206
7348.91
-542.78
7886.46
-537.552
8416.5
-530.035
8938.51
-522.015
9453.21
-514.691
9962.03
-508.824
10467
-504.921
10970.2
-503.246
11474.3
-504.099
11981.7
-507.395
12495.4
-513.732
13017.5
-522.042
13552.2
-534.734
14098.7
-546.497
14666.6
-567.875
15242.4
-575.877
-616.851
-3859.61
306.445
-4023.08
324.981
-4189.63
330.407
-4362.65
343.179
-4541.07
353.569
-4722.82
359.992
-4902.87
356.578
-5073.38
337.886
-5224.67
300.202
-5348.44
245.913
-5442.47
186.872
-5513.22
140.263
-5571.05
114.233
-5621.66
99.7805
-5664.04
83.5514
-5695.59
62.1228
-5715.58
39.1677
-5724.37
16.8668
-5721.88
-5.6027
-5707.56
-29.121
-5681.63
-52.1702
-5645.72
-71.8708
-5601.94
-87.2447
-5552.85
-97.409
-5501.51
-101.445
-5451.4
-98.5474
-5406.24
-88.2929
-5369.7
-70.8204
-5345.26
-46.5502
-5336.26
-15.7448
-5345.59
20.5926
-5376.66
63.7231
-5434.08
116.187
-5522.69
178.28
-5647.45
250.29
-5813.15
331.861
-6024.11
422.095
-6283.9
519.497
-6595.08
622.06
-6959.01
727.342
-7375.64
832.521
-7843.32
934.419
-8358.68
1029.55
-8916.51
1114.21
-9509.64
1184.54
-10129
1236.65
-10763.6
1266.74
-11400.7
1271.18
-12025.9
1246.82
-12623.5
1191.12
-13177.2
1102.44
-13670.3
980.376
-14086.5
825.691
-14410.5
640.186
-14628.5
426.847
-14729.2
190.54
-14704.9
-61.4242
-14551.3
-323.046
-14264.1
-594.194
-13840.7
-871.584
-13278.8
-1154.19
-12576
-1443.33
-11727.3
-1744.07
-10723.1
-2066.02
-9547.56
-2422.57
-8178.49
-2826.35
-6593.93
-3277.32
-4787.61
-3741.2
-2799.3
-4122.04
-772.326
-4196.02
1028.13
-3481.19
2036.94
-1810.4
2394.15
-704.032
2589.23
-390.671
2748.13
-314.236
2971.71
-429.981
3289.4
-606.518
3702.01
-782.737
4193.25
-927.603
4738.65
-1030.06
5314.03
-1092.4
5899.79
-1121.45
6482.53
-1125.95
7054.61
-1114.87
7612.74
-1095.68
8156.41
-1073.7
8686.75
-1052.36
9205.81
-1033.75
9716.08
-1019.1
10220.3
-1009.14
10721.3
-1004.23
11222
-1004.81
11725.2
-1010.64
12234.3
-1022.82
12751.5
-1039.26
13281.4
-1064.58
13823.4
-1088.53
14386.9
-1131.35
14958.9
-1147.93
-1230.41
-3859.76
463.804
-4024.8
490.022
-4193.05
498.648
-4367.27
517.402
-4546.49
532.788
-4728.54
542.036
-4908.3
536.336
-5077.96
507.544
-5228.19
450.434
-5351.44
369.158
-5446.4
281.828
-5519.9
213.765
-5581.8
176.128
-5636.78
154.756
-5683.15
129.924
-5718.17
97.1396
-5741.17
62.1607
-5752.51
28.2051
-5752.11
-6.00253
-5739.48
-41.7527
-5714.87
-76.7826
-5679.91
-106.838
-5636.62
-130.536
-5587.49
-146.541
-5535.51
-153.429
-5484.15
-149.906
-5437.22
-135.233
-5398.51
-109.527
-5371.64
-73.4231
-5360.08
-27.3121
-5366.99
27.4966
-5395.76
92.4977
-5450.88
171.303
-5537.27
264.659
-5659.92
372.945
-5823.67
495.605
-6032.84
631.258
-6290.97
777.629
-6600.6
931.689
-6963.02
1089.76
-7378.11
1247.6
-7844.15
1400.46
-8357.72
1543.12
-8913.54
1670.03
-9504.48
1775.48
-10121.5
1853.68
-10753.8
1898.99
-11388.6
1906.05
-12011.9
1870.13
-12608.2
1787.42
-13161.3
1655.46
-13654.5
1473.6
-14071.8
1243.01
-14398
966.41
-14619.5
648.33
-14725.2
296.216
-14707.7
-78.9551
-14562.5
-468.175
-14286
-870.708
-13876
-1281.65
-13331
-1699.14
-12649.6
-2124.76
-11828.1
-2565.59
-10858.6
-3035.51
-9726.81
-3554.33
-8412.07
-4141.08
-6892.69
-4796.7
-5161.28
-5472.61
-3256.1
-6027.22
-1308.95
-6143.17
428.536
-5218.67
1446.76
-2828.62
1723.05
-980.319
1856.09
-523.709
1978.11
-436.261
2224.25
-676.122
2617.36
-999.624
3135.9
-1301.28
3735.24
-1526.95
4372.3
-1667.12
5016.83
-1736.93
5651.25
-1755.87
6267.09
-1741.78
6861.4
-1709.19
7434.38
-1668.66
7987.82
-1627.14
8524.35
-1588.89
9046.99
-1556.39
9558.92
-1531.02
10063.4
-1513.59
10563.5
-1504.39
11062.7
-1503.95
11563.8
-1511.81
12070.5
-1529.52
12585.3
-1553.96
13112.6
-1591.98
13652.4
-1628.31
14214
-1692.98
14784.5
-1718.36
-1843.7
-3852.41
621.864
-4018.5
656.118
-4187.17
667.31
-4361.03
691.261
-4539.11
710.864
-4719.35
722.274
-4896.92
713.904
-5064.43
675.055
-5213.11
599.117
-5335.97
492.016
-5432.03
377.883
-5508.01
289.746
-5573.29
241.404
-5631.98
213.444
-5682.06
179.994
-5720.67
135.747
-5747.12
88.6067
-5761.67
42.7566
-5764.12
-3.56143
-5753.88
-51.9941
-5731.21
-99.4554
-5697.79
-140.254
-5655.62
-172.717
-5607.09
-195.066
-5555.15
-205.371
-5503.24
-201.824
-5455.17
-183.303
-5414.86
-149.848
-5385.99
-102.297
-5372.11
-41.1891
-5376.64
32.0173
-5402.91
118.769
-5455.22
223.611
-5538.58
348.011
-5658.04
492.405
-5818.48
656.038
-6024.25
837.024
-6278.91
1032.29
-6584.97
1237.75
-6943.68
1448.47
-7354.89
1658.81
-7816.87
1862.43
-8326.18
2052.43
-8877.65
2221.5
-9464.28
2362.1
-10077.3
2466.68
-10706.1
2527.8
-11338.4
2538.35
-11960.3
2491.98
-12556.3
2383.5
-13110.4
2209.48
-13605.6
1968.89
-14025.9
1663.21
-14355.5
1296.07
-14580.7
873.521
-14690.2
405.749
-14676.8
-92.3623
-14536.5
-608.478
-14266.1
-1141.09
-13864
-1683.78
-13329.6
-2233.59
-12662.3
-2792.03
-11860.1
-3367.79
-10916.8
-3978.75
-9820.02
-4651.16
-8549.93
-5411.18
-7084.34
-6262.28
-5413.24
-7143.71
-3571.43
-7869.03
-1691.14
-8023.46
-58.7507
-6851.06
840.974
-3728.35
835.865
-975.209
770.275
-458.119
908.138
-574.125
1340.2
-1108.18
1949.16
-1608.59
2640.34
-1992.46
3356.24
-2242.84
4066.91
-2377.79
4758.04
-2428.06
5423.63
-2421.46
6062.1
-2380.24
6674.09
-2321.18
7261.46
-2256.03
7826.78
-2192.46
8373.07
-2135.18
8903.6
-2086.93
9421.78
-2049.2
9931.04
-2022.85
10434.8
-2008.12
10936.4
-2005.6
11439.2
-2014.61
11946.9
-2037.17
12462
-2069.09
12989.6
-2119.6
13529.3
-2167.99
14091.5
-2255.17
14662
-2288.84
-2459.66
-3836.62
778.634
-4003.76
823.253
-4172.2
835.75
-4345.22
864.282
-4521.71
887.347
-4699.93
900.498
-4875.52
889.485
-5041.56
841.095
-5189.6
747.161
-5312.68
615.088
-5409.62
474.825
-5487.01
367.135
-5554.17
308.56
-5615.11
274.375
-5667.63
232.516
-5708.84
176.951
-5738.02
117.789
-5755.37
60.1061
-5760.5
1.56664
-5752.66
-59.8407
-5732.01
-120.103
-5700.33
-171.944
-5659.5
-213.545
-5611.9
-242.67
-5560.38
-256.892
-5508.34
-253.866
-5459.6
-232.048
-5418.1
-191.347
-5387.61
-132.793
-5371.69
-57.1157
-5373.95
34.2799
-5397.68
142.49
-5446.89
272.817
-5526.68
427.797
-5642.16
607.885
-5798.27
812.147
-5999.43
1038.18
-6249.26
1282.11
-6550.29
1538.77
-6903.82
1802
-7309.73
2064.73
-7766.38
2319.08
-8270.46
2556.51
-8816.98
2768.02
-9399.22
2944.34
-10008.7
3076.14
-10635.1
3154.2
-11266.3
3169.58
-11888.5
3114.15
-12486.1
2981.16
-13042.7
2766.03
-13541
2467.24
-13964.4
2086.58
-14296.9
1628.59
-14524.4
1100.97
-14635.4
516.819
-14623.1
-104.729
-14483.8
-747.759
-14215
-1409.87
-13815.6
-2083.22
-13285.8
-2763.36
-12626.5
-3451.33
-11837.3
-4156.96
-10914.3
-4901.8
-9846.69
-5718.74
-8615.83
-6642.04
-7198.29
-7679.82
-5580.52
-8761.49
-3793.94
-9655.61
-1979.79
-9837.61
-482.799
-8348.05
132.731
-4343.88
-471.525
-370.954
-587.751
-341.893
13.9445
-1175.82
767.147
-1861.38
1530.05
-2371.49
2299.46
-2761.88
3053.66
-2997.04
3785.63
-3109.76
4492.21
-3134.65
5172.15
-3101.4
5825.47
-3033.56
6452.99
-2948.7
7056.2
-2859.24
7637.15
-2773.41
8198.35
-2696.38
8742.69
-2631.27
9273.31
-2579.81
9793.48
-2543.02
10306.6
-2521.21
10816.1
-2515.09
11325.3
-2523.87
11838.2
-2550.02
12357.4
-2588.36
12888.6
-2650.74
13430.8
-2710.23
13996.5
-2820.86
14569.2
-2861.57
-3081.78
-3814.68
942.895
-3980.47
989.043
-4149.31
1004.59
-4321.59
1036.56
-4496.96
1062.72
-4673.83
1077.36
-4848.28
1063.93
-5013.76
1006.57
-5161.86
895.265
-5285.36
738.579
-5382.82
572.287
-5460.89
445.201
-5529.09
376.762
-5591.43
336.712
-5645.53
286.606
-5688.4
219.822
-5719.43
148.814
-5738.83
79.5009
-5746.08
8.81265
-5740.23
-65.6939
-5721.34
-138.996
-5691.24
-202.039
-5651.75
-253.041
-5605.14
-289.285
-5554.19
-307.847
-5502.22
-305.834
-5453.04
-281.236
-5410.61
-233.78
-5378.72
-164.684
-5360.93
-74.9104
-5361.02
34.37
-5382.16
163.623
-5428.08
318.732
-5503.95
503.66
-5614.92
718.852
-5766.01
963.24
-5961.75
1233.92
-6205.84
1526.2
-6500.94
1833.87
-6848.43
2149.5
-7248.34
2464.63
-7699.17
2769.91
-8197.84
3055.18
-8739.59
3309.77
-9317.96
3522.71
-9924.75
3682.93
-10549.9
3779.31
-11181.3
3800.97
-11804.9
3737.84
-12405.2
3581.39
-12964.9
3325.71
-13466.3
2968.7
-13892.2
2512.45
-14226.1
1962.5
-14453.4
1328.24
-14562.6
626.058
-14547.1
-120.232
-14404
-890.899
-14131.3
-1682.57
-13728.5
-2485.98
-13197.2
-3294.7
-12539.7
-4108.82
-11757.9
-4938.76
-10850.3
-5809.41
-9808.55
-6760.48
-8614.86
-7835.72
-7244.22
-9050.46
-5678.8
-10326.9
-3947.22
-11387.2
-2207.32
-11577.5
-886.361
-9669.01
-650.792
-4579.45
-1133
111.256
-954.716
-520.179
-256.581
-1873.96
524.981
-2642.94
1285.29
-3131.8
2038.31
-3514.89
2778.3
-3737.03
3500.55
-3832.01
4202.44
-3836.54
4882.92
-3781.88
5541.89
-3692.53
6179.69
-3586.51
6796.98
-3476.52
7394.75
-3371.18
7974.4
-3276.03
8537.77
-3194.64
9087.06
-3129.1
9624.89
-3080.86
10154.1
-3050.46
10678
-3038.99
11199.8
-3045.67
11723.4
-3073.61
12251.8
-3116.73
12790.8
-3189.73
13339.3
-3258.77
13912.6
-3394.17
14490.8
-3439.74
-3714.36
-3783.84
1107.12
-3949.73
1154.93
-4118.99
1173.85
-4291.11
1208.68
-4466.08
1237.68
-4642.38
1253.66
-4816.46
1238.01
-4981.98
1172.1
-5130.49
1043.77
-5254.45
862.54
-5352.29
670.125
-5430.82
523.731
-5499.86
445.794
-5563.33
400.179
-5618.58
341.852
-5662.55
263.788
-5694.76
181.024
-5715.54
100.282
-5724.31
17.5807
-5719.95
-70.06
-5702.4
-156.542
-5673.62
-230.821
-5635.3
-291.368
-5589.62
-334.971
-5539.25
-358.217
-5487.44
-357.647
-5437.93
-330.743
-5394.71
-277.005
-5361.57
-197.824
-5342.09
-94.4027
-5340.08
32.3629
-5358.58
182.121
-5401.11
361.252
-5472.83
575.382
-5578.95
824.968
-5724.57
1108.86
-5914.35
1423.69
-6152.12
1763.97
-6440.69
2122.44
-6781.64
2490.44
-7175.15
2858.14
-7619.95
3214.71
-8113.19
3548.42
-8650.39
3846.97
-9225.37
4097.69
-9830.13
4287.69
-10454.7
4403.92
-11087.1
4433.37
-11713.1
4363.79
-12316.4
4184.66
-12879.2
3888.5
-13383
3472.48
-13809.5
2939
-14141.7
2294.74
-14364.5
1551.04
-14466.5
728.061
-14441.8
-145.008
-14288.1
-1044.6
-14004.3
-1966.3
-13591.1
-2899.25
-13051.2
-3834.52
-12389.4
-4770.71
-11609.9
-5718.19
-10714.5
-6704.85
-9697.38
-7777.59
-8541.85
-8991.25
-7220.86
-10371.5
-5711.62
-11836.1
-4040.83
-13058
-2390
-13228.3
-1271.13
-10787.9
-1248.73
-4601.84
-1453.84
316.364
-1049.74
-924.276
-364.261
-2559.43
359.676
-3366.88
1086.58
-3858.71
1810.9
-4239.21
2524.18
-4450.32
3222.12
-4529.95
3903.25
-4517.67
4568.16
-4446.79
5218.12
-4342.48
5854.17
-4222.56
6476.91
-4099.26
7086.57
-3980.84
7683.28
-3872.73
8267.32
-3778.68
8839.37
-3701.15
9400.63
-3642.12
9952.85
-3602.68
10498.4
-3584.54
11040
-3587.3
11581.3
-3614.89
12125.3
-3660.69
12677.9
-3742.34
13238.2
-3819.08
13824.9
-3980.83
14412.5
-4027.39
-4362.62
-3745.08
1269.91
-3911.69
1321.53
-4081.45
1343.61
-4254
1381.23
-4429.23
1412.91
-4605.68
1430.11
-4779.99
1412.31
-4945.96
1338.06
-5095.08
1192.89
-5219.63
987.081
-5317.9
768.395
-5396.94
602.766
-5466.83
515.688
-5531.43
464.772
-5587.72
398.143
-5632.53
308.591
-5665.53
214.021
-5687.23
121.974
-5697.03
27.3813
-5693.68
-73.4135
-5677.05
-173.178
-5649.23
-258.636
-5611.84
-328.769
-5566.94
-379.87
-5517.11
-408.054
-5465.47
-409.286
-5415.72
-380.497
-5371.82
-320.909
-5337.57
-232.079
-5316.54
-115.436
-5312.53
28.3535
-5328.42
198.002
-5367.51
400.347
-5434.99
642.85
-5536.05
926.025
-5675.91
1248.72
-5859.35
1607.13
-6090.39
1995.01
-6372.03
2404.07
-6706.03
2824.44
-7092.83
3244.94
-7531.41
3653.28
-8019.18
4036.19
-8551.97
4379.75
-9123.86
4669.58
-9727.09
4890.92
-10351.8
5028.63
-10985.8
5067.38
-11614.5
4992.44
-12220.7
4790.93
-12785.7
4453.49
-13289.6
3976.39
-13713
3362.4
-14038
2619.68
-14249
1762.08
-14335.4
814.45
-14292.6
-187.774
-14119.6
-1217.62
-13816.3
-2269.64
-13384.5
-3330.98
-12829.4
-4389.67
-12157.8
-5442.33
-11377.2
-6498.71
-10492.8
-7589.24
-9501.95
-8768.48
-8388.89
-10104.3
-7124.12
-11636.2
-5679.17
-13281.1
-4079.78
-14657.4
-2537.35
-14770.8
-1637.07
-11688.2
-1755.76
-4483.16
-1713.44
274.045
-1170.3
-1467.41
-481.994
-3247.74
218.287
-4067.16
925.806
-4566.23
1625.16
-4938.56
2308.94
-5134.1
2974.03
-5195.05
3621.38
-5165.01
4254.57
-5079.98
4877.78
-4965.69
5494.44
-4839.23
6106.67
-4711.49
6715.2
-4589.37
7319.69
-4477.22
7919.17
-4378.16
8512.55
-4294.53
9099.12
-4228.7
9678.73
-4182.29
10252.2
-4157.99
10820.9
-4156.05
11387.6
-4181.57
11954.9
-4228.01
12528.4
-4315.86
13108.2
-4398.83
13715.2
-4587.86
14317
-4629.17
-5033.15
-3698.83
1429.81
-3866.31
1489.02
-4036.64
1513.94
-4210.05
1554.64
-4386.13
1588.99
-4563.35
1607.33
-4738.41
1587.37
-4905.23
1504.88
-5055.27
1342.93
-5180.6
1112.42
-5279.46
867.252
-5359.11
682.406
-5429.96
586.54
-5495.77
530.583
-5553.14
455.504
-5598.68
354.13
-5632.23
247.574
-5654.51
144.254
-5664.97
37.838
-5662.22
-76.1684
-5646.08
-189.324
-5618.86
-285.852
-5582.1
-365.533
-5537.79
-424.18
-5488.39
-457.463
-5436.91
-460.771
-5386.96
-430.447
-5342.49
-365.383
-5307.28
-267.293
-5284.87
-137.845
-5278.98
22.4568
-5292.33
211.348
-5328.05
436.067
-5391.25
706.044
-5487.15
1021.92
-5621.07
1382.64
-5797.93
1783.99
-6021.94
2219.01
-6296.3
2678.43
-6623.03
3151.17
-7002.84
3624.75
-7435
4085.43
-7917.25
4518.44
-8445.71
4908.22
-9014.78
5238.64
-9616.89
5493.03
-10242.2
5653.93
-10878.2
5703.37
-11509.5
5623.71
-12117.8
5399.24
-12682.6
5018.27
-13182.1
4475.95
-13595.4
3775.7
-13903.7
2927.93
-14091.8
1950.21
-14150.9
873.562
-14079.4
-259.322
-13877.4
-1419.57
-13546.2
-2600.87
-13089.4
-3787.74
-12514.2
-4964.94
-11829.9
-6126.62
-11047.4
-7281.23
-10175.4
-8461.21
-9214.82
-9729.06
-8151.22
-11167.9
-6952.15
-12835.3
-5582.66
-14650.6
-4068.64
-16171.4
-2657.19
-16182.2
-1989.48
-12355.9
-2195.14
-4277.49
-1945.06
23.9607
-1300.23
-2112.24
-594.949
-3953.02
102.396
-4764.51
802.437
-5266.27
1483.87
-5620
2141.42
-5791.64
2772.82
-5826.45
3381.01
-5773.2
3972.38
-5671.35
4554.35
-5547.66
5133.76
-5418.63
5715.82
-5293.56
6303.65
-5177.2
6898.19
-5071.76
7498.64
-4978.61
8103.02
-4898.91
8708.96
-4834.63
9314.18
-4787.51
9917.27
-4761.08
10517.6
-4756.37
11116.1
-4780.03
11714.3
-4826.27
12316.8
-4918.35
12925.2
-5007.25
13559.2
-5221.86
14180.5
-5250.44
-5735.32
-3645.04
1585.31
-3813.75
1657.73
-3984.43
1684.62
-4158.98
1729.19
-4336.36
1766.37
-4514.94
1785.92
-4691.34
1763.77
-4859.5
1673.04
-5010.85
1494.27
-5137.28
1238.84
-5236.89
966.867
-5317.23
762.739
-5389.13
658.434
-5456.27
597.722
-5514.77
513.997
-5561
400.36
-5594.96
281.532
-5617.59
166.885
-5628.4
48.6425
-5625.87
-78.7009
-5609.81
-205.387
-5582.81
-312.855
-5546.36
-401.99
-5502.39
-468.153
-5453.25
-506.609
-5401.85
-512.175
-5351.71
-480.582
-5306.76
-410.341
-5270.75
-303.308
-5247.15
-161.452
-5239.5
14.8027
-5250.43
222.279
-5282.88
468.516
-5341.85
765.011
-5432.58
1112.65
-5560.47
1510.53
-5730.59
1954.11
-5947.35
2435.77
-6214.19
2945.27
-6533.4
3470.38
-6905.99
3997.34
-7331.57
4511.01
-7808.26
4995.12
-8332.51
5432.47
-8899.03
5805.16
-9500.38
6094.38
-10126.6
6280.14
-10764.6
6341.33
-11397.6
6256.79
-12005.7
6007.28
-12565.6
5578.2
-13053.1
4963.44
-13445.2
4167.8
-13723
3205.7
-13873.6
2100.83
-13892.5
892.511
-13782.7
-369.117
-13545.5
-1656.75
-13182.7
-2963.76
-12699.2
-4271.19
-12103.5
-5560.61
-11407.1
-6823.05
-10623.8
-8064.54
-9766.61
-9318.39
-8840.7
-10655
-7833.65
-12174.9
-6710.11
-13958.8
-5428.07
-15932.6
-4014.67
-17584.8
-2758.05
-17438.8
-2329.42
-12784.5
-2571.21
-4035.71
-2145.75
-401.496
-1419.1
-2838.89
-694.731
-4677.39
7.43279
-5466.67
707.433
-5966.27
1379.77
-6292.33
2018.62
-6430.49
2622.42
-6430.25
3195.02
-6345.8
3744.19
-6220.52
4279.48
-6082.95
4810.68
-5949.83
5346.51
-5829.39
5893.65
-5724.35
6456.22
-5634.32
7035.67
-5558.06
7631.1
-5494.34
8240.01
-5443.55
8858.89
-5406.39
9484.4
-5386.59
10113.5
-5385.45
10744.7
-5411.28
11378
-5459.51
12015.5
-5555.93
12660.3
-5652.04
13324.6
-5886.15
13973.5
-5899.32
-6483.67
-3588.08
1756.95
-3753.21
1822.85
-3924.94
1856.35
-4100.52
1904.76
-4279.56
1945.4
-4460.05
1966.41
-4638.44
1942.16
-4808.58
1843.18
-4961.76
1647.45
-5089.62
1366.71
-5190.17
1067.41
-5271.26
843.825
-5344.27
731.446
-5412.85
666.304
-5472.56
573.704
-5519.47
447.271
-5553.74
315.791
-5576.54
189.684
-5587.43
59.5333
-5584.78
-81.3571
-5568.4
-221.763
-5541.21
-340.045
-5504.7
-438.503
-5460.77
-512.089
-5411.67
-555.707
-5360.23
-563.625
-5309.87
-530.938
-5264.49
-455.731
-5227.8
-339.995
-5203.17
-186.088
-5193.91
5.54461
-5202.58
230.94
-5231.9
497.831
-5286.74
819.85
-5372.34
1198.25
-5494.19
1632.37
-5657.5
2117.42
-5866.89
2645.16
-6126.05
3204.42
-6437.56
3781.89
-6802.78
4362.56
-7221.7
4929.94
-7692.83
5466.25
-8213.02
5952.66
-8777.22
6369.35
-9378.07
6695.23
-10005.2
6907.29
-10644.5
6980.65
-11277.5
6889.72
-11880.9
6610.75
-12428.3
6125.52
-12891.8
5426.95
-13247.2
4523.18
-13477.8
3436.32
-13577.1
2200.12
-13548.3
863.775
-13399.3
-518.125
-13130.3
-1925.8
-12741.3
-3352.71
-12237.3
-4775.23
-11626.1
-6171.74
-10920.4
-7528.81
-10136.9
-8848.05
-9293.89
-10161.4
-8402.68
-11546.2
-7454.8
-13122.8
-6413
-15000.6
-5228.03
-17117.6
-3929.39
-18883.4
-2850.29
-18517.9
-2655.46
-12979.3
-2882.59
-3808.58
-2307.17
-976.923
-1517.49
-3628.57
-778.288
-5416.59
-68.9945
-6175.96
633.621
-6668.88
1302.56
-6961.28
1930.49
-7058.42
2515.76
-7015.53
3062.14
-6892.18
3577.22
-6735.6
4070.95
-6576.68
4554.37
-6433.25
5038.46
-6313.48
5533.06
-6218.94
6045.92
-6147.19
6582.21
-6094.35
7144.15
-6056.29
7731.43
-6030.82
8341.4
-6016.36
8970.43
-6015.62
9613.97
-6028.99
10268.8
-6066.08
10932.2
-6122.91
11603.7
-6227.47
12285.3
-6333.58
12978.5
-6579.45
13669
-6589.79
-7297.16
-3522.28
1923.39
-3685.86
1986.43
-3858.08
2028.57
-4034.54
2081.22
-4215.45
2126.31
-4398.35
2149.31
-4579.44
2123.25
-4752.31
2016.05
-4907.95
1803.09
-5037.65
1496.41
-5139.28
1169.03
-5221.17
925.709
-5295.38
805.653
-5365.53
736.455
-5426.55
634.714
-5474.14
494.864
-5508.62
350.267
-5531.43
212.491
-5542.17
70.2708
-5539.06
-84.4723
-5521.98
-238.844
-5494.2
-367.833
-5457.24
-475.465
-5413
-556.335
-5363.67
-605.035
-5311.99
-615.307
-5261.33
-581.607
-5215.51
-501.555
-5178.24
-377.267
-5152.72
-211.614
-5142
-5.18004
-5148.53
237.473
-5174.86
524.156
-5225.7
870.683
-5306.27
1278.81
-5422.13
1748.23
-5578.65
2273.93
-5780.63
2847.14
-6032.04
3455.83
-6335.77
4085.62
-6693.56
4720.34
-7105.81
5342.19
-7571.46
5931.89
-8087.72
6468.92
-8649.78
6931.42
-9250.19
7295.63
-9877.89
7535
-10517.1
7619.86
-11146.3
7518.95
-11738.3
7202.68
-12261.5
6648.75
-12685.2
5850.61
-12986.4
4824.42
-13156.5
3606.4
-13200.9
2244.52
-13132.3
795.131
-12958.5
-691.913
-12673.7
-2210.59
-12273.8
-3752.57
-11761.1
-5287.95
-11141.6
-6791.19
-10428.2
-8242.24
-9640.95
-9635.31
-8804.83
-10997.5
-7940.02
-12411
-7045.38
-14017.5
-6084.28
-15961.7
-5000.94
-18200.9
-3828.3
-20056.1
-2945.76
-19400.5
-2964.19
-12960.9
-3126.43
-3646.34
-2422.66
-1680.69
-1590.3
-4460.93
-844.359
-6162.53
-129.429
-6890.9
575.472
-7373.78
1243.11
-7628.92
1865.23
-7680.54
2439.92
-7590.21
2970.35
-7422.61
3463.18
-7228.43
3927.38
-7040.88
4373.49
-6879.36
4812.74
-6752.74
5256.26
-6662.46
5714.16
-6605.09
6194.88
-6575.07
6704.41
-6565.81
7246.12
-6572.53
7820.45
-6590.7
8425.89
-6621.06
9058.59
-6661.68
9715.18
-6722.67
10390.8
-6798.54
11082.9
-6919.54
11789.9
-7040.6
12509.2
-7298.79
13256.8
-7337.35
-8186.39
-3449.23
2083.39
-3612.11
2149.31
-3783.87
2200.33
-3961.02
2258.36
-4143.81
2309.1
-4329.53
2335.02
-4514.04
2307.75
-4690.49
2192.5
-4849.35
1961.95
-4981.37
1628.43
-5084.28
1271.94
-5167.03
1008.46
-5242.54
881.159
-5314.41
808.331
-5376.83
697.128
-5425.11
543.143
-5459.74
384.892
-5482.42
235.168
-5492.78
80.6317
-5488.89
-88.3583
-5470.74
-256.998
-5441.94
-396.634
-5404.13
-513.285
-5359.19
-601.272
-5309.32
-654.911
-5257.17
-667.461
-5206.04
-632.737
-5159.74
-547.858
-5121.93
-415.074
-5095.62
-237.928
-5083.54
-17.2683
-5088.07
242.004
-5111.56
547.639
-5158.53
917.65
-5234.19
1354.47
-5344.17
1858.21
-5493.97
2423.73
-5688.6
3041.77
-5932.28
3699.51
-6228.24
4381.58
-6578.61
5070.71
-6984.23
5747.81
-7444.48
6392.14
-7956.93
6981.37
-8516.93
7491.41
-9116.69
7895.39
-9744
8162.31
-10380.5
8256.39
-11000.5
8138.87
-11570.8
7772.98
-12054.9
7132.87
-12421.5
6217.21
-12656
5058.98
-12766.2
3716.61
-12773.1
2251.36
-12692.2
714.236
-12520.7
-863.413
-12242.3
-2488.97
-11848.3
-4146.62
-11337.3
-5798.87
-10713.7
-7414.83
-9990.45
-8965.49
-9191.19
-10434.6
-8348.61
-11840.1
-7494.31
-13265.3
-6638.58
-14873.2
-5749.51
-16850.8
-4766.96
-19183.5
-3728.64
-21094.4
-3055.92
-20073.2
-3250.36
-12766.5
-3301.04
-3595.66
-2490.01
-2491.73
-1635.92
-5315.01
-892.006
-6906.45
-174.96
-7607.94
529.693
-8078.44
1195.08
-8294.3
1813.21
-8298.67
2381.96
-8158.96
2904.01
-7944.66
3385.01
-7709.43
3832.65
-7488.52
4256.03
-7302.75
4665.14
-7161.84
5070.39
-7067.71
5482.15
-7016.85
5910.18
-7003.09
6362.91
-7018.55
6847.04
-7056.66
7366.7
-7110.36
7924.07
-7178.43
8518.12
-7255.73
9147.67
-7352.22
9807.28
-7458.16
10495.4
-7607.7
11207.3
-7752.45
11949.5
-8041.03
12751
-8138.83
-9132.19
-3370.29
2235.68
-3532.05
2311.08
-3702.53
2370.8
-3879.98
2435.81
-4064.51
2493.63
-4253.31
2523.82
-4441.91
2496.35
-4622.87
2373.46
-4785.85
2124.92
-4920.81
1763.38
-5025.26
1376.39
-5108.95
1092.14
-5185.87
958.073
-5259.64
882.1
-5323.58
761.062
-5372.56
592.119
-5407.26
419.595
-5429.67
257.574
-5439.44
90.3937
-5434.48
-93.3191
-5414.9
-276.585
-5384.68
-426.851
-5345.59
-552.381
-5299.56
-647.305
-5248.77
-705.704
-5195.85
-720.385
-5144.05
-684.539
-5097.17
-594.744
-5058.84
-453.415
-5031.79
-264.982
-5018.39
-30.6652
-5021.02
244.629
-5041.8
568.41
-5085.03
960.882
-5155.93
1425.36
-5260.16
1962.45
-5403.37
2566.93
-5590.76
3229.16
-5826.81
3935.56
-6115.08
4669.86
-6458.11
5413.73
-6857.19
6146.89
-7312.13
6847.08
-7820.85
7490.09
-8378.69
8049.25
-8977.27
8493.96
-9602.5
8787.54
-10232.3
8886.15
-10834.8
8741.39
-11370.3
8308.49
-11799
7561.57
-12096.2
6514.44
-12266.7
5229.5
-12341.2
3791.03
-12348.9
2259.12
-12291.9
657.219
-12146.6
-1008.67
-11888.9
-2746.7
-11508.4
-4527.15
-11001.9
-6305.39
-10373
-8043.76
-9635.2
-9703.25
-8815.1
-11254.7
-7952.52
-12702.7
-7091.48
-14126.3
-6257.23
-15707.4
-5427.71
-17680.3
-4542.5
-20068.7
-3645.83
-21991.1
-3188.87
-20530.2
-3506.69
-12448.6
-3407.29
-3695.05
-2511.55
-3387.47
-1655.54
-6171.02
-921.325
-7640.67
-206.601
-8322.67
494.187
-8779.22
1154.93
-8955.05
1768.44
-8912.18
2332.6
-8723.11
2849.83
-8461.9
3325.33
-8184.92
3765.84
-7929.03
4179.05
-7715.96
4573.23
-7556.03
4957.08
-7451.55
5339.59
-7399.36
5729.88
-7393.39
6136.71
-7425.38
6568.19
-7488.14
7030.91
-7573.08
7530.24
-7677.76
8068.62
-7794.11
8648.37
-7931.96
9266.09
-8075.88
9925.35
-8266.96
10620.1
-8447.21
11373.8
-8794.76
12191.3
-8956.29
-10086.4
-3285.86
2378.81
-3446.1
2471.32
-3614.29
2539
-3791.48
2613
-3977.41
2679.56
-4169.41
2715.81
-4362.7
2689.64
-4549.15
2559.91
-4717.32
2293.09
-4855.99
1902.06
-4962.35
1482.74
-5047.06
1176.85
-5125.49
1036.5
-5201.34
957.951
-5266.95
826.671
-5316.67
641.844
-5351.42
454.337
-5373.43
279.583
-5382.38
99.3428
-5376.04
-99.6604
-5354.67
-297.961
-5322.67
-458.851
-5281.9
-593.155
-5234.36
-694.848
-5182.26
-757.805
-5128.23
-774.419
-5075.5
-737.272
-5027.88
-642.365
-4988.96
-492.336
-4961.17
-292.778
-4946.49
-45.3448
-4947.29
245.423
-4965.45
586.572
-5005.07
1000.5
-5071.33
1491.62
-5169.98
2061.09
-5306.76
2703.7
-5487.07
3409.47
-5715.65
4164.13
-5996.37
4950.58
-6332.18
5749.54
-6724.83
6539.54
-7174.55
7296.8
-7679.53
7995.07
-8234.96
8604.68
-8831.36
9090.36
-9451.84
9408.02
-10068.9
9503.25
-10643.4
9315.83
-11129.3
8794.38
-11489.7
7922
-11718.7
6743.48
-11850.5
5361.27
-11933.2
3873.74
-11983.4
2309.34
-11972.3
646.112
-11859
-1121.99
-11620.9
-2984.84
-11250
-4898
-10743.6
-6811.81
-10105.7
-8681.63
-9350.07
-10458.9
-8504.47
-12100.3
-7614
-13593.1
-6734.16
-15006.2
-5907.13
-16534.5
-5126.13
-18461.3
-4336.19
-20858.6
-3590.13
-22737.1
-3346.2
-20774.1
-3723.75
-12071.1
-3448.8
-3970
-2492.88
-4343.4
-1652.07
-7011.83
-933.45
-8359.29
-225.593
-9030.52
467.667
-9472.48
1121.14
-9608.52
1728.15
-9519.19
2286.76
-9281.73
2799.59
-8974.73
3271.82
-8657.14
3709.83
-8367.04
4120.39
-8126.53
4510.35
-7945.98
4886.65
-7827.86
5256.48
-7769.19
5627.31
-7764.22
6006.76
-7804.83
6402.47
-7883.85
6821.57
-7992.18
7270.87
-8127.07
7755.24
-8278.48
8280.24
-8456.96
8846.28
-8641.93
9462.92
-8883.6
10125
-9109.29
10865.8
-9535.6
11652
-9742.47
-11012.9
-3201.4
2540.25
-3354.05
2623.97
-3519.69
2704.64
-3695.65
2788.95
-3882.45
2866.36
-4077.55
2910.91
-4276
2888.09
-4468.96
2752.87
-4643.56
2467.68
-4786.96
2045.45
-4895.65
1591.44
-4981.45
1262.65
-5061.45
1116.5
-5139.58
1036.08
-5207.05
894.14
-5257.63
692.413
-5292.42
489.127
-5313.94
301.102
-5321.87
107.266
-5313.83
-107.705
-5290.31
-321.481
-5256.18
-492.985
-5213.34
-635.997
-5163.88
-744.316
-5110.06
-811.629
-5054.54
-829.941
-5000.57
-791.247
-4952
-690.935
-4912.4
-531.941
-4883.82
-321.364
-4867.83
-61.3348
-4866.83
244.41
-4882.46
602.198
-4918.55
1036.59
-4980.31
1553.38
-5073.52
2154.3
-5204.04
2834.22
-5377.48
3582.9
-5598.77
4385.43
-5872.13
5223.93
-6200.88
6078.28
-6587.21
6925.87
-7031.79
7741.37
-7532.94
8496.22
-8085.45
9157.19
-8678.1
9683.01
-9289.95
10019.9
-9886.45
10099.8
-10420.2
9849.59
-10843.2
9217.35
-11132.5
8211.33
-11314.1
6925.06
-11450.6
5497.75
-11585.3
4008.42
-11697.8
2421.84
-11728.6
676.97
-11635.9
-1214.72
-11406.7
-3214.01
-11037
-5267.73
-10525.5
-7323.35
-9876.69
-9330.41
-9103.41
-11232.2
-8233.1
-12970.6
-7313.63
-14512.6
-6409.84
-15910
-5581.39
-17362.9
-4841.79
-19200.9
-4148.66
-21551.7
-3564.65
-23321.2
-3520.88
-20817.9
-3890.5
-11701.5
-3431.36
-4429.14
-2441.19
-5333.57
-1629.05
-7823.97
-929.973
-9058.36
-233.013
-9727.48
449.396
-10154.9
1093.13
-10252.3
1691.37
-10117.4
2242.53
-9832.89
2749.66
-9481.85
3218.27
-9125.76
3654.78
-8803.55
4065.5
-8537.25
4456.35
-8336.83
4833.01
-8204.52
5201.16
-8137.33
5566.66
-8129.72
5935.59
-8173.76
6314.34
-8262.6
6709.29
-8387.12
7127.15
-8544.93
7573.79
-8725.12
8056.59
-8939.76
8579.47
-9164.8
9155.25
-9459.37
9780.94
-9734.98
10490
-10244.6
11235.1
-10487.5
-11919.9
-3111.66
2688.28
-3257.52
2769.82
-3419.28
2866.41
-3592.78
2962.45
-3779.62
3053.19
-3977.46
3108.75
-4181.38
3092.02
-4381.85
2953.35
-4564.31
2650.14
-4713.67
2194.81
-4825.28
1703.05
-4912.19
1349.55
-4993.78
1198.08
-5074.39
1116.69
-5143.97
963.717
-5195.56
744.003
-5230.49
524.055
-5251.48
322.095
-5258.19
113.967
-5248.11
-117.789
-5222.09
-347.498
-5185.49
-529.588
-5140.22
-681.269
-5088.44
-796.101
-5032.48
-867.59
-4975.07
-887.352
-4919.51
-846.81
-4869.74
-740.708
-4829.31
-572.376
-4799.86
-350.813
-4782.5
-78.7057
-4779.66
241.568
-4792.79
615.332
-4825.42
1069.22
-4882.78
1610.73
-4970.7
2242.21
-5095.15
2958.68
-5261.91
3749.66
-5476.15
4599.66
-5742.34
5490.13
-6064.2
6400.14
-6444.35
7306.03
-6883.8
8180.81
-7380.92
8993.34
-7929.69
9705.96
-8516.3
10269.6
-9114.16
10617.7
-9680.26
10665.9
-10160.6
10329.9
-10513.3
9570.11
-10744
8441.95
-10915.7
7096.78
-11100.8
5682.84
-11307.6
4215.31
-11472.5
2586.7
-11525.2
729.634
-11438
-1301.84
-11208.1
-3443.93
-10834
-5641.89
-10315.7
-7841.61
-9657.36
-9988.74
-8869.87
-12019.7
-7979.03
-13861.4
-7033.6
-15458
-6105.34
-16838.2
-5270.68
-18197.6
-4567.92
-19903.7
-3975.45
-22144.2
-3565.04
-23731.6
-3696.99
-20685.9
-3995.4
-11403.1
-3361.5
-5063.03
-2363.43
-6331.64
-1589.67
-8597.74
-912.572
-9735.45
-229.894
-10410.2
438.721
-10823.5
1070.5
-10884
1657.85
-10704.8
2199.54
-10374.6
2699.25
-9981.56
3162.96
-9589.47
3597.23
-9237.82
4008.14
-8948.16
4401.06
-8729.75
4780.85
-8584.3
5152.17
-8508.65
5519.75
-8497.3
5888.5
-8542.51
6263.63
-8637.73
6650.53
-8774.03
7055.2
-8949.6
7483.57
-9153.5
7943.44
-9399.63
8440.71
-9662.07
8988.94
-10007.6
9588.54
-10334.6
10272.2
-10928.3
11002.1
-11217.5
-12834.3
-3018.75
2821.54
-3158.03
2909.1
-3313.92
3022.29
-3483.49
3132.02
-3669.13
3238.83
-3868.95
3308.57
-4078.35
3301.41
-4287.27
3162.27
-4479.21
2842.08
-4636.06
2351.66
-4751.3
1818.29
-4839.29
1437.54
-4922.38
1281.17
-5005.7
1200.01
-5077.72
1035.73
-5130.59