/*--------------------------------*- C++ -*----------------------------------*\
| =========                 |                                                 |
| \\      /  F ield         | OpenFOAM: The Open Source CFD Toolbox           |
|  \\    /   O peration     | Version:  4.1                                   |
|   \\  /    A nd           | Web:      www.OpenFOAM.org                      |
|    \\/     M anipulation  |                                                 |
\*---------------------------------------------------------------------------*/
FoamFile
{
    version     2.0;
    format      ascii;
    class       volVectorField;
    location    "900";
    object      U;
}
// * * * * * * * * * * * * * * * * * * * * * * * * * * * * * * * * * * * * * //

dimensions      [0 1 -1 0 0 0 0];

internalField   nonuniform List<vector> 
26785
(
(4.78508e-14 0.000579588 -30.8512)
(5.43037e-14 0.00361761 -30.9172)
(6.20888e-14 0.00409628 -31.0152)
(7.04514e-14 0.00582128 -31.1314)
(8.22019e-14 0.00703904 -31.2821)
(8.9633e-14 0.00763886 -31.4488)
(9.95614e-14 0.00673048 -31.612)
(1.03634e-13 0.00353066 -31.7336)
(1.09596e-13 -0.00252239 -31.7652)
(1.10422e-13 -0.0110758 -31.6574)
(1.1697e-13 -0.0202816 -31.3856)
(1.17704e-13 -0.0273611 -30.9747)
(1.18178e-13 -0.030895 -30.491)
(1.1747e-13 -0.0323161 -29.9915)
(1.16066e-13 -0.033937 -29.4882)
(1.14199e-13 -0.0364538 -28.9666)
(1.12117e-13 -0.039291 -28.4184)
(1.10423e-13 -0.0420619 -27.8459)
(1.09874e-13 -0.0448838 -27.2506)
(1.05386e-13 -0.0479093 -26.6303)
(1.07145e-13 -0.0508715 -25.9842)
(1.05103e-13 -0.0533016 -25.3174)
(1.07922e-13 -0.0550364 -24.6383)
(1.11158e-13 -0.0559299 -23.9568)
(1.10497e-13 -0.0558337 -23.2839)
(1.18181e-13 -0.0546183 -22.6319)
(1.17661e-13 -0.0522187 -22.0133)
(1.20298e-13 -0.0486581 -21.4404)
(1.20708e-13 -0.0439739 -20.9242)
(1.25494e-13 -0.0381487 -20.4745)
(1.30434e-13 -0.03129 -20.1001)
(1.36097e-13 -0.0232493 -19.8103)
(1.21172e-13 -0.0137498 -19.6155)
(1.16186e-13 -0.00275878 -19.5274)
(1.05685e-13 0.00978467 -19.5576)
(1.09186e-13 0.0238116 -19.7173)
(9.49028e-14 0.0391607 -20.0159)
(8.34446e-14 0.0555672 -20.4603)
(7.02193e-14 0.0726801 -21.0542)
(5.58825e-14 0.090073 -21.7978)
(3.89112e-14 0.107252 -22.6869)
(1.48165e-14 0.123662 -23.7131)
(-4.10179e-16 0.138694 -24.8633)
(-1.78218e-14 0.151705 -26.1193)
(-2.89293e-14 0.162032 -27.4584)
(-4.4091e-14 0.169015 -28.8531)
(-5.51388e-14 0.172017 -30.2716)
(-6.62593e-14 0.170446 -31.6786)
(-7.50921e-14 0.163791 -33.0355)
(-8.13873e-14 0.151656 -34.3016)
(-8.49904e-14 0.133809 -35.4356)
(-8.53801e-14 0.110219 -36.3965)
(-8.69491e-14 0.0810595 -37.146)
(-8.59673e-14 0.0466705 -37.649)
(-8.40235e-14 0.00757862 -37.8751)
(-8.05194e-14 -0.0354035 -37.8001)
(-7.81656e-14 -0.0810851 -37.4097)
(-7.69e-14 -0.128394 -36.6996)
(-7.0415e-14 -0.177172 -35.6686)
(-6.67554e-14 -0.226914 -34.3185)
(-6.32322e-14 -0.277663 -32.6536)
(-5.815e-14 -0.329903 -30.6775)
(-5.43141e-14 -0.384885 -28.3896)
(-5.35362e-14 -0.444775 -25.7799)
(-5.00141e-14 -0.512572 -22.8239)
(-4.83348e-14 -0.59132 -19.4798)
(-4.61183e-14 -0.681998 -15.6961)
(-4.13901e-14 -0.779548 -11.4348)
(-3.35073e-14 -0.869476 -6.74153)
(-3.03678e-14 -0.909169 -1.89865)
(-7.13758e-14 -0.696139 2.23012)
(-7.00202e-14 -0.32493 5.04485)
(-7.08205e-14 -0.119338 6.52574)
(-6.26368e-14 -0.05713 6.90542)
(-5.15504e-14 -0.0438936 6.9521)
(-1.41001e-14 -0.0560983 7.14233)
(1.22191e-15 -0.0803447 7.56435)
(1.37466e-14 -0.107013 8.1559)
(1.24117e-14 -0.129207 8.87617)
(3.01129e-15 -0.144921 9.70194)
(-7.63282e-15 -0.155185 10.6004)
(-2.96674e-14 -0.161201 11.5352)
(-5.24124e-14 -0.163832 12.4777)
(-6.48368e-14 -0.163906 13.4084)
(-8.362e-14 -0.162253 14.3158)
(-9.02518e-14 -0.1596 15.1938)
(-9.99576e-14 -0.156523 16.0409)
(-1.05364e-13 -0.153458 16.858)
(-1.1509e-13 -0.150721 17.6481)
(-1.12771e-13 -0.14854 18.4152)
(-1.09901e-13 -0.147047 19.1636)
(-1.0443e-13 -0.146374 19.8986)
(-9.73682e-14 -0.146503 20.6238)
(-8.98418e-14 -0.14765 21.3473)
(-8.17886e-14 -0.149441 22.0658)
(-7.60307e-14 -0.152716 22.8051)
(-6.96624e-14 -0.155639 23.5158)
(-6.40003e-14 -0.161789 24.3415)
(-5.9799e-14 -0.163592 24.9138)
(-5.39027e-14 -0.175926 26.1578)
(5.87023e-14 0.00283857 -30.8799)
(6.87853e-14 0.0127799 -30.9553)
(8.07733e-14 0.0143876 -31.0727)
(8.98198e-14 0.0199947 -31.2068)
(1.01181e-13 0.0240763 -31.3774)
(1.08479e-13 0.0261239 -31.5652)
(1.21686e-13 0.0232568 -31.7493)
(1.27014e-13 0.0129175 -31.8893)
(1.35342e-13 -0.00659776 -31.9339)
(1.41157e-13 -0.0339514 -31.8328)
(1.42751e-13 -0.0630661 -31.5628)
(1.42778e-13 -0.0851555 -31.1526)
(1.41391e-13 -0.0959507 -30.6713)
(1.4011e-13 -0.100067 -30.175)
(1.37569e-13 -0.104672 -29.6738)
(1.37363e-13 -0.111891 -29.1526)
(1.37131e-13 -0.120016 -28.6039)
(1.30825e-13 -0.127973 -28.0303)
(1.28279e-13 -0.136196 -27.4337)
(1.25942e-13 -0.145175 -26.8117)
(1.1465e-13 -0.154096 -26.1633)
(1.20832e-13 -0.161505 -25.493)
(1.12385e-13 -0.166874 -24.8093)
(1.19842e-13 -0.169733 -24.1215)
(1.18947e-13 -0.169607 -23.4407)
(1.19261e-13 -0.166079 -22.7792)
(1.26045e-13 -0.158925 -22.1501)
(1.24568e-13 -0.1482 -21.5661)
(1.25161e-13 -0.134036 -21.0389)
(1.24914e-13 -0.116406 -20.5787)
(1.29077e-13 -0.0955895 -20.1944)
(1.22538e-13 -0.0711931 -19.8964)
(1.18134e-13 -0.0424238 -19.6943)
(1.10387e-13 -0.00914473 -19.6001)
(1.05499e-13 0.0288051 -19.6256)
(9.91202e-14 0.0712093 -19.782)
(8.61159e-14 0.117573 -20.0785)
(7.31502e-14 0.167099 -20.5221)
(5.88102e-14 0.218736 -21.1163)
(4.36575e-14 0.271212 -21.861)
(2.7342e-14 0.323056 -22.7521)
(1.07038e-14 0.372616 -23.781)
(-1.05143e-14 0.418079 -24.9343)
(-2.56401e-14 0.457516 -26.1941)
(-4.34569e-14 0.488946 -27.5375)
(-5.57339e-14 0.510389 -28.9371)
(-6.67385e-14 0.519923 -30.3613)
(-7.33038e-14 0.515768 -31.7749)
(-7.88431e-14 0.496387 -33.1395)
(-8.08935e-14 0.460603 -34.4147)
(-7.91794e-14 0.407736 -35.5592)
(-7.93481e-14 0.337735 -36.5325)
(-7.50751e-14 0.251181 -37.2964)
(-7.2468e-14 0.149174 -37.8162)
(-6.77784e-14 0.0334203 -38.0619)
(-5.8446e-14 -0.0934334 -38.0097)
(-5.65315e-14 -0.22756 -37.6463)
(-5.42779e-14 -0.36554 -36.9688)
(-4.83273e-14 -0.506823 -35.9791)
(-4.32085e-14 -0.649838 -34.6801)
(-4.00753e-14 -0.794263 -33.078)
(-3.77013e-14 -0.940997 -31.1786)
(-3.50174e-14 -1.09295 -28.9845)
(-3.13963e-14 -1.25542 -26.4897)
(-3.17966e-14 -1.43566 -23.6744)
(-3.02266e-14 -1.64041 -20.5031)
(-2.98526e-14 -1.8694 -16.9316)
(-2.81209e-14 -2.10409 -12.9305)
(-3.06699e-14 -2.29507 -8.54419)
(-5.17794e-15 -2.32699 -3.99268)
(-8.44058e-15 -1.89441 0.268919)
(-6.38821e-14 -0.899515 3.50525)
(-4.64686e-14 -0.299861 5.10763)
(-2.52359e-14 -0.141284 5.46929)
(1.03209e-14 -0.122205 5.51459)
(6.69752e-15 -0.175464 5.73872)
(1.28057e-15 -0.258865 6.22247)
(-1.74707e-14 -0.346856 6.90201)
(-5.77079e-14 -0.420884 7.73993)
(-7.18785e-14 -0.474247 8.70152)
(-7.79485e-14 -0.50796 9.73419)
(-9.26125e-14 -0.524707 10.7868)
(-9.27153e-14 -0.527937 11.824)
(-8.04105e-14 -0.521771 12.8264)
(-7.95389e-14 -0.510146 13.7855)
(-8.44269e-14 -0.496156 14.6994)
(-8.75962e-14 -0.481926 15.5702)
(-8.27412e-14 -0.468809 16.4023)
(-6.91645e-14 -0.457605 17.201)
(-6.407e-14 -0.448808 17.9721)
(-5.74741e-14 -0.44265 18.7212)
(-5.23239e-14 -0.439398 19.4546)
(-4.74497e-14 -0.438932 20.1764)
(-5.14794e-14 -0.441832 20.8958)
(-4.95363e-14 -0.446989 21.6095)
(-4.861e-14 -0.456806 22.3445)
(-5.06264e-14 -0.465943 23.05)
(-5.26205e-14 -0.484748 23.8736)
(-5.48628e-14 -0.490711 24.4408)
(-5.90639e-14 -0.528614 25.6836)
(7.03198e-14 0.00765806 -30.877)
(8.00531e-14 0.0228828 -30.9622)
(9.05315e-14 0.0260789 -31.0946)
(1.04684e-13 0.0353226 -31.2386)
(1.16725e-13 0.0422653 -31.416)
(1.25306e-13 0.0457225 -31.6069)
(1.35276e-13 0.0408296 -31.7905)
(1.39284e-13 0.0232456 -31.9258)
(1.45595e-13 -0.00974159 -31.9626)
(1.47325e-13 -0.0555797 -31.854)
(1.46916e-13 -0.103858 -31.5828)
(1.45227e-13 -0.14007 -31.1822)
(1.42896e-13 -0.157666 -30.7201)
(1.40276e-13 -0.164745 -30.2465)
(1.37851e-13 -0.173077 -29.7657)
(1.32496e-13 -0.185796 -29.261)
(1.2929e-13 -0.199863 -28.7256)
(1.17387e-13 -0.213509 -28.1624)
(1.20963e-13 -0.227511 -27.5737)
(1.10218e-13 -0.242718 -26.9572)
(1.14032e-13 -0.257844 -26.3122)
(1.13977e-13 -0.270507 -25.6435)
(1.01482e-13 -0.279834 -24.9595)
(1.00329e-13 -0.285019 -24.2692)
(1.05777e-13 -0.28523 -23.5837)
(1.0317e-13 -0.279712 -22.9152)
(1.1305e-13 -0.268035 -22.2773)
(1.15318e-13 -0.250252 -21.6831)
(1.14444e-13 -0.226614 -21.1449)
(1.13884e-13 -0.197128 -20.6736)
(1.11454e-13 -0.162175 -20.2782)
(1.08123e-13 -0.121218 -19.97)
(9.63292e-14 -0.0730135 -19.7578)
(1.00652e-13 -0.0172279 -19.6541)
(9.14411e-14 0.0463696 -19.6708)
(8.02958e-14 0.117403 -19.8194)
(6.77191e-14 0.195027 -20.1091)
(5.30781e-14 0.277892 -20.5468)
(3.73367e-14 0.364238 -21.136)
(2.03952e-14 0.451939 -21.8762)
(2.78414e-15 0.538544 -22.763)
(-1.43301e-14 0.6213 -23.7876)
(-3.05396e-14 0.69719 -24.9364)
(-4.4857e-14 0.763011 -26.1911)
(-5.72529e-14 0.815475 -27.5288)
(-6.63321e-14 0.851303 -28.9221)
(-7.25645e-14 0.867319 -30.3398)
(-7.57681e-14 0.860574 -31.7469)
(-7.65476e-14 0.828522 -33.1058)
(-7.58064e-14 0.769205 -34.3766)
(-7.38432e-14 0.681485 -35.5184)
(-7.15805e-14 0.565283 -36.491)
(-6.90517e-14 0.421576 -37.2566)
(-6.74594e-14 0.252227 -37.7809)
(-6.58687e-14 0.0601399 -38.034)
(-6.63327e-14 -0.150127 -37.9925)
(-6.77823e-14 -0.372042 -37.6439)
(-6.23685e-14 -0.599843 -36.9856)
(-5.68962e-14 -0.832597 -36.0196)
(-5.31044e-14 -1.06775 -34.7498)
(-4.78545e-14 -1.30458 -33.1835)
(-4.51876e-14 -1.54436 -31.3285)
(-4.17704e-14 -1.79165 -29.1898)
(-3.84054e-14 -2.0549 -26.7645)
(-3.46368e-14 -2.34585 -24.0366)
(-2.62957e-14 -2.67531 -20.9738)
(-1.86841e-14 -3.0428 -17.5336)
(-1.91157e-14 -3.41803 -13.6857)
(-1.1932e-14 -3.71586 -9.46733)
(-8.24859e-15 -3.74957 -5.07331)
(-2.4734e-15 -3.15377 -0.918246)
(-3.27724e-14 -1.65139 2.26579)
(1.58077e-14 -0.56734 3.80451)
(3.60854e-14 -0.274534 3.96029)
(-1.12599e-17 -0.229514 3.89254)
(-3.03197e-14 -0.321514 4.11386)
(-5.48988e-14 -0.476696 4.72597)
(-5.78894e-14 -0.645043 5.62731)
(-5.19335e-14 -0.782112 6.71489)
(-4.54358e-14 -0.871741 7.89756)
(-3.85196e-14 -0.91824 9.09945)
(-2.96929e-14 -0.931612 10.2716)
(-2.47865e-14 -0.922351 11.3901)
(-2.6061e-14 -0.89976 12.4472)
(-2.61029e-14 -0.870975 13.4431)
(-2.45691e-14 -0.840814 14.3818)
(-2.25519e-14 -0.812229 15.2693)
(-2.17713e-14 -0.786931 16.1123)
(-2.15663e-14 -0.765844 16.9176)
(-2.80982e-14 -0.749498 17.6924)
(-3.24139e-14 -0.73808 18.4429)
(-3.75278e-14 -0.73189 19.1762)
(-4.65813e-14 -0.730645 19.8969)
(-5.21573e-14 -0.735222 20.6146)
(-5.78445e-14 -0.743796 21.3259)
(-6.25414e-14 -0.760214 22.0594)
(-6.91929e-14 -0.775856 22.762)
(-7.35527e-14 -0.807348 23.5865)
(-7.68591e-14 -0.817771 24.1501)
(-7.9026e-14 -0.881473 25.3963)
(8.04404e-14 0.0147921 -30.8127)
(9.05134e-14 0.0346014 -30.9104)
(1.00813e-13 0.0393132 -31.0511)
(1.1088e-13 0.0516141 -31.1972)
(1.18946e-13 0.0609569 -31.3711)
(1.28733e-13 0.0653038 -31.5536)
(1.33434e-13 0.0578929 -31.7255)
(1.38322e-13 0.0326924 -31.8484)
(1.4301e-13 -0.0137759 -31.8751)
(1.42191e-13 -0.0774777 -31.7622)
(1.40802e-13 -0.143652 -31.4949)
(1.38986e-13 -0.192518 -31.1069)
(1.36446e-13 -0.215889 -30.6636)
(1.34821e-13 -0.225628 -30.2112)
(1.30008e-13 -0.237868 -29.7507)
(1.27644e-13 -0.256397 -29.2649)
(1.23852e-13 -0.276739 -28.7469)
(1.23583e-13 -0.29648 -28.1996)
(1.12381e-13 -0.316728 -27.6246)
(1.13879e-13 -0.338623 -27.0191)
(1.11034e-13 -0.360375 -26.3826)
(1.10917e-13 -0.378676 -25.7201)
(1.03385e-13 -0.392359 -25.04)
(1.03652e-13 -0.400295 -24.3515)
(1.03762e-13 -0.401287 -23.6655)
(1.04465e-13 -0.394217 -22.9942)
(1.05469e-13 -0.378398 -22.3512)
(1.0663e-13 -0.353846 -21.7502)
(1.07157e-13 -0.320936 -21.204)
(1.06013e-13 -0.27974 -20.7237)
(1.00404e-13 -0.230672 -20.3184)
(9.42018e-14 -0.17315 -20.0007)
(8.24261e-14 -0.105532 -19.7778)
(7.77072e-14 -0.0271748 -19.663)
(7.18781e-14 0.0621936 -19.6684)
(6.51827e-14 0.162025 -19.8057)
(3.68488e-14 0.271095 -20.0844)
(3.67902e-14 0.387479 -20.5113)
(2.15106e-14 0.508678 -21.0899)
(-3.90837e-15 0.631694 -21.8197)
(-1.23229e-14 0.753085 -22.696)
(-2.97193e-14 0.868996 -23.7099)
(-4.92462e-14 0.975224 -24.8476)
(-6.08404e-14 1.06732 -26.091)
(-6.53229e-14 1.14075 -27.4174)
(-7.13968e-14 1.19099 -28.8)
(-7.41638e-14 1.21367 -30.2085)
(-7.5391e-14 1.20472 -31.6086)
(-7.51698e-14 1.16059 -32.9634)
(-7.57993e-14 1.07852 -34.2335)
(-7.75636e-14 0.956886 -35.3781)
(-7.94102e-14 0.79553 -36.3565)
(-8.20909e-14 0.595802 -37.1303)
(-7.72824e-14 0.360291 -37.6645)
(-7.58656e-14 0.0930529 -37.9283)
(-7.58421e-14 -0.199456 -37.8975)
(-7.62137e-14 -0.508038 -37.5598)
(-7.41379e-14 -0.824564 -36.9132)
(-6.723e-14 -1.14726 -35.9619)
(-6.38483e-14 -1.47256 -34.7099)
(-5.90913e-14 -1.79916 -33.1663)
(-5.50852e-14 -2.12849 -31.3405)
(-5.07925e-14 -2.46647 -29.2407)
(-4.75631e-14 -2.82458 -26.8674)
(-4.28621e-14 -3.21911 -24.2087)
(-3.44207e-14 -3.66559 -21.2354)
(-3.53545e-14 -4.16458 -17.9053)
(-2.82023e-14 -4.67629 -14.1839)
(-1.35573e-14 -5.08407 -10.097)
(-8.27528e-15 -5.13281 -5.82383)
(4.50883e-15 -4.35611 -1.80549)
(-3.69537e-14 -2.34961 1.1496)
(2.01958e-14 -0.632766 2.32019)
(-7.10983e-14 -0.236483 1.73103)
(-1.08936e-13 -0.253391 1.44661)
(-4.92684e-14 -0.500683 1.99712)
(-5.96338e-14 -0.808389 3.12822)
(-1.12793e-14 -1.07293 4.47216)
(-4.86341e-15 -1.25075 5.86671)
(2.21705e-15 -1.34557 7.24242)
(7.4209e-15 -1.3789 8.56285)
(3.61081e-15 -1.37125 9.81122)
(-1.75255e-15 -1.33873 10.9832)
(-1.01116e-14 -1.29333 12.0811)
(-1.52464e-14 -1.2434 13.1097)
(-2.02745e-14 -1.19429 14.0754)
(-1.97475e-14 -1.14924 14.9853)
(-2.89132e-14 -1.11006 15.8466)
(-3.53622e-14 -1.0777 16.6668)
(-4.827e-14 -1.05268 17.4534)
(-5.13062e-14 -1.03509 18.2132)
(-5.84292e-14 -1.02525 18.9537)
(-6.74302e-14 -1.02269 19.6796)
(-7.29612e-14 -1.02857 20.4015)
(-7.55299e-14 -1.04033 21.1152)
(-7.56142e-14 -1.06333 21.8516)
(-7.71276e-14 -1.08548 22.5545)
(-7.61881e-14 -1.13006 23.3834)
(-7.66871e-14 -1.14492 23.9453)
(-7.59319e-14 -1.23591 25.1998)
(7.79402e-14 0.0224752 -30.6768)
(8.67551e-14 0.0487884 -30.7954)
(9.64309e-14 0.0536706 -30.9402)
(1.07246e-13 0.0686917 -31.0878)
(1.15428e-13 0.0798902 -31.2567)
(1.23184e-13 0.0848655 -31.4305)
(1.29191e-13 0.0749788 -31.5926)
(1.29159e-13 0.0425655 -31.708)
(1.28508e-13 -0.0166907 -31.732)
(1.24338e-13 -0.0974549 -31.6218)
(1.18865e-13 -0.180844 -31.3615)
(1.14367e-13 -0.241926 -30.9833)
(1.06737e-13 -0.270844 -30.5523)
(1.02983e-13 -0.283157 -30.1139)
(9.59322e-14 -0.299301 -29.6681)
(9.27017e-14 -0.323676 -29.197)
(9.25477e-14 -0.350363 -28.6939)
(8.89613e-14 -0.376344 -28.1614)
(8.70621e-14 -0.403104 -27.6007)
(8.56231e-14 -0.432052 -27.0079)
(8.35425e-14 -0.460818 -26.3817)
(8.25318e-14 -0.485118 -25.7277)
(7.51679e-14 -0.503524 -25.0541)
(7.55463e-14 -0.514589 -24.3701)
(7.53395e-14 -0.516759 -23.6863)
(7.65707e-14 -0.508539 -23.0151)
(8.04126e-14 -0.488956 -22.3701)
(8.40575e-14 -0.457957 -21.7652)
(7.60538e-14 -0.416044 -21.2135)
(7.61646e-14 -0.363391 -20.7265)
(7.27935e-14 -0.300368 -20.3128)
(6.85319e-14 -0.226469 -19.9865)
(6.33727e-14 -0.139697 -19.7531)
(5.86027e-14 -0.0389389 -19.6265)
(4.79806e-14 0.0760922 -19.619)
(4.25409e-14 0.204678 -19.7427)
(2.89303e-14 0.345196 -20.0073)
(1.66511e-14 0.495127 -20.4199)
(1.26815e-15 0.651212 -20.984)
(-1.33638e-14 0.809568 -21.6994)
(-2.72578e-14 0.965759 -22.5614)
(-4.27074e-14 1.11484 -23.5611)
(-5.51013e-14 1.25147 -24.6851)
(-5.79237e-14 1.36998 -25.9156)
(-6.368e-14 1.46466 -27.2307)
(-6.73821e-14 1.52977 -28.6043)
(-6.94986e-14 1.55977 -30.0068)
(-7.05194e-14 1.54941 -31.4046)
(-7.07984e-14 1.49405 -32.7611)
(-7.23658e-14 1.39 -34.0365)
(-7.56235e-14 1.23499 -35.1893)
(-7.73212e-14 1.02869 -36.1779)
(-8.0068e-14 0.772784 -36.9624)
(-7.72116e-14 0.470644 -37.5067)
(-7.56004e-14 0.127586 -37.7791)
(-7.05198e-14 -0.247768 -37.7547)
(-6.37455e-14 -0.643219 -37.4213)
(-6.1442e-14 -1.04817 -36.7785)
(-5.98248e-14 -1.46021 -35.832)
(-5.98023e-14 -1.87479 -34.5867)
(-5.69888e-14 -2.28979 -33.053)
(-5.36165e-14 -2.70658 -31.243)
(-4.97279e-14 -3.13215 -29.1682)
(-4.80723e-14 -3.58083 -26.8337)
(-4.52167e-14 -4.07357 -24.232)
(-4.18192e-14 -4.63122 -21.3373)
(-3.02018e-14 -5.25665 -18.1066)
(-2.53891e-14 -5.90177 -14.4994)
(-1.22638e-14 -6.41786 -10.5287)
(-1.1085e-14 -6.4768 -6.36501)
(-2.14646e-16 -5.48547 -2.5068)
(-3.71053e-14 -2.89974 0.0691528)
(-2.79861e-14 -0.270737 0.367435)
(-1.17276e-13 -0.146051 -1.83449)
(-3.74661e-14 -0.554997 -1.05995)
(-3.59214e-14 -1.00262 0.55627)
(-2.08801e-14 -1.36384 2.1598)
(3.90483e-14 -1.6321 3.73547)
(2.88814e-14 -1.78923 5.24233)
(3.24548e-14 -1.85744 6.67625)
(1.92451e-14 -1.86353 8.03405)
(-1.04241e-14 -1.82927 9.31429)
(-1.30584e-14 -1.77127 10.5182)
(-2.21142e-14 -1.70184 11.649)
(-3.36799e-14 -1.62965 12.7113)
(-3.4759e-14 -1.56039 13.7101)
(-4.21435e-14 -1.49754 14.6516)
(-4.91765e-14 -1.44311 15.5423)
(-5.63307e-14 -1.39812 16.3891)
(-5.77811e-14 -1.36312 17.1993)
(-6.19349e-14 -1.33818 17.9793)
(-6.42285e-14 -1.32362 18.7371)
(-7.05086e-14 -1.31882 19.4772)
(-7.24842e-14 -1.3252 20.2112)
(-7.34376e-14 -1.3395 20.9339)
(-7.20226e-14 -1.36869 21.6793)
(-7.06674e-14 -1.39683 22.3869)
(-7.10943e-14 -1.45489 23.225)
(-7.27695e-14 -1.47351 23.7881)
(-7.29023e-14 -1.59388 25.0574)
(7.52063e-14 0.0339521 -30.5153)
(8.53112e-14 0.064839 -30.6075)
(9.43826e-14 0.0700005 -30.7702)
(1.05172e-13 0.0870378 -30.9196)
(1.12823e-13 0.0996216 -31.0884)
(1.19487e-13 0.104943 -31.2588)
(1.21083e-13 0.0926005 -31.4177)
(1.1546e-13 0.0532359 -31.533)
(1.1095e-13 -0.0184943 -31.5609)
(1.06713e-13 -0.116127 -31.4573)
(1.04285e-13 -0.216625 -31.2039)
(9.93909e-14 -0.289704 -30.8326)
(9.25137e-14 -0.32378 -30.4099)
(8.91215e-14 -0.338303 -29.9818)
(8.46852e-14 -0.358143 -29.5471)
(8.03379e-14 -0.388232 -29.087)
(7.7258e-14 -0.421128 -28.595)
(7.20712e-14 -0.453254 -28.0744)
(7.39698e-14 -0.486567 -27.526)
(7.52708e-14 -0.522757 -26.9449)
(7.3651e-14 -0.558799 -26.3289)
(6.83975e-14 -0.589367 -25.6837)
(6.83027e-14 -0.612815 -25.0174)
(5.68221e-14 -0.627359 -24.3391)
(5.70591e-14 -0.63109 -23.6592)
(6.03536e-14 -0.622122 -22.9899)
(5.91805e-14 -0.599168 -22.3447)
(5.91257e-14 -0.562073 -21.7377)
(5.89074e-14 -0.511475 -21.1821)
(6.15443e-14 -0.447681 -20.6898)
(6.24454e-14 -0.370935 -20.2691)
(6.17589e-14 -0.28094 -19.935)
(6.17394e-14 -0.175393 -19.6915)
(5.50731e-14 -0.0525311 -19.5527)
(4.97365e-14 0.0879283 -19.5313)
(3.54106e-14 0.245111 -19.6398)
(1.80244e-14 0.41699 -19.8883)
(6.33794e-15 0.600441 -20.2843)
(-7.41228e-15 0.791434 -20.8317)
(-2.11567e-14 0.985195 -21.5304)
(-3.43937e-14 1.1763 -22.3762)
(-4.04342e-14 1.35875 -23.3604)
(-4.46889e-14 1.52605 -24.4703)
(-5.07964e-14 1.67141 -25.6887)
(-5.27565e-14 1.78791 -26.9942)
(-5.75245e-14 1.86866 -28.3615)
(-6.15152e-14 1.90687 -29.7615)
(-6.52122e-14 1.89606 -31.1612)
(-6.86149e-14 1.83039 -32.5235)
(-7.17726e-14 1.70513 -33.8079)
(-7.41093e-14 1.5173 -34.9718)
(-7.41091e-14 1.26634 -35.9718)
(-7.22021e-14 0.954318 -36.7667)
(-6.8509e-14 0.585383 -37.3188)
(-6.466e-14 0.166122 -37.5952)
(-6.04607e-14 -0.292591 -37.5701)
(-5.66557e-14 -0.77532 -37.2318)
(-5.3389e-14 -1.26881 -36.5818)
(-5.17253e-14 -1.76982 -35.6279)
(-5.05802e-14 -2.27289 -34.3756)
(-4.61709e-14 -2.7748 -32.8378)
(-4.17918e-14 -3.27654 -31.0295)
(-3.77885e-14 -3.7859 -28.9667)
(-3.59035e-14 -4.31984 -26.6599)
(-3.51056e-14 -4.90419 -24.1073)
(-3.3886e-14 -5.56603 -21.2866)
(-2.91352e-14 -6.31224 -18.1539)
(-1.81988e-14 -7.0883 -14.6603)
(-7.74955e-15 -7.71284 -10.8055)
(-5.13163e-15 -7.77321 -6.75713)
(7.82464e-15 -6.50846 -3.09703)
(-3.99848e-14 -3.19592 -1.03923)
(-4.32958e-14 0.0925691 -1.73052)
(-4.1712e-15 -0.289407 -2.79705)
(8.23509e-14 -1.10021 -1.47626)
(4.51212e-14 -1.61598 0.132216)
(6.20876e-14 -1.94407 1.7032)
(7.07944e-14 -2.18728 3.23611)
(3.44578e-14 -2.3212 4.71271)
(8.31302e-15 -2.36789 6.12569)
(-6.56644e-15 -2.35248 7.47278)
(-7.82273e-15 -2.29627 8.75316)
(-1.68823e-14 -2.21623 9.96777)
(-1.71721e-14 -2.12513 11.1189)
(-3.22835e-14 -2.03207 12.2092)
(-4.45865e-14 -1.94318 13.2419)
(-4.8507e-14 -1.86231 14.2209)
(-5.34008e-14 -1.79181 15.1504)
(-5.62733e-14 -1.73297 16.0355)
(-6.00516e-14 -1.68651 16.882)
(-5.83238e-14 -1.65261 17.6953)
(-5.98431e-14 -1.63171 18.4829)
(-6.52733e-14 -1.62314 19.2489)
(-6.78742e-14 -1.62864 20.0055)
(-6.73495e-14 -1.64426 20.7464)
(-6.74634e-14 -1.67881 21.5092)
(-6.90412e-14 -1.71187 22.2277)
(-7.05119e-14 -1.784 23.0824)
(-7.11017e-14 -1.80518 23.6512)
(-7.12215e-14 -1.95795 24.9446)
(7.24698e-14 0.0521487 -30.2679)
(7.94724e-14 0.0826412 -30.3628)
(8.80258e-14 0.0892427 -30.542)
(9.42327e-14 0.107376 -30.6991)
(9.91721e-14 0.121056 -30.8741)
(1.03391e-13 0.126464 -31.0479)
(1.04023e-13 0.111726 -31.2102)
(9.9828e-14 0.0656582 -31.3308)
(9.67432e-14 -0.018312 -31.3664)
(9.43565e-14 -0.132769 -31.2712)
(9.11313e-14 -0.25046 -31.0249)
(8.3341e-14 -0.335529 -30.6598)
(8.11864e-14 -0.374606 -30.2449)
(7.95415e-14 -0.391214 -29.8265)
(7.93196e-14 -0.414757 -29.4017)
(7.84115e-14 -0.450582 -28.9506)
(7.87086e-14 -0.4896 -28.4671)
(7.42377e-14 -0.527722 -27.9558)
(6.62951e-14 -0.567514 -27.4173)
(6.17811e-14 -0.611 -26.8462)
(6.18666e-14 -0.654445 -26.239)
(6.3832e-14 -0.691414 -25.602)
(6.23161e-14 -0.720104 -24.9431)
(5.56302e-14 -0.738381 -24.2709)
(5.63147e-14 -0.74398 -23.5956)
(5.60621e-14 -0.73461 -22.9291)
(5.96242e-14 -0.708638 -22.2849)
(6.17313e-14 -0.665786 -21.677)
(6.31662e-14 -0.606828 -21.1188)
(5.73718e-14 -0.532228 -20.6223)
(6.41882e-14 -0.442062 -20.1957)
(5.95218e-14 -0.336346 -19.8542)
(5.56006e-14 -0.212499 -19.6009)
(4.99709e-14 -0.0679388 -19.4498)
(4.35082e-14 0.0976052 -19.4141)
(3.55807e-14 0.283131 -19.5065)
(1.88168e-14 0.486213 -19.7377)
(8.87499e-15 0.703119 -20.1157)
(-2.85288e-15 0.929048 -20.6448)
(-1.41117e-14 1.15833 -21.3254)
(-2.41245e-14 1.38457 -22.1539)
(-2.73205e-14 1.60071 -23.1222)
(-3.68053e-14 1.79915 -24.2181)
(-4.07669e-14 1.97196 -25.4251)
(-4.97073e-14 2.11105 -26.7225)
(-5.98598e-14 2.20833 -28.0857)
(-7.00495e-14 2.25572 -29.486)
(-7.88418e-14 2.24541 -30.8903)
(-8.50553e-14 2.17022 -32.261)
(-8.62954e-14 2.02425 -33.5568)
(-8.2254e-14 1.80366 -34.7329)
(-7.52024e-14 1.50762 -35.7438)
(-6.66566e-14 1.13856 -36.546)
(-6.38265e-14 0.701554 -37.0998)
(-5.89023e-14 0.204589 -37.3709)
(-5.39128e-14 -0.338871 -37.3328)
(-4.8576e-14 -0.909715 -36.9752)
(-4.19839e-14 -1.49198 -36.3027)
(-3.60948e-14 -2.08174 -35.3248)
(-3.54107e-14 -2.67254 -34.0488)
(-2.96051e-14 -3.25973 -32.4907)
(-2.5866e-14 -3.84358 -30.6696)
(-2.18934e-14 -4.43229 -28.6068)
(-1.88025e-14 -5.04524 -26.3195)
(-1.66333e-14 -5.71344 -23.8125)
(-1.45261e-14 -6.4713 -21.0677)
(-1.68014e-14 -7.33163 -18.0394)
(-6.66026e-15 -8.2354 -14.669)
(6.60846e-16 -8.96679 -10.9413)
(-1.57276e-15 -9.01254 -7.0274)
(5.77529e-15 -7.39853 -3.61608)
(-4.39135e-14 -3.29241 -2.15109)
(-6.78098e-14 0.290695 -3.06774)
(-3.77444e-14 -0.503076 -3.04146)
(-3.05843e-14 -1.58751 -1.59646)
(7.84298e-14 -2.14803 -0.130531)
(8.77342e-14 -2.46901 1.35468)
(5.22508e-14 -2.70903 2.81668)
(1.4903e-14 -2.8334 4.23826)
(-1.9059e-15 -2.8667 5.6025)
(-4.64461e-15 -2.83556 6.9078)
(-2.69459e-14 -2.76275 8.15621)
(-3.9846e-14 -2.666 9.35138)
(-3.03558e-14 -2.55826 10.4972)
(-3.93239e-14 -2.44864 11.5967)
(-4.13291e-14 -2.3434 12.6516)
(-4.30409e-14 -2.24663 13.6634)
(-4.63544e-14 -2.16105 14.6335)
(-4.43801e-14 -2.08829 15.5637)
(-5.10404e-14 -2.02953 16.4569)
(-5.07711e-14 -1.98524 17.3162)
(-5.42133e-14 -1.95624 18.1473)
(-6.31301e-14 -1.94199 18.953)
(-6.7891e-14 -1.94467 19.7455)
(-7.10015e-14 -1.95987 20.5167)
(-6.96456e-14 -1.99822 21.3085)
(-7.01953e-14 -2.03463 22.0465)
(-7.00981e-14 -2.12155 22.9291)
(-7.17168e-14 -2.1431 23.51)
(-7.08368e-14 -2.33185 24.8389)
(6.80812e-14 0.0729772 -29.9493)
(7.22826e-14 0.104195 -30.0624)
(7.79127e-14 0.111799 -30.2569)
(8.24561e-14 0.130712 -30.4278)
(8.68987e-14 0.145117 -30.615)
(8.99337e-14 0.150325 -30.7987)
(9.02824e-14 0.133098 -30.9701)
(8.83156e-14 0.0803625 -31.1003)
(8.59097e-14 -0.01586 -31.1463)
(7.92979e-14 -0.147318 -31.061)
(7.27634e-14 -0.282412 -30.8229)
(6.86413e-14 -0.379462 -30.4649)
(6.81562e-14 -0.423305 -30.0586)
(6.91252e-14 -0.441833 -29.6506)
(6.92856e-14 -0.469147 -29.236)
(6.95149e-14 -0.510829 -28.7933)
(6.66661e-14 -0.555963 -28.3173)
(6.68427e-14 -0.599958 -27.8135)
(6.61998e-14 -0.646149 -27.2833)
(6.63325e-14 -0.696938 -26.7204)
(6.75945e-14 -0.747848 -26.1207)
(6.8877e-14 -0.791268 -25.4909)
(7.07144e-14 -0.825322 -24.8386)
(6.65216e-14 -0.847523 -24.1725)
(6.30637e-14 -0.85525 -23.5021)
(6.58515e-14 -0.845795 -22.839)
(6.92928e-14 -0.817147 -22.1965)
(7.44263e-14 -0.768868 -21.5886)
(6.8658e-14 -0.701877 -21.0288)
(6.88466e-14 -0.616799 -20.5292)
(6.66847e-14 -0.513548 -20.0977)
(6.37317e-14 -0.392545 -19.7495)
(5.99576e-14 -0.25092 -19.4868)
(5.53526e-14 -0.0851345 -19.3236)
(4.96526e-14 0.105077 -19.2733)
(4.27518e-14 0.318624 -19.3492)
(2.68913e-14 0.552697 -19.5623)
(1.78837e-14 0.802964 -19.9213)
(6.44024e-15 1.06386 -20.431)
(-5.87165e-15 1.32882 -21.0927)
(-1.78563e-14 1.59048 -21.9031)
(-2.40169e-14 1.84074 -22.855)
(-3.35472e-14 2.07091 -23.9369)
(-4.22064e-14 2.27192 -25.133)
(-5.74542e-14 2.4345 -26.4234)
(-7.13426e-14 2.54931 -27.784)
(-8.25403e-14 2.60695 -29.1865)
(-8.90806e-14 2.59813 -30.5975)
(-8.9447e-14 2.51419 -31.9788)
(-8.39439e-14 2.34786 -33.2868)
(-7.57714e-14 2.0943 -34.4743)
(-6.79053e-14 1.75236 -35.4924)
(-5.90762e-14 1.32489 -36.2942)
(-5.32909e-14 0.818036 -36.8377)
(-4.66525e-14 0.241427 -37.087)
(-4.21238e-14 -0.388498 -37.0157)
(-3.80291e-14 -1.04847 -36.6174)
(-3.0968e-14 -1.71994 -35.9017)
(-2.16098e-14 -2.39819 -34.8792)
(-1.75926e-14 -3.07567 -33.5607)
(-1.06767e-14 -3.74592 -31.9658)
(-7.33778e-15 -4.40816 -30.119)
(-3.50235e-15 -5.07059 -28.0477)
(-9.50729e-16 -5.75486 -25.7765)
(7.44599e-16 -6.4975 -23.3178)
(1.01393e-15 -7.34157 -20.6581)
(-1.37339e-15 -8.30823 -17.7492)
(2.30265e-15 -9.33595 -14.5209)
(7.50702e-15 -10.1716 -10.9416)
(1.42645e-15 -10.1812 -7.19162)
(-6.04096e-16 -8.14198 -4.09035)
(-5.01912e-14 -3.26961 -3.2312)
(-1.07293e-13 0.341971 -4.08617)
(-1.06683e-13 -0.829552 -3.29587)
(-3.3391e-14 -2.07249 -1.80502)
(5.05474e-14 -2.6458 -0.383522)
(4.84756e-14 -2.97166 1.06834)
(2.52372e-14 -3.2111 2.47901)
(8.43516e-15 -3.3255 3.84659)
(8.95492e-16 -3.3453 5.14972)
(-1.37465e-14 -3.30026 6.39081)
(-2.81186e-14 -3.21491 7.57755)
(-3.24626e-14 -3.10729 8.71941)
(-3.49849e-14 -2.98979 9.82532)
(-3.07494e-14 -2.87074 10.9016)
(-3.68226e-14 -2.75574 11.9518)
(-3.91922e-14 -2.64855 12.9764)
(-4.23578e-14 -2.55188 13.9749)
(-4.73046e-14 -2.46767 14.9455)
(-4.74771e-14 -2.39759 15.8875)
(-5.11844e-14 -2.34267 16.8001)
(-5.83517e-14 -2.30438 17.6859)
(-6.56239e-14 -2.28264 18.5446)
(-6.81771e-14 -2.28031 19.3876)
(-6.67895e-14 -2.29287 20.2034)
(-6.73424e-14 -2.33278 21.0385)
(-6.77936e-14 -2.37077 21.8077)
(-6.91012e-14 -2.47298 22.7348)
(-6.9277e-14 -2.49118 23.3334)
(-6.71768e-14 -2.72014 24.7131)
(6.33849e-14 0.09661 -29.5677)
(6.51949e-14 0.129837 -29.7049)
(7.18051e-14 0.138489 -29.9155)
(7.56938e-14 0.157923 -30.1047)
(7.99475e-14 0.172773 -30.3094)
(8.51705e-14 0.177452 -30.509)
(8.44093e-14 0.157519 -30.6947)
(7.96702e-14 0.0980146 -30.8384)
(7.28055e-14 -0.0105574 -30.8978)
(6.14367e-14 -0.159214 -30.8248)
(5.03298e-14 -0.311932 -30.5966)
(4.52223e-14 -0.421007 -30.2471)
(4.24656e-14 -0.469473 -29.8504)
(4.08038e-14 -0.489868 -29.454)
(3.85736e-14 -0.521141 -29.0505)
(3.63936e-14 -0.568936 -28.6166)
(3.64794e-14 -0.620294 -28.1476)
(3.74699e-14 -0.670117 -27.6504)
(4.06099e-14 -0.722637 -27.1272)
(4.69576e-14 -0.780733 -26.5713)
(4.30602e-14 -0.839142 -25.9777)
(4.41333e-14 -0.888991 -25.3537)
(4.45183e-14 -0.928441 -24.7074)
(4.95474e-14 -0.954665 -24.0468)
(6.40829e-14 -0.964703 -23.3813)
(5.9468e-14 -0.955418 -22.722)
(5.79577e-14 -0.924391 -22.0819)
(5.05983e-14 -0.870991 -21.4749)
(5.68144e-14 -0.796284 -20.9144)
(5.48746e-14 -0.701065 -20.4127)
(5.12043e-14 -0.585109 -19.9774)
(6.20681e-14 -0.449312 -19.623)
(5.64974e-14 -0.290481 -19.3517)
(6.13186e-14 -0.104005 -19.1768)
(6.19604e-14 0.110387 -19.1121)
(5.31529e-14 0.351569 -19.1713)
(3.66757e-14 0.616365 -19.3659)
(2.79609e-14 0.899863 -19.7052)
(1.70371e-14 1.19573 -20.1948)
(5.09461e-15 1.49655 -20.8366)
(-7.81705e-15 1.79396 -21.6283)
(-2.15225e-14 2.07885 -22.5634)
(-3.76276e-14 2.34144 -23.6311)
(-4.96075e-14 2.5715 -24.8167)
(-6.58305e-14 2.7586 -26.1009)
(-7.74481e-14 2.89208 -27.4603)
(-8.32994e-14 2.9611 -28.8667)
(-8.28167e-14 2.95473 -30.2862)
(-7.73275e-14 2.86258 -31.6788)
(-6.90836e-14 2.67579 -32.9983)
(-6.00149e-14 2.38832 -34.1933)
(-5.01345e-14 1.99857 -35.2098)
(-3.88742e-14 1.51001 -35.9966)
(-2.77232e-14 0.930205 -36.5085)
(-1.65734e-14 0.27099 -36.7091)
(-6.36807e-15 -0.447476 -36.5753)
(-2.85741e-16 -1.19716 -36.1084)
(2.16899e-15 -1.95756 -35.3258)
(9.62873e-15 -2.72331 -34.2382)
(1.13825e-14 -3.48542 -32.8609)
(1.30829e-14 -4.2353 -31.2179)
(1.65088e-14 -4.97086 -29.3386)
(2.0041e-14 -5.69989 -27.2567)
(2.24196e-14 -6.44609 -25.0047)
(2.21568e-14 -7.25188 -22.6031)
(2.31471e-14 -8.17053 -20.0437)
(2.20613e-14 -9.2343 -17.2759)
(1.92937e-14 -10.3814 -14.2153)
(2.10849e-14 -11.317 -10.8126)
(7.66398e-15 -11.2634 -7.26323)
(-7.62152e-16 -8.72621 -4.5408)
(-5.10818e-14 -3.1757 -4.27539)
(-1.0311e-13 0.184789 -4.89932)
(-1.12697e-13 -1.27109 -3.57561)
(-5.78847e-14 -2.5796 -2.03737)
(5.67201e-14 -3.14338 -0.605552)
(2.85726e-14 -3.4695 0.843359)
(9.05498e-15 -3.698 2.22446)
(1.03769e-14 -3.79613 3.54866)
(1.47931e-15 -3.79825 4.79259)
(-9.58229e-15 -3.73751 5.9628)
(-3.57506e-14 -3.64053 7.07191)
(-3.94133e-14 -3.52563 8.13556)
(-2.7677e-14 -3.40435 9.16928)
(-3.22354e-14 -3.28361 10.1857)
(-4.2351e-14 -3.1675 11.1932)
(-3.93805e-14 -3.05848 12.1956)
(-4.17862e-14 -2.95843 13.1928)
(-4.52992e-14 -2.86896 14.182)
(-4.79546e-14 -2.79197 15.1593)
(-5.07156e-14 -2.72895 16.1199)
(-5.65049e-14 -2.68224 17.0622)
(-5.99113e-14 -2.6525 17.9813)
(-5.96584e-14 -2.64359 18.886)
(-6.27503e-14 -2.65151 19.7599)
(-6.3783e-14 -2.69039 20.6537)
(-6.3211e-14 -2.72857 21.4683)