/*--------------------------------*- C++ -*----------------------------------*\
| =========                 |                                                 |
| \\      /  F ield         | OpenFOAM: The Open Source CFD Toolbox           |
|  \\    /   O peration     | Version:  4.1                                   |
|   \\  /    A nd           | Web:      www.OpenFOAM.org                      |
|    \\/     M anipulation  |                                                 |
\*---------------------------------------------------------------------------*/
FoamFile
{
    version     2.0;
    format      ascii;
    class       volScalarField;
    location    "1800";
    object      p;
}
// * * * * * * * * * * * * * * * * * * * * * * * * * * * * * * * * * * * * * //

dimensions      [0 2 -2 0 0 0 0];

internalField   nonuniform List<scalar> 
26785
(
-3820.97
-3748.57
-3674.76
-3619.99
-3575.97
-3541.29
-3516.33
-3498.57
-3485.74
-3476.61
-3470.74
-3469.17
-3473.75
-3486.08
-3507.74
-3540.12
-3584.19
-3640.44
-3708.6
-3787.08
-3872.97
-3962.8
-4053.79
-4145.49
-4240.29
-4343.68
-4457.97
-4578.35
-4701.11
-4831.73
-4975.32
-5128.3
-5285.9
-5446.87
-5610.86
-5776.84
-5943.73
-6110.93
-6277.94
-6443.84
-6606.86
-6764.09
-6912.55
-7050.8
-7179.44
-7291.45
-7403.23
-7549.4
-7745.02
-7902.46
-8014.93
-8109.46
-8191.46
-8260.96
-8316.03
-8354.97
-8376.57
-8380.02
-8364.95
-8331.35
-8279.48
-8209.85
-8123.12
-8020.07
-7901.54
-7768.45
-7621.74
-7462.38
-7291.37
-7109.68
-6918.29
-6718.14
-6510.15
-6295.18
-6074.07
-5847.6
-5616.53
-5381.57
-5143.4
-4902.64
-4659.92
-4415.8
-4170.82
-3925.51
-3680.33
-3435.71
-3192.05
-2949.71
-2708.97
-2470.07
-2233.1
-1998.05
-1764.85
-1533.6
-1304.89
-1079.26
-855.824
-633.346
-421.588
-173.845
-3821.23
-3748.66
-3674.79
-3619.99
-3575.94
-3541.25
-3516.3
-3498.56
-3485.73
-3476.59
-3470.7
-3469.09
-3473.64
-3485.93
-3507.55
-3539.9
-3583.94
-3640.19
-3708.36
-3786.88
-3872.83
-3962.68
-4053.64
-4145.23
-4239.84
-4343.16
-4457.53
-4577.85
-4700.4
-4830.97
-4974.65
-5127.65
-5285.24
-5446.22
-5610.22
-5776.19
-5943.07
-6110.23
-6277.2
-6443.08
-6606.11
-6763.36
-6911.75
-7049.7
-7177.95
-7291.45
-7407.44
-7559.77
-7752.43
-7905.05
-8015.68
-8110.09
-8192.33
-8262.03
-8317.26
-8356.33
-8378.03
-8381.54
-8366.51
-8332.93
-8281.07
-8211.43
-8124.69
-8021.61
-7903.05
-7769.92
-7623.16
-7463.76
-7292.69
-7110.94
-6919.49
-6719.28
-6511.22
-6296.18
-6075.01
-5848.48
-5617.35
-5382.33
-5144.09
-4903.28
-4660.5
-4416.33
-4171.31
-3925.95
-3680.72
-3436.07
-3192.37
-2949.99
-2709.23
-2470.3
-2233.31
-1998.24
-1765.03
-1533.76
-1305.03
-1079.38
-855.973
-633.487
-421.445
-173.599
-3821.89
-3748.91
-3674.91
-3620.03
-3575.92
-3541.22
-3516.27
-3498.53
-3485.71
-3476.57
-3470.63
-3468.95
-3473.42
-3485.63
-3507.18
-3539.46
-3583.46
-3639.69
-3707.9
-3786.5
-3872.54
-3962.44
-4053.32
-4144.69
-4238.95
-4342.18
-4456.72
-4576.84
-4698.93
-4829.44
-4973.32
-5126.35
-5283.91
-5444.9
-5608.94
-5774.92
-5941.78
-6108.9
-6275.81
-6441.66
-6604.73
-6762.07
-6910.45
-7048.13
-7176.48
-7293.31
-7414.83
-7571.7
-7761.49
-7909.61
-8017.76
-8111.68
-8194.24
-8264.26
-8319.79
-8359.1
-8380.97
-8384.6
-8369.65
-8336.11
-8284.26
-8214.62
-8127.84
-8024.71
-7906.09
-7772.87
-7626.02
-7466.51
-7295.32
-7113.45
-6921.87
-6721.53
-6513.33
-6298.16
-6076.85
-5850.18
-5618.92
-5383.77
-5145.41
-4904.47
-4661.58
-4417.29
-4172.17
-3926.71
-3681.39
-3436.65
-3192.87
-2950.42
-2709.59
-2470.6
-2233.55
-1998.44
-1765.19
-1533.89
-1305.11
-1079.43
-856.055
-633.529
-420.996
-172.954
-3822.92
-3749.22
-3675.03
-3620.06
-3575.86
-3541.15
-3516.22
-3498.48
-3485.67
-3476.53
-3470.53
-3468.74
-3473.11
-3485.2
-3506.63
-3538.82
-3582.75
-3638.96
-3707.21
-3785.93
-3872.1
-3962.07
-4052.84
-4143.85
-4237.6
-4340.78
-4455.54
-4575.25
-4696.69
-4827.18
-4971.34
-5124.4
-5281.92
-5442.94
-5607.03
-5773.04
-5939.88
-6106.96
-6273.82
-6439.65
-6602.82
-6760.36
-6908.93
-7046.71
-7175.98
-7296.91
-7423.55
-7582.7
-7770.93
-7915.36
-8021.07
-8114.45
-8197.3
-8267.76
-8323.72
-8363.36
-8385.48
-8389.29
-8374.46
-8340.99
-8289.18
-8219.53
-8132.72
-8029.53
-7910.8
-7777.47
-7630.47
-7470.8
-7299.45
-7117.4
-6925.62
-6725.08
-6516.67
-6301.3
-6079.78
-5852.91
-5621.44
-5386.09
-5147.54
-4906.41
-4663.34
-4418.88
-4173.6
-3927.99
-3682.53
-3437.65
-3193.75
-2951.19
-2710.26
-2471.18
-2234.05
-1998.87
-1765.57
-1534.22
-1305.37
-1079.65
-856.321
-633.725
-420.621
-172.566
-3824.37
-3749.74
-3675.25
-3620.15
-3575.81
-3541.07
-3516.16
-3498.44
-3485.64
-3476.48
-3470.4
-3468.48
-3472.7
-3484.63
-3505.92
-3537.98
-3581.81
-3637.98
-3706.3
-3785.17
-3871.51
-3961.56
-4052.17
-4142.7
-4235.79
-4338.97
-4454.01
-4573.06
-4693.66
-4824.22
-4968.72
-5121.8
-5279.26
-5440.34
-5604.52
-5770.58
-5937.42
-6104.46
-6271.27
-6437.11
-6600.42
-6758.31
-6907.33
-7045.65
-7176.55
-7301.84
-7433.07
-7593.71
-7780.91
-7921.98
-8025.42
-8118.41
-8201.63
-8272.68
-8329.17
-8369.25
-8391.69
-8395.75
-8381.1
-8347.74
-8295.98
-8226.34
-8139.49
-8036.21
-7917.36
-7783.87
-7636.68
-7476.79
-7305.2
-7122.89
-6930.84
-6730.01
-6521.32
-6305.64
-6083.82
-5856.65
-5624.89
-5389.25
-5150.41
-4909.01
-4665.67
-4420.96
-4175.43
-3929.59
-3683.91
-3438.84
-3194.76
-2952.03
-2710.95
-2471.73
-2234.48
-1999.2
-1765.82
-1534.38
-1305.45
-1079.67
-856.381
-633.712
-420.06
-171.795
-3825.97
-3750.4
-3675.57
-3620.27
-3575.77
-3540.99
-3516.09
-3498.39
-3485.6
-3476.42
-3470.25
-3468.17
-3472.21
-3483.94
-3505.04
-3536.93
-3580.63
-3636.76
-3705.16
-3784.2
-3870.74
-3960.88
-4051.27
-4141.18
-4233.53
-4336.78
-4452.08
-4570.2
-4689.86
-4820.59
-4965.47
-5118.55
-5275.96
-5437.11
-5601.41
-5767.55
-5934.42
-6101.44
-6268.23
-6434.07
-6597.58
-6755.95
-6905.71
-7044.97
-7178.09
-7307.82
-7443.35
-7605.46
-7791.24
-7929.23
-8030.76
-8123.71
-8207.49
-8279.32
-8336.48
-8377.1
-8399.96
-8404.33
-8389.89
-8356.68
-8305
-8235.37
-8148.46
-8045.07
-7926.06
-7792.35
-7644.92
-7484.74
-7312.83
-7130.18
-6937.77
-6736.57
-6527.49
-6311.42
-6089.2
-5861.64
-5629.48
-5393.45
-5154.24
-4912.47
-4668.77
-4423.73
-4177.87
-3931.73
-3685.78
-3440.45
-3196.13
-2953.19
-2711.92
-2472.53
-2235.13
-1999.72
-1766.23
-1534.69
-1305.66
-1079.81
-856.539
-633.798
-419.691
-171.432
-3827.71
-3751.22
-3675.96
-3620.43
-3575.72
-3540.91
-3516.02
-3498.33
-3485.56
-3476.36
-3470.07
-3467.8
-3471.63
-3483.12
-3503.98
-3535.66
-3579.21
-3635.28
-3703.77
-3783.01
-3869.77
-3959.99
-4050.11
-4139.26
-4230.85
-4334.23
-4449.72
-4566.65
-4685.31
-4816.33
-4961.6
-5114.65
-5272
-5433.26
-5597.72
-5763.98
-5930.91
-6097.95
-6264.72
-6430.6
-6594.34
-6753.28
-6904.05
-7044.61
-7180.45
-7314.75
-7454.59
-7618.25
-7801.8
-7937.23
-8037.29
-8130.72
-8215.37
-8288.24
-8346.24
-8387.53
-8410.89
-8415.61
-8401.42
-8368.35
-8316.71
-8247.04
-8160.02
-8056.44
-7937.18
-7803.18
-7655.4
-7494.84
-7322.51
-7139.41
-6946.53
-6744.84
-6535.25
-6318.67
-6095.94
-5867.87
-5635.21
-5398.68
-5158.98
-4916.74
-4672.59
-4427.11
-4180.85
-3934.32
-3688.01
-3442.35
-3197.73
-2954.52
-2712.99
-2473.38
-2235.79
-2000.21
-1766.57
-1534.9
-1305.74
-1079.81
-856.542
-633.742
-419.216
-170.771
-3829.92
-3752.27
-3676.5
-3620.67
-3575.71
-3540.84
-3515.96
-3498.28
-3485.52
-3476.29
-3469.87
-3467.39
-3470.96
-3482.16
-3502.74
-3534.18
-3577.55
-3633.55
-3702.11
-3781.57
-3868.56
-3958.85
-4048.66
-4136.91
-4227.76
-4331.36
-4446.88
-4562.39
-4680.03
-4811.44
-4957.09
-5110.08
-5267.39
-5428.79
-5593.45
-5759.87
-5926.91
-6094.01
-6260.81
-6426.73
-6590.72
-6750.31
-6902.27
-7044.42
-7183.5
-7322.72
-7467.32
-7632.35
-7812.94
-7946.38
-8045.52
-8140.09
-8226
-8300.2
-8359.21
-8401.27
-8425.18
-8430.28
-8416.31
-8383.33
-8331.66
-8261.85
-8174.59
-8070.69
-7951.04
-7816.6
-7668.34
-7507.26
-7334.38
-7150.71
-6957.23
-6754.92
-6544.71
-6327.5
-6104.14
-5875.43
-5642.15
-5405.02
-5164.72
-4921.92
-4677.22
-4431.22
-4184.47
-3937.48
-3690.74
-3444.69
-3199.71
-2956.17
-2714.35
-2474.48
-2236.65
-2000.87
-1767.06
-1535.24
-1305.94
-1079.9
-856.606
-633.744
-418.862
-170.449
-3832.48
-3753.37
-3677.07
-3620.95
-3575.72
-3540.77
-3515.91
-3498.23
-3485.48
-3476.21
-3469.63
-3466.92
-3470.2
-3481.06
-3501.31
-3532.47
-3575.63
-3631.54
-3700.19
-3779.86
-3867.09
-3957.46
-4046.92
-4134.12
-4224.24
-4328.19
-4443.48
-4557.41
-4674.06
-4805.95
-4951.93
-5104.83
-5262.13
-5423.71
-5588.61
-5755.24
-5922.44
-6089.66
-6256.52
-6422.52
-6586.76
-6747.01
-6900.26
-7044.28
-7187.22
-7332
-7482.2
-7648.19
-7825.33
-7957.18
-8056.04
-8152.56
-8240.17
-8315.91
-8376.03
-8418.88
-8443.32
-8448.76
-8434.95
-8401.97
-8350.15
-8280.06
-8192.4
-8088.01
-7967.81
-7832.75
-7683.84
-7522.08
-7348.51
-7164.11
-6969.9
-6766.85
-6555.89
-6337.92
-6113.8
-5884.35
-5650.33
-5412.48
-5171.48
-4928
-4682.65
-4436.04
-4188.7
-3941.17
-3693.93
-3447.4
-3202
-2958.06
-2715.89
-2475.69
-2237.57
-2001.55
-1767.52
-1535.51
-1306.05
-1079.87
-856.496
-633.626
-418.565
-169.909
-3835.44
-3754.65
-3677.74
-3621.29
-3575.75
-3540.72
-3515.85
-3498.18
-3485.43
-3476.11
-3469.35
-3466.4
-3469.34
-3479.82
-3499.7
-3530.54
-3573.47
-3629.27
-3697.99
-3777.87
-3865.34
-3955.78
-4044.86
-4130.89
-4220.29
-4324.71
-4439.52
-4551.67
-4667.41
-4799.84
-4946.11
-5098.89
-5256.19
-5417.99
-5583.18
-5750.08
-5917.51
-6084.91
-6251.89
-6418
-6582.49
-6743.36
-6897.87
-7043.98
-7191.41
-7343.18
-7499.59
-7666.32
-7839.45
-7969.95
-8069.53
-8168.8
-8258.45
-8335.77
-8396.94
-8440.51
-8465.41
-8471.11
-8457.38
-8424.29
-8372.2
-8301.69
-8213.48
-8108.44
-7987.51
-7851.68
-7701.97
-7539.38
-7364.96
-7179.71
-6984.64
-6780.71
-6568.87
-6350.02
-6125.02
-5894.7
-5659.83
-5421.13
-5179.32
-4935.05
-4688.95
-4441.62
-4193.61
-3945.44
-3697.61
-3450.54
-3204.64
-2960.25
-2717.66
-2477.08
-2238.64
-2002.33
-1768.05
-1535.83
-1306.18
-1079.85
-856.394
-633.647
-418.711
-169.609
-3838.48
-3756.06
-3678.52
-3621.69
-3575.81
-3540.67
-3515.8
-3498.13
-3485.38
-3475.98
-3469.04
-3465.82
-3468.4
-3478.44
-3497.9
-3528.4
-3571.06
-3626.73
-3695.5
-3775.59
-3863.3
-3953.8
-4042.48
-4127.25
-4215.9
-4320.9
-4434.98
-4545.17
-4660.1
-4793.09
-4939.59
-5092.23
-5249.57
-5411.63
-5577.16
-5744.4
-5912.12
-6079.77
-6246.95
-6413.22
-6577.97
-6739.36
-6894.81
-7043.23
-7196.59
-7356.79
-7519.06
-7686.67
-7855.29
-7984.9
-8086.75
-8189.37
-8281.12
-8359.85
-8421.89
-8466.04
-8491.3
-8497.17
-8483.43
-8450.16
-8397.7
-8326.66
-8237.78
-8131.97
-8010.2
-7873.46
-7722.81
-7559.26
-7383.86
-7197.62
-7001.55
-6796.61
-6583.76
-6363.89
-6137.88
-5906.56
-5670.69
-5431.03
-5188.28
-4943.1
-4696.13
-4447.97
-4199.17
-3950.28
-3701.77
-3454.09
-3207.62
-2962.71
-2719.65
-2478.66
-2239.84
-2003.21
-1768.64
-1536.17
-1306.33
-1079.82
-856.241
-633.638
-418.914
-169.181
-3841.5
-3757.52
-3679.33
-3622.11
-3575.87
-3540.63
-3515.75
-3498.06
-3485.31
-3475.84
-3468.69
-3465.18
-3467.35
-3476.92
-3495.93
-3526.05
-3568.43
-3623.93
-3692.74
-3773.01
-3860.97
-3951.52
-4039.78
-4123.24
-4211.07
-4316.73
-4429.85
-4537.92
-4652.14
-4785.7
-4932.35
-5084.85
-5242.26
-5404.62
-5570.53
-5738.16
-5906.26
-6074.26
-6241.71
-6408.22
-6573.27
-6735.05
-6891.56
-7043.26
-7202.99
-7371.09
-7540.05
-7708.42
-7872.9
-8002.68
-8108.59
-8214.64
-8308.22
-8388.04
-8450.75
-8495.33
-8520.85
-8526.82
-8513.01
-8479.5
-8426.62
-8354.97
-8265.35
-8158.68
-8035.95
-7898.21
-7746.49
-7581.85
-7405.34
-7217.96
-7020.74
-6814.64
-6600.62
-6379.58
-6152.41
-5919.93
-5682.93
-5442.17
-5198.34
-4952.13
-4704.18
-4455.09
-4205.42
-3955.72
-3706.47
-3458.1
-3211.01
-2965.54
-2721.98
-2480.53
-2241.32
-2004.34
-1769.47
-1536.75
-1306.68
-1079.98
-856.261
-633.713
-419.036
-168.874
-3844.79
-3759.11
-3680.22
-3622.56
-3575.95
-3540.59
-3515.68
-3497.97
-3485.21
-3475.66
-3468.29
-3464.49
-3466.22
-3475.27
-3493.81
-3523.53
-3565.58
-3620.89
-3689.7
-3770.14
-3858.32
-3948.92
-4036.76
-4118.88
-4205.81
-4312.18
-4424.11
-4529.94
-4643.53
-4777.62
-4924.34
-5076.69
-5234.21
-5396.92
-5563.28
-5731.37
-5899.93
-6068.36
-6236.19
-6403.04
-6568.46
-6731.02
-6888.89
-7044.35
-7210.16
-7386.45
-7562.63
-7731.01
-7893.09
-8024.48
-8135.73
-8244.67
-8339.63
-8420.22
-8483.41
-8528.32
-8554.04
-8560.09
-8546.2
-8512.41
-8459.06
-8386.74
-8296.3
-8188.67
-8064.88
-7926
-7773.08
-7607.2
-7429.4
-7240.72
-7042.17
-6834.73
-6619.37
-6397.01
-6168.51
-5934.73
-5696.47
-5454.47
-5209.45
-4962.11
-4713.07
-4462.96
-4212.35
-3961.77
-3711.71
-3462.62
-3214.86
-2968.8
-2724.7
-2482.78
-2243.14
-2005.78
-1770.6
-1537.59
-1307.29
-1080.36
-856.469
-633.844
-418.952
-168.505
-3848.29
-3760.7
-3681.12
-3623.04
-3576.03
-3540.54
-3515.6
-3497.85
-3485.09
-3475.45
-3467.87
-3463.77
-3465.02
-3473.52
-3491.55
-3520.85
-3562.54
-3617.61
-3686.39
-3766.96
-3855.37
-3946
-4033.43
-4114.22
-4200.14
-4307.21
-4417.73
-4521.21
-4634.27
-4768.83
-4915.54
-5067.74
-5225.42
-5388.52
-5555.38
-5724
-5893.1
-6062.08
-6230.42
-6397.74
-6563.65
-6727.42
-6887.32
-7047.25
-7219.23
-7404.09
-7586.36
-7755.16
-7917.05
-8051.56
-8168.2
-8279.23
-8375.2
-8456.33
-8519.92
-8565.12
-8591.05
-8597.17
-8583.17
-8549.05
-8495.13
-8422.05
-8330.65
-8221.92
-8096.92
-7956.74
-7802.46
-7635.15
-7455.88
-7265.71
-7065.64
-6856.7
-6639.83
-6415.98
-6186.02
-5950.82
-5711.16
-5467.83
-5221.53
-4972.96
-4722.77
-4471.58
-4219.96
-3968.46
-3717.55
-3467.68
-3219.23
-2972.54
-2727.87
-2485.44
-2245.35
-2007.6
-1772.06
-1538.76
-1308.18
-1081.01
-856.904
-634.093
-418.81
-168.207
-3852.06
-3762.36
-3682.05
-3623.51
-3576.09
-3540.47
-3515.48
-3497.71
-3484.94
-3475.21
-3467.42
-3463.01
-3463.77
-3471.69
-3489.19
-3518.02
-3559.33
-3614.11
-3682.82
-3763.5
-3852.1
-3942.77
-4029.8
-4109.29
-4194.11
-4301.79
-4410.69
-4511.73
-4624.33
-4759.28
-4905.89
-5057.95
-5215.84
-5379.39
-5546.81
-5716.02
-5885.77
-6055.42
-6224.39
-6392.35
-6559.16
-6724.6
-6887.34
-7052.42
-7231.29
-7423.82
-7611.18
-7782.21
-7945.66
-8084.29
-8205.48
-8318.02
-8414.83
-8496.45
-8560.43
-8605.95
-8632.09
-8638.25
-8624.06
-8589.47
-8534.83
-8460.77
-8368.22
-8258.2
-8131.81
-7990.14
-7834.3
-7665.38
-7484.46
-7292.61
-7090.88
-6880.27
-6661.77
-6436.31
-6204.79
-5968.06
-5726.93
-5482.17
-5234.52
-4984.66
-4733.26
-4480.93
-4228.26
-3975.78
-3723.98
-3473.29
-3224.11
-2976.75
-2731.48
-2488.5
-2247.93
-2009.74
-1773.83
-1540.2
-1309.31
-1081.86
-857.506
-634.419
-418.646
-167.905
-3855.79
-3764.1
-3683.03
-3623.98
-3576.14
-3540.37
-3515.34
-3497.53
-3484.76
-3474.96
-3466.97
-3462.23
-3462.48
-3469.79
-3486.73
-3515.08
-3555.94
-3610.4
-3678.99
-3759.74
-3848.52
-3939.2
-4025.86
-4104.12
-4187.75
-4295.88
-4402.94
-4501.49
-4613.72
-4748.96
-4895.38
-5047.3
-5205.43
-5369.48
-5537.53
-5707.43
-5877.93
-6048.37
-6218.12
-6386.92
-6555.13
-6722.9
-6889.38
-7060.26
-7246.42
-7445.28
-7637.59
-7812.87
-7979.11
-8122.06
-8246.98
-8360.84
-8458.53
-8540.71
-8605.13
-8650.99
-8677.31
-8683.39
-8668.82
-8633.52
-8577.87
-8502.58
-8408.62
-8297.09
-8169.09
-8025.76
-7868.19
-7697.5
-7514.79
-7321.14
-7117.62
-6905.25
-6685.02
-6457.87
-6224.7
-5986.38
-5743.71
-5497.47
-5248.4
-4997.2
-4744.53
-4491.01
-4237.23
-3983.73
-3730.99
-3479.45
-3229.48
-2981.41
-2735.5
-2491.94
-2250.85
-2012.2
-1775.88
-1541.88
-1310.66
-1082.89
-858.256
-634.825
-418.515
-167.649
-3859.34
-3765.77
-3683.97
-3624.42
-3576.15
-3540.25
-3515.16
-3497.32
-3484.55
-3474.69
-3466.52
-3461.46
-3461.17
-3467.85
-3484.2
-3512.03
-3552.42
-3606.49
-3674.92
-3755.69
-3844.62
-3935.3
-4021.62
-4098.72
-4181.16
-4289.46
-4394.45
-4490.49
-4602.41
-4737.83
-4883.97
-5035.76
-5194.17
-5358.77
-5527.52
-5698.18
-5869.54
-6040.91
-6211.64
-6381.64
-6551.7
-6722.5
-6893.53
-7070.93
-7264.27
-7468.56
-7666.18
-7847.08
-8016.96
-8164.06
-8292.27
-8407.57
-8506.32
-8589.17
-8654.11
-8700.29
-8726.65
-8732.43
-8717.16
-8680.8
-8623.79
-8546.96
-8451.35
-8338.1
-8208.34
-8063.2
-7903.79
-7731.23
-7546.63
-7351.11
-7145.73
-6931.54
-6709.52
-6480.62
-6245.76
-6005.78
-5761.51
-5513.73
-5263.18
-5010.58
-4756.58
-4501.82
-4246.88
-3992.3
-3738.57
-3486.12
-3235.33
-2986.5
-2739.91
-2495.73
-2254.07
-2014.93
-1778.17
-1543.78
-1312.19
-1084.08
-859.125
-635.293
-418.407
-167.413
-3863.04
-3767.5
-3684.9
-3624.83
-3576.14
-3540.09
-3514.95
-3497.07
-3484.32
-3474.42
-3466.1
-3460.7
-3459.86
-3465.88
-3481.62
-3508.89
-3548.76
-3602.41
-3670.62
-3751.35
-3840.4
-3931.07
-4017.1
-4093.07
-4174.43
-4282.49
-4385.17
-4478.73
-4590.4
-4725.86
-4871.62
-5023.3
-5182.02
-5347.21
-5516.73
-5688.26
-5860.59
-6033.05
-6204.93
-6376.58
-6549.13
-6723.55
-6899.83
-7084.37
-7284.63
-7494.01
-7697.31
-7884.54
-8058.57
-8209.66
-8341.08
-8458.08
-8558.09
-8641.74
-8707.22
-8753.6
-8779.78
-8784.91
-8768.55
-8730.74
-8672.04
-8593.4
-8495.95
-8380.85
-8249.23
-8102.2
-7940.88
-7766.4
-7579.88
-7382.45
-7175.19
-6959.13
-6735.28
-6504.6
-6267.97
-6026.29
-5780.36
-5530.97
-5278.89
-5024.82
-4769.43
-4513.36
-4257.19
-4001.48
-3746.7
-3493.3
-3241.62
-2992
-2744.67
-2499.83
-2257.59
-2017.91
-1780.69
-1545.87
-1313.89
-1085.42
-860.1
-635.823
-418.329
-167.214
-3866.84
-3769.15
-3685.81
-3625.2
-3576.08
-3539.91
-3514.71
-3496.8
-3484.08
-3474.16
-3465.7
-3459.98
-3458.57
-3463.9
-3479.01
-3505.69
-3544.99
-3598.15
-3666.1
-3746.73
-3835.88
-3926.52
-4012.3
-4087.15
-4167.67
-4274.92
-4375.1
-4466.23
-4577.68
-4713.03
-4858.32
-5009.88
-5168.94
-5334.78
-5505.15
-5677.62
-5851.06
-6024.78
-6198.18
-6371.86
-6547.37
-6725.99
-6908.39
-7100.43
-7307.39
-7521.93
-7731.17
-7924.96
-8103.39
-8258.45
-8393.15
-8512.11
-8613.56
-8698.08
-8764.05
-8810.46
-8836.14
-8840.25
-8822.4
-8782.78
-8722.13
-8641.52
-8542.13
-8425.13
-8291.61
-8142.67
-7979.43
-7803.01
-7614.56
-7415.21
-7206.03
-6988.09
-6762.37
-6529.84
-6291.41
-6047.95
-5800.29
-5549.24
-5295.54
-5039.93
-4783.08
-4525.64
-4268.18
-4011.27
-3755.39
-3500.96
-3248.35
-2997.88
-2749.78
-2504.24
-2261.36
-2021.12
-1783.4
-1548.14
-1315.74
-1086.86
-861.163
-636.408
-418.286
-167.044
-3870.81
-3770.79
-3686.67
-3625.51
-3575.98
-3539.69
-3514.44
-3496.5
-3483.83
-3473.92
-3465.34
-3459.29
-3457.3
-3461.93
-3476.37
-3502.44
-3541.13
-3593.74
-3661.36
-3741.84
-3831.06
-3921.64
-4007.25
-4080.92
-4160.98
-4266.66
-4364.23
-4453.01
-4564.26
-4699.31
-4844.05
-4995.49
-5154.91
-5321.44
-5492.73
-5666.24
-5840.92
-6016.06
-6191.37
-6367.66
-6546.54
-6729.77
-6919.12
-7118.87
-7332.43
-7552.42
-7767.8
-7968.08
-8151.04
-8310.09
-8448.17
-8569.27
-8672.27
-8757.7
-8824.03
-8870.22
-8895.08
-8897.8
-8878.13
-8836.47
-8773.73
-8691.1
-8589.77
-8470.87
-8335.47
-8184.63
-8019.48
-7841.14
-7650.76
-7449.47
-7238.36
-7018.49
-6790.85
-6556.42
-6316.11
-6070.8
-5821.34
-5568.54
-5313.16
-5055.94
-4797.55
-4538.65
-4279.84
-4021.66
-3764.61
-3509.1
-3255.51
-3004.13
-2755.21
-2508.93
-2265.38
-2024.55
-1786.3
-1550.56
-1317.71
-1088.41
-862.294
-637.043
-418.293
-166.904
-3874.67
-3772.42
-3687.52
-3625.77
-3575.83
-3539.43
-3514.15
-3496.19
-3483.57
-3473.71
-3465.03
-3458.64
-3456.06
-3459.97
-3473.73
-3499.15
-3537.18
-3589.19
-3656.42
-3736.69
-3825.94
-3916.46
-4001.94
-4074.37
-4154.42
-4257.63
-4352.58
-4439.12
-4550.14
-4684.69
-4828.77
-4980.09
-5139.88
-5307.15
-5479.44
-5654.09
-5830.14
-6007.06
-6184.58
-6363.79
-6546.52
-6735.09
-6931.91
-7139.4
-7359.57
-7585.41
-7807.11
-8013.71
-8201.22
-8364.27
-8505.74
-8629.11
-8733.71
-8819.99
-8886.54
-8932.26
-8955.99
-8957.03
-8935.35
-8891.54
-8826.71
-8742.1
-8638.88
-8518.14
-8380.9
-8228.2
-8061.15
-7880.89
-7688.58
-7485.33
-7272.26
-7050.41
-6820.79
-6584.39
-6342.13
-6094.9
-5843.55
-5588.92
-5331.77
-5072.85
-4812.84
-4552.42
-4292.17
-4032.66
-3774.36
-3517.71
-3263.07
-3010.73
-2760.94
-2513.87
-2269.62
-2028.15
-1789.34
-1553.09
-1319.77
-1090.03
-863.47
-637.718
-418.367
-166.79
-3878.22
-3773.91
-3688.28
-3625.96
-3575.63
-3539.15
-3513.82
-3495.85
-3483.32
-3473.52
-3464.78
-3458.06
-3454.87
-3458.04
-3471.1
-3495.83
-3533.16
-3584.51
-3651.28
-3731.27
-3820.54
-3910.98
-3996.42
-4067.5
-4148.02
-4247.82
-4340.1
-4424.58
-4535.29
-4669.15
-4812.48
-4963.67
-5123.83
-5291.89
-5465.25
-5641.12
-5818.74
-5997.72
-6177.87
-6360.34
-6547.32
-6741.98
-6946.5
-7161.74
-7388.63
-7620.74
-7849
-8061.68
-8253.65
-8420.65
-8565.48
-8691.15
-8797.34
-8884.38
-8950.98
-8996.01
-9018.38
-9017.59
-8993.82
-8947.9
-8881.07
-8794.59
-8689.59
-8567.08
-8428.03
-8273.5
-8104.57
-7922.4
-7728.13
-7522.89
-7307.8
-7083.92
-6852.26
-6613.81
-6369.51
-6120.27
-5866.95
-5610.4
-5351.39
-5090.68
-4828.97
-4566.94
-4305.17
-4044.24
-3784.63
-3526.77
-3271.02
-3017.67
-2766.95
-2519.05
-2274.05
-2031.92
-1792.51
-1555.73
-1321.91
-1091.69
-864.675
-638.427
-418.517
-166.699
-3881.83
-3775.34
-3688.97
-3626.08
-3575.39
-3538.83
-3513.48
-3495.5
-3483.08
-3473.37
-3464.58
-3457.54
-3453.75
-3456.16
-3468.49
-3492.51
-3529.08
-3579.71
-3645.96
-3725.6
-3814.86
-3905.21
-3990.67
-4060.29
-4141.7
-4237.34
-4326.76
-4409.38
-4519.7
-4652.66
-4795.16
-4946.21
-5106.73
-5275.61
-5450.11
-5627.29
-5806.79
-5988.05
-6171.05
-6357.23
-6549.13
-6750.36
-6962.64
-7185.63
-7419.41
-7658.24
-7893.29
-8111.85
-8308.1
-8478.92
-8627.01
-8754.97
-8862.69
-8950.41
-9016.89
-9061.06
-9081.96
-9079.28
-9053.48
-9005.59
-8936.92
-8848.72
-8742.03
-8617.81
-8477.01
-8320.66
-8149.86
-7965.76
-7769.5
-7562.23
-7345.07
-7119.08
-6885.3
-6644.72
-6398.3
-6146.96
-5891.58
-5633
-5372.04
-5109.45
-4845.95
-4582.21
-4318.85
-4056.42
-3795.42
-3536.27
-3279.34
-3024.92
-2773.23
-2524.45
-2278.65
-2035.82
-1795.79
-1558.45
-1324.11
-1093.4
-865.898
-639.167
-418.744
-166.628
-3885.44
-3776.64
-3689.58
-3626.12
-3575.1
-3538.5
-3513.12
-3495.15
-3482.85
-3473.27
-3464.46
-3457.09
-3452.69
-3454.33
-3465.92
-3489.19
-3524.96
-3574.79
-3640.46
-3719.67
-3808.91
-3899.15
-3984.72
-4052.77
-4135.37
-4226.23
-4312.58
-4393.5
-4503.32
-4635.2
-4776.79
-4927.67
-5088.54
-5258.29
-5433.99
-5612.67
-5794.19
-5978.03
-6164.21
-6354.51
-6551.97
-6760.1
-6980.09
-7210.86
-7451.78
-7697.75
-7939.83
-8164.03
-8364.33
-8538.81
-8690.03
-8820.21
-8929.39
-9017.7
-9083.97
-9127.18
-9146.58
-9142.09
-9114.41
-9064.74
-8994.42
-8904.63
-8796.35
-8670.48
-8527.96
-8369.8
-8197.12
-8011.06
-7812.78
-7603.43
-7384.14
-7155.97
-6919.99
-6677.19
-6428.56
-6175.02
-5917.47
-5656.78
-5393.76
-5129.19
-4863.79
-4598.26
-4333.2
-4069.18
-3806.71
-3546.2
-3288.03
-3032.47
-2779.75
-2530.04
-2283.42
-2039.85
-1799.17
-1561.23
-1326.35
-1095.14
-867.143
-639.938
-419.035
-166.575
-3889.12
-3777.81
-3690.1
-3626.09
-3574.77
-3538.15
-3512.76
-3494.81
-3482.65
-3473.23
-3464.4
-3456.72
-3451.7
-3452.55
-3463.38
-3485.88
-3520.8
-3569.78
-3634.79
-3713.51
-3802.69
-3892.82
-3978.56
-4044.95
-4128.91
-4214.45
-4297.64
-4376.91
-4486.1
-4616.73
-4757.36
-4908.04
-5069.25
-5239.9
-5416.87
-5597.24
-5780.92
-5967.48
-6157.32
-6352.34
-6555.83
-6771
-6998.66
-7237.23
-7485.61
-7739.13
-7988.38
-8218.01
-8422.11
-8600.07
-8754.28
-8886.61
-8997.19
-9086.02
-9152.02
-9194.27
-9212.23
-9206.08
-9176.75
-9125.52
-9053.73
-8962.48
-8852.68
-8725.2
-8580.98
-8421.02
-8246.45
-8058.41
-7858.07
-7646.58
-7425.08
-7194.66
-6956.39
-6711.29
-6460.34
-6204.5
-5944.68
-5681.76
-5416.57
-5149.91
-4882.51
-4615.07
-4348.22
-4082.53
-3818.5
-3556.56
-3297.06
-3040.3
-2786.5
-2535.82
-2288.33
-2043.99
-1802.63
-1564.09
-1328.65
-1096.92
-868.416
-640.743
-419.373
-166.538
-3892.62
-3778.91
-3690.55
-3625.99
-3574.39
-3537.79
-3512.4
-3494.47
-3482.48
-3473.24
-3464.42
-3456.42
-3450.78
-3450.84
-3460.91
-3482.6
-3516.62
-3564.68
-3628.95
-3707.1
-3796.2
-3886.23
-3972.21
-4036.88
-4122.17
-4201.94
-4281.94
-4359.6
-4467.97
-4597.22
-4736.85
-4887.3
-5048.81
-5220.42
-5398.78
-5580.86
-5766.91
-5956.52
-6150.4
-6350.72
-6560.59
-6782.89
-7018.18
-7264.63
-7520.81
-7782.21
-8038.69
-8273.54
-8481.22
-8662.49
-8819.55
-8953.98
-9065.91
-9155.23
-9220.97
-9262.33
-9279
-9271.42
-9240.66
-9188.09
-9114.99
-9022.38
-8911.13
-8782.09
-8636.18
-8474.43
-8297.95
-8107.9
-7905.45
-7691.76
-7467.99
-7235.24
-6994.59
-6747.08
-6493.71
-6235.45
-5973.24
-5707.98
-5440.5
-5171.63
-4902.12
-4632.67
-4363.92
-4096.45
-3830.77
-3567.32
-3306.44
-3048.42
-2793.49
-2541.79
-2293.4
-2048.26
-1806.19
-1567.02
-1331.02
-1098.75
-869.731
-641.584
-419.74
-166.517
-3895.69
-3779.79
-3690.9
-3625.81
-3573.99
-3537.42
-3512.04
-3494.14
-3482.34
-3473.3
-3464.5
-3456.2
-3449.93
-3449.2
-3458.5
-3479.36
-3512.42
-3559.48
-3622.95
-3700.46
-3789.46
-3879.37
-3965.67
-4028.59
-4115.08
-4188.71
-4265.43
-4341.54
-4448.9
-4576.63
-4715.22
-4865.4
-5027.2
-5199.8
-5379.72
-5563.49
-5751.98
-5945.16
-6143.62
-6349.62
-6566.08
-6795.58
-7038.51
-7292.96
-7557.28
-7826.81
-8090.45
-8330.35
-8541.43
-8725.89
-8885.71
-9022.18
-9135.46
-9225.31
-9290.84
-9331.44
-9347.02
-9338.24
-9306.31
-9252.6
-9178.32
-9084.45
-8971.82
-8841.26
-8693.69
-8530.14
-8351.74
-8159.64
-7955.03
-7739.09
-7512.97
-7277.79
-7034.66
-6784.62
-6528.72
-6267.92
-6003.2
-5735.46
-5465.57
-5194.37
-4922.62
-4651.05
-4380.29
-4110.95
-3843.54
-3578.49
-3316.15
-3056.82
-2800.7
-2547.94
-2298.61
-2052.65
-1809.85
-1570.04
-1333.45
-1100.64
-871.099
-642.465
-420.123
-166.515
-3898.71
-3780.52
-3691.14
-3625.55
-3573.54
-3537.04
-3511.67
-3493.81
-3482.23
-3473.42
-3464.66
-3456.05
-3449.17
-3447.65
-3456.17
-3476.16
-3508.21
-3554.2
-3616.79
-3693.59
-3782.46
-3872.28
-3958.96
-4020.14
-4107.62
-4174.74
-4248.03
-4322.7
-4428.83
-4554.92
-4692.43
-4842.31
-5004.39
-5178.11
-5359.47
-5545.05
-5736.29
-5933.35
-6136.89
-6348.92
-6572.15
-6808.92
-7059.53
-7322.16
-7594.89
-7872.68
-8143.34
-8388.16
-8602.57
-8790.13
-8952.66
-9091.18
-9205.81
-9296.25
-9361.71
-9401.74
-9416.46
-9406.73
-9373.85
-9319.17
-9243.85
-9148.81
-9034.86
-8902.81
-8753.61
-8588.27
-8407.93
-8213.75
-8006.93
-7788.65
-7560.09
-7322.39
-7076.67
-6823.99
-6565.42
-6301.95
-6034.58
-5764.23
-5491.8
-5218.13
-4944.02
-4670.2
-4397.34
-4126.03
-3856.79
-3590.06
-3326.2
-3065.5
-2808.14
-2554.29
-2303.98
-2057.17
-1813.62
-1573.15
-1335.96
-1102.6
-872.529
-643.386
-420.513
-166.534
-3901.62
-3781.05
-3691.27
-3625.22
-3573.07
-3536.66
-3511.31
-3493.5
-3482.15
-3473.59
-3464.88
-3455.99
-3448.49
-3446.19
-3453.93
-3473.02
-3504
-3548.84
-3610.48
-3686.48
-3775.19
-3864.95
-3952.09
-4011.6
-4099.74
-4159.97
-4229.72
-4303.06
-4407.71
-4532.05
-4668.45
-4818
-4980.36
-5155.31
-5337.96
-5525.33
-5719.83
-5921.22
-6130.14
-6348.47
-6578.63
-6822.79
-7081.18
-7352.14
-7633.49
-7919.53
-8197.02
-8446.68
-8664.44
-8855.1
-9020.34
-9160.93
-9276.99
-9368.14
-9433.69
-9473.34
-9487.45
-9477.03
-9443.4
-9387.92
-9311.69
-9215.58
-9100.37
-8966.9
-8816.08
-8648.95
-8466.65
-8270.34
-8061.24
-7840.55
-7609.45
-7369.11
-7120.67
-6865.22
-6603.84
-6337.57
-6067.4
-5794.3
-5519.18
-5242.92
-4966.32
-4690.14
-4415.06
-4141.68
-3870.52
-3602.04
-3336.59
-3074.44
-2815.81
-2560.81
-2309.51
-2061.81
-1817.5
-1576.35
-1338.55
-1104.63
-874.025
-644.347
-420.902
-166.577
-3904.49
-3781.38
-3691.28
-3624.82
-3572.57
-3536.29
-3510.97
-3493.2
-3482.12
-3473.83
-3465.18
-3456
-3447.91
-3444.83
-3451.79
-3469.95
-3499.79
-3543.41
-3604.01
-3679.15
-3767.66
-3857.39
-3945.07
-4003.04
-4091.38
-4144.37
-4210.52
-4282.61
-4385.48
-4507.94
-4643.22
-4792.43
-4955.14
-5131.17
-5315.09
-5504.56
-5702.53
-5908.63
-6123.27
-6348.11
-6585.38
-6837.05
-7103.39
-7382.84
-7672.9
-7967.07
-8251.14
-8505.66
-8726.89
-8920.72
-9088.71
-9231.45
-9349.03
-9441.04
-9506.88
-9546.4
-9560.16
-9549.26
-9515.1
-9458.98
-9381.96
-9284.88
-9168.5
-9033.64
-8881.23
-8712.31
-8528.01
-8329.52
-8118.06
-7894.85
-7661.11
-7418.01
-7166.71
-6908.35
-6644.02
-6374.78
-6101.67
-5825.67
-5547.73
-5268.74
-4989.53
-4710.86
-4433.44
-4157.89
-3884.73
-3614.41
-3347.3
-3083.66
-2823.7
-2567.52
-2315.18
-2066.58
-1821.48
-1579.64
-1341.23
-1106.73
-875.586
-645.346
-421.287
-166.647
-3907.03
-3781.57
-3691.21
-3624.35
-3572.06
-3535.93
-3510.64
-3492.93
-3482.13
-3474.13
-3465.54
-3456.09
-3447.4
-3443.56
-3449.74
-3466.94
-3495.59
-3537.92
-3597.41
-3671.59
-3759.87
-3849.61
-3937.9
-3994.59
-4082.39
-4127.96
-4190.56
-4261.29
-4362.07
-4482.56
-4616.68
-4765.53
-4928.62
-5105.53
-5290.7
-5482.72
-5684.47
-5895.5
-6116.11
-6347.71
-6592.26
-6851.61
-7126.06
-7414.12
-7712.89
-8014.99
-8305.43
-8564.86
-8789.79
-8986.91
-9157.78
-9302.78
-9422.02
-9515.08
-9581.41
-9621.05
-9634.69
-9623.56
-9589.06
-9532.47
-9454.79
-9356.84
-9239.37
-9103.17
-8949.19
-8778.46
-8592.11
-8391.37
-8177.46
-7951.63
-7715.1
-7469.11
-7214.82
-6953.39
-6685.96
-6413.61
-6137.4
-5858.36
-5577.45
-5295.59
-5013.63
-4732.36
-4452.49
-4174.66
-3899.41
-3627.18
-3358.33
-3093.14
-2831.8
-2574.4
-2320.99
-2071.46
-1825.56
-1583.02
-1343.97
-1108.9
-877.207
-646.378
-421.667
-166.748
-3908.99
-3781.51
-3691.04
-3623.82
-3571.54
-3535.59
-3510.32
-3492.69
-3482.19
-3474.49
-3465.97
-3456.25
-3446.98
-3442.39
-3447.81
-3464
-3491.41
-3532.37
-3590.66
-3663.81
-3751.81
-3841.6
-3930.58
-3986.43
-4072.54
-4110.81
-4169.9
-4239.04
-4337.39
-4455.81
-4588.78
-4737.37
-4900.57
-5078.19
-5265.01
-5459.72
-5665.5
-5881.72
-6108.56
-6347.12
-6599.13
-6866.37
-7149.11
-7445.85
-7753.24
-8063.03
-8359.62
-8624.09
-8853.01
-9053.64
-9227.54
-9374.96
-9496.04
-9590.34
-9657.41
-9697.41
-9711.18
-9700.03
-9665.39
-9608.5
-9530.31
-9431.61
-9313.12
-9175.63
-9020.07
-8847.49
-8659.04
-8455.95
-8239.48
-8010.9
-7771.47
-7522.43
-7265
-7000.36
-6729.67
-6454.06
-6174.61
-5892.37
-5608.34
-5323.47
-5038.63
-4754.63
-4472.21
-4191.99
-3914.55
-3640.32
-3369.67
-3102.87
-2840.09
-2581.44
-2326.93
-2076.45
-1829.72
-1586.46
-1346.78
-1111.13
-878.876
-647.435
-422.045
-166.883
-3910.73
-3781.26
-3690.75
-3623.23
-3571
-3535.27
-3510.03
-3492.46
-3482.3
-3474.9
-3466.45
-3456.48
-3446.64
-3441.33
-3445.99
-3461.16
-3487.25
-3526.77
-3583.78
-3655.82
-3743.48
-3833.36
-3923.12
-3978.81
-4061.59
-4093.05
-4148.62
-4215.77
-4311.37
-4427.65
-4559.42
-4707.68
-4870.8
-5049.24
-5238.05
-5435.6
-5645.52
-5867.17
-6100.46
-6346.2
-6605.88
-6881.2
-7172.38
-7477.85
-7793.71
-8110.93
-8413.52
-8683.18
-8916.49
-9120.9
-9298.04
-9448.04
-9571.16
-9666.94
-9734.99
-9775.59
-9789.73
-9778.8
-9744.23
-9687.21
-9608.66
-9509.32
-9389.88
-9251.12
-9093.97
-8919.49
-8728.86
-8523.32
-8304.17
-8072.71
-7830.23
-7578
-7317.28
-7049.27
-6775.17
-6496.13
-6213.29