/*--------------------------------*- C++ -*----------------------------------*\
| =========                 |                                                 |
| \\      /  F ield         | OpenFOAM: The Open Source CFD Toolbox           |
|  \\    /   O peration     | Version:  4.1                                   |
|   \\  /    A nd           | Web:      www.OpenFOAM.org                      |
|    \\/     M anipulation  |                                                 |
\*---------------------------------------------------------------------------*/
FoamFile
{
    version     2.0;
    format      ascii;
    class       surfaceScalarField;
    location    "1800";
    object      phi;
}
// * * * * * * * * * * * * * * * * * * * * * * * * * * * * * * * * * * * * * //

dimensions      [0 3 -1 0 0 0 0];

internalField   nonuniform List<scalar> 
52920
(
7141.55
-12.1978
7052
89.5618
6920.07
131.937
6780.55
139.532
6657.03
123.548
6558.64
98.4064
6486.04
72.6153
6437.47
48.5879
6409.69
27.8015
6401.23
8.4774
6417.49
-16.2434
6466.83
-49.3178
6554.24
-87.3886
6683.55
-129.289
6857.78
-174.211
7078.81
-221.013
7347.1
-268.281
7659.52
-312.399
8005.82
-346.286
8367.73
-361.887
8721.67
-353.934
9044.92
-323.228
9323.09
-278.166
9552.66
-229.549
9740.88
-188.216
9881.32
-140.426
9952.36
-71.0255
9947.99
4.37474
9890.54
57.4586
9802.55
88.0085
9694.48
108.072
9578.83
115.667
9467.92
110.924
9364.82
103.115
9264.84
99.9986
9162.02
102.836
9053.13
108.9
8937.18
115.973
8811.06
126.134
8663.18
147.897
8469.8
193.393
8212.94
256.887
7923.28
289.676
7731.87
191.43
7817.56
-85.6751
7456.37
361.238
4799.68
2656.76
763.866
4035.82
-1776.57
2540.47
-2664.06
887.499
-3149.01
484.982
-3659.57
510.567
-4249.13
589.586
-4897.83
648.704
-5579.23
681.423
-6272.23
692.999
-6958.69
686.477
-7627.2
668.503
-8271.56
644.372
-8889.7
618.145
-9482.27
592.577
-10051.2
568.912
-10598.4
547.246
-11125.4
526.989
-11632.8
507.412
-12120.8
488.006
-12589.4
468.615
-13038.8
449.363
-13469.3
430.522
-13881.7
412.372
-14276.8
395.126
-14655.7
378.89
-15019.4
363.665
-15368.8
349.364
-15704.6
335.846
-16027.5
322.939
-16338
310.471
-16636.3
298.276
-16922.5
286.206
-17196.6
274.142
-17458.6
262.015
-17708.5
249.823
-17946.1
237.661
-18171.9
225.726
-18386.2
214.322
-18590
203.836
-18784.7
194.679
-18971.9
187.218
-19153.6
181.678
-19331.7
178.085
-19508
176.288
-19684
176.052
-19861.1
177.117
-20040.3
179.194
-20222.4
182.036
-20407.8
185.429
-20594.4
186.581
-20774.5
180.156
-20936.2
161.687
177.997
7308.47
-12.5036
7204.96
193.077
7056.91
280.001
6900.98
295.478
6761.53
263.023
6647.87
212.084
6560.62
159.88
6497.95
111.277
6456.74
69.0262
6435.33
29.9182
6438.66
-19.5595
6475.29
-85.9224
6550.59
-162.665
6668.72
-247.404
6832.93
-338.397
7045.35
-433.424
7307.51
-530.421
7618.63
-623.502
7971.24
-698.876
8347.94
-738.572
8723.16
-729.139
9070.5
-670.558
9372.45
-580.101
9623.7
-480.791
9828.88
-393.379
9976.38
-287.913
10043
-137.624
10029.8
17.5974
9965.19
122.045
9871.14
182.076
9757.49
221.729
9636.35
236.824
9517.58
229.704
9401.61
219.095
9282.29
219.336
9153.02
232.123
9009.74
252.191
8849.44
276.287
8665.48
310.114
8442.36
371.028
8154.79
480.985
7783.52
628.172
7340.99
732.222
6862.73
669.699
6181.17
595.899
4581.85
1960.59
2360.29
4878.37
510.637
5885.48
-1004.03
4055.18
-2045.46
1928.95
-2762.49
1202.04
-3373.93
1122.01
-4017.08
1232.76
-4698.46
1330.09
-5400.23
1383.22
-6106.12
1398.9
-6801.6
1381.97
-7477.29
1344.19
-8127.91
1295.01
-8751.49
1241.72
-9348.3
1189.4
-9919.94
1140.55
-10468.3
1095.63
-10995.1
1053.8
-11501.5
1013.82
-11988.2
974.703
-12455.6
935.959
-12903.8
897.625
-13333.4
860.069
-13744.8
823.788
-14138.9
789.231
-14516.7
756.686
-14879.3
726.239
-15227.7
697.779
-15562.9
671.054
-15885.7
645.727
-16196.7
621.441
-16496.2
597.848
-16784.7
574.633
-17062
551.529
-17328.4
528.351
-17583.6
505.036
-17827.6
481.692
-18060.5
458.631
-18282.6
436.376
-18494.4
415.625
-18696.9
397.172
-18891.4
381.761
-19079.7
369.925
-19263.4
361.847
-19444.5
357.349
-19624.5
356.026
-19804.7
357.347
-19986.2
360.697
-20169.7
365.594
-20356
371.633
-20543.5
374.158
-20726.7
363.328
-20900.1
335.053
370.374
7450.33
-7.03499
7337.02
306.394
7175.02
442.012
7003.07
467.435
6846.64
419.476
6715.64
343.097
6611.1
264.441
6531.39
191.005
6473.71
126.721
6436.61
67.0347
6424.84
-7.76371
6446.93
-107.997
6508.9
-224.615
6615.62
-354.101
6771.08
-493.844
6979.51
-641.839
7246.85
-797.742
7576.97
-953.603
7962.38
-1084.28
8379.25
-1155.43
8792.93
-1142.81
9170.52
-1048.13
9492.41
-901.985
9754.57
-742.939
9962.71
-601.503
10100.7
-425.915
10144.5
-181.385
10105.7
56.4294
10019
208.765
9904.67
296.373
9772.51
353.905
9634.52
374.824
9498.72
365.515
9363.55
354.28
9221.67
361.232
9065.72
388.081
8890.68
427.25
8691.83
475.154
8460.33
541.632
8179.26
652.109
7823.78
836.484
7372.72
1079.26
6813.25
1291.71
6092.3
1390.66
4970.61
1717.61
3381.43
3549.8
1797.43
6462.39
376.751
7306.17
-757.078
5189.04
-1578.48
2750.36
-2340.13
1963.72
-3029.9
1811.79
-3715.83
1918.72
-4431.02
2045.28
-5161.82
2114.03
-5894.97
2132.05
-6618.14
2105.16
-7322.23
2048.28
-8001.06
1973.85
-8651.12
1891.77
-9271.1
1809.39
-9861.61
1731.05
-10424.4
1658.41
-10961.8
1591.2
-11476.1
1528.14
-11969.2
1467.81
-12442.4
1409.13
-12896.4
1351.62
-13331.7
1295.39
-13748.8
1240.91
-14148.4
1188.84
-14531.5
1139.75
-14899.2
1093.97
-15253
1051.51
-15594
1012.11
-15923.6
975.285
-16242.6
940.482
-16551.9
907.128
-16851.9
874.686
-17143.1
842.682
-17425.5
810.735
-17699.1
778.609
-17963.7
746.288
-18219.1
714.032
-18465.1
682.42
-18701.8
652.327
-18929.5
624.844
-19148.8
601.114
-19361
582.093
-19567.5
568.327
-19770
559.832
-19970.1
556.183
-20169.4
556.63
-20368.9
560.235
-20569.6
566.275
-20772.1
574.081
-20975.7
577.827
-21177.2
564.813
-21375.9
533.729
581.259
7573.36
2.41105
7450.71
429.059
7274.39
618.341
7085.82
656.017
6911.83
593.489
6763.12
491.829
6641.24
386.338
6544.89
287.376
6471.64
199.989
6420.64
118.053
6396.4
16.498
6406.96
-118.536
6458.9
-276.527
6558.39
-453.572
6712.45
-647.894
6931.08
-860.445
7225.44
-1092.09
7597.43
-1325.57
8028.45
-1515.29
8481.59
-1608.55
8915.18
-1576.39
9296.8
-1429.73
9611.36
-1216.54
9860.16
-991.724
10050.6
-791.929
10161.3
-536.574
10168.7
-188.814
10095.2
129.932
9980.17
323.812
9841.22
435.334
9687.42
507.723
9530.69
531.566
9377.51
518.704
9224.63
507.177
9063.52
522.349
8885.92
565.701
8685.72
627.461
8456.85
704.046
8189.15
809.341
7865.63
975.643
7463
1239.13
6961.13
1581.15
6340.33
1912.52
5551.95
2179.06
4454.54
2815.02
3091.99
4912.37
1743.28
7811.13
257.145
8792.31
-804.689
6250.9
-1370.04
3315.71
-2034.46
2628.18
-2725.3
2502.64
-3434.16
2627.61
-4175.3
2786.42
-4934.04
2872.8
-5699.57
2897.59
-6461.62
2867.24
-7211.15
2797.81
-7940.34
2703.05
-8642.94
2594.37
-9314.51
2480.97
-9952.83
2369.38
-10557.8
2263.42
-11131.3
2164.62
-11675.9
2072.8
-12194.9
1986.8
-12691
1905.22
-13166.2
1826.88
-13622
1751.15
-14059.1
1678.04
-14478.3
1608.05
-14880.5
1541.92
-15266.8
1480.28
-15638.8
1423.46
-15998
1371.38
-16346.3
1323.57
-16685.2
1279.34
-17016
1237.88
-17339.6
1198.36
-17656.9
1160
-17968.3
1122.09
-18273.8
1084.1
-18573.2
1045.69
-18866.1
1006.9
-19151.8
968.132
-19429.7
930.27
-19699.4
894.579
-19960.9
862.564
-20214.5
835.689
-20461.2
815.036
-20702.4
801.054
-20939.7
793.505
-21174.7
791.571
-21408.5
794.062
-21642.2
799.96
-21876.3
808.166
-22110.6
812.114
-22344.3
798.508
-22577.4
766.903
817.979
7685.87
16.5029
7552.29
562.638
7359.46
811.187
7152.25
863.24
6959.36
786.398
6792.42
658.785
6653.53
525.242
6541.67
399.256
6454.69
286.981
6392.57
180.194
6359.64
49.4456
6363.15
-122.026
6410.75
-324.103
6512
-554.807
6679.57
-815.453
6927.82
-1108.67
7264.11
-1428.37
7676.9
-1738.35
8133.39
-1971.77
8591.18
-2066.32
9012.39
-1997.59
9372.05
-1789.37
9661.5
-1505.98
9886.82
-1217.04
10052.9
-957.969
10131.1
-614.745
10101.7
-159.436
9995.56
236.065
9854.24
465.144
9692.9
596.684
9520.29
680.346
9347.99
703.874
9180.83
685.878
9013.85
674.166
8837.37
698.847
8642.21
760.873
8421.46
848.224
8168.06
957.465
7871.1
1106.31
7513.84
1332.92
7074.67
1678.32
6536.91
2118.92
5885.83
2563.61
5101.39
2963.52
4111.19
3805.24
2927.31
6096.28
1666.65
9071.81
96.5817
10362.4
-939.22
7286.72
-1344.39
3720.89
-1922.88
3206.7
-2602.36
3182.11
-3317.83
3343.11
-4067.54
3536.13
-4837.59
3642.86
-5621.55
3681.55
-6413
3658.7
-7204.28
3589.09
-7986.56
3485.34
-8750.84
3358.66
-9488.88
3219.01
-10194.4
3074.88
-10863.6
2932.69
-11495.7
2796.67
-12091.9
2668.96
-12655
2549.96
-13188.7
2438.91
-13696.3
2334.48
-14180.6
2235.47
-14643.7
2141.12
-15087
2051.37
-15511.8
1966.68
-15919.2
1887.73
-16310.9
1815.09
-16688.4
1748.93
-17053.8
1688.95
-17408.9
1634.42
-17755.4
1584.34
-18094.6
1537.59
-18427.6
1493.01
-18755
1449.52
-19077.1
1406.19
-19393.7
1362.32
-19704.5
1317.62
-20008.6
1272.3
-20305.5
1227.17
-20594.6
1183.62
-20875.5
1143.47
-21148.4
1108.64
-21414.1
1080.69
-21673.5
1060.48
-21928
1048.01
-22178.9
1042.45
-22427.3
1042.44
-22673.9
1046.62
-22919.1
1053.38
-23163
1055.94
-23405.8
1041.33
-23648.7
1009.86
1062.95
7802.29
25.4351
7661.73
703.202
7452.51
1020.42
7224.21
1091.55
7009.21
1001.42
6821.29
846.722
6663.76
682.788
6536.16
526.877
6436.71
386.445
6366.19
250.743
6328.8
86.8575
6331.16
-124.365
6382.74
-375.666
6497.41
-669.451
6691.09
-1009.12
6974.55
-1392.12
7342.76
-1796.55
7770.72
-2166.29
8220.97
-2422.01
8656.37
-2501.7
9047.84
-2389.06
9377.26
-2118.78
9639.57
-1768.28
9843.74
-1421.19
9987.11
-1101.32
10032.8
-660.413
9969.87
-96.5185
9835.94
370.012
9671.58
629.513
9490.48
777.788
9302.21
868.627
9117.61
888.491
8939.31
864.188
8760.58
852.908
8570.68
888.763
8359.85
971.719
8120.76
1087.32
7845.82
1232.42
7523.66
1428.49
7137.56
1719.04
6666.9
2148.99
6099.49
2686.34
5431.46
3231.65
4672.67
3722.32
3773.39
4704.54
2678.66
7191.02
1435.6
10314.9
-122.399
11920.4
-1152.26
8316.6
-1567.87
4136.5
-2144.62
3783.49
-2850.84
3888.34
-3588.03
4080.33
-4342.35
4290.46
-5105.7
4406.24
-5879.69
4455.54
-6666.28
4445.3
-7463.78
4386.6
-8266.07
4287.64
-9063.96
4156.55
-9846.85
4001.91
-10604.8
3832.78
-11329.8
3657.7
-12016.9
3483.82
-12664.3
3316.34
-13272.6
3158.32
-13844.6
3010.91
-14383.9
2873.78
-14894.3
2745.86
-15379.2
2625.98
-15841.2
2513.41
-16282.6
2408.03
-16705
2310.16
-17110.2
2220.28
-17499.9
2138.63
-17876
2065.03
-18240.4
1998.8
-18594.9
1938.84
-18941.1
1883.81
-19280.3
1832.25
-19613.5
1782.71
-19941.2
1733.9
-20263.7
1684.78
-20580.8
1634.75
-20892.3
1583.78
-21197.7
1532.58
-21496.7
1482.57
-21788.9
1435.74
-22074.6
1394.29
-22354.1
1360.15
-22628.1
1334.49
-22897.6
1317.49
-23163.5
1308.39
-23426.8
1305.75
-23688.1
1307.89
-23947.5
1312.79
-24205.4
1313.85
-24462.8
1298.74
-24719.2
1266.25
1319.89
7848.69
25.3585
7714.6
837.293
7503.41
1231.63
7265.6
1329.36
7036.88
1230.17
6834.2
1049.42
6663.25
853.753
6524.97
665.165
6418.46
492.973
6345.27
323.948
6309.54
122.613
6317.57
-132.377
6380.66
-438.741
6515.46
-804.23
6736.43
-1230.08
7044.99
-1700.66
7423.53
-2175.09
7841.22
-2583.97
8264.96
-2845.74
8666.85
-2903.58
9025.49
-2747.68
9326.44
-2419.72
9565.49
-2007.32
9754.16
-1609.85
9877.58
-1224.73
9890.48
-673.292
9796.71
-2.74234
9639.48
527.246
9455.39
813.613
9257.07
976.122
9055.47
1070.23
8860.45
1083.53
8672.22
1052.42
8482.27
1042.87
8278.98
1092.07
8052.38
1198.33
7795.25
1344.47
7499.93
1527.76
7154.81
1773.63
6742.78
2131.09
6243.11
2648.68
5648.17
3281.3
4968.74
3911.1
4244.84
4446.24
3412.2
5537.2
2357.88
8245.37
1105.95
11566.8
-387.14
13413.5
-1447.2
9376.67
-2028.48
4717.78
-2718.92
4473.95
-3530.1
4699.53
-4346.24
4896.49
-5138.22
5082.44
-5905.23
5173.25
-6657.79
5208.1
-7408.79
5196.31
-8166.86
5144.66
-8934.06
5054.85
-9706.54
4929.03
-10476.1
4771.46
-11232.6
4589.26
-11966
4391.17
-12668.4
4186.21
-13334.4
3982.33
-13961.7
3785.63
-14550.7
3599.92
-15103.8
3426.89
-15624.5
3266.57
-16116.6
3118.08
-16583.6
2980.38
-17028.4
2852.79
-17453.3
2735.09
-17860.4
2627.37
-18251.5
2529.7
-18628.3
2441.83
-18992.5
2363.07
-19346
2292.25
-19690
2227.9
-20026.1
2168.33
-20355.2
2111.83
-20678.1
2056.8
-20995.3
2001.93
-21306.9
1946.37
-21613
1889.9
-21913.6
1833.14
-22208.5
1777.49
-22497.8
1725.03
-22781.7
1678.14
-23060.4
1638.94
-23334.7
1608.77
-23605.1
1587.9
-23872.3
1575.62
-24137
1570.4
-24399.4
1570.31
-24659.6
1572.95
-24918
1572.24
-25175.6
1556.32
-25431.5
1522.22
1578.11
7860.13
19.6067
7729.99
967.44
7517.59
1444.05
7274.07
1572.89
7037.2
1467.06
6826.19
1260.45
6648.59
1031.37
6506.56
807.213
6399.89
599.663
6330.48
393.381
6302
151.113
6320.63
-150.975
6399.3
-517.395
6555.39
-960.298
6797.65
-1472.33
7115.97
-2018.97
7484.57
-2543.67
7874.72
-2974.11
8262.54
-3233.55
8629.08
-3270.1
8957.71
-3076.3
9234.98
-2696.97
9455.66
-2228
9632.29
-1786.47
9737.76
-1330.19
9719.46
-654.984
9596.9
119.833
9420.53
703.624
9219.72
1014.43
9006.41
1189.44
8793.06
1283.58
8588.44
1288.17
8390.39
1250.49
8188.63
1244.64
7970.81
1309.9
7727.1
1442.06
7450.86
1620.72
7134.83
1843.81
6767.36
2141.1
6330.55
2567.92
5802.36
3176.89
5178.99
3904.68
4490.65
4599.45
3810.15
5126.75
3038.35
6309.01
2037.26
9246.48
746.146
12858
-709.104
14868.7
-1787.36
10454.9
-2591.15
5521.58
-3479.91
5362.73
-4459.9
5679.52
-5404.71
5841.31
-6273.01
5950.75
-7072.22
5972.48
-7820.03
5955.92
-8537.03
5913.32
-9240.27
5847.9
-9940.73
5755.32
-10642.9
5631.2
-11345.5
5474.08
-12043.2
5286.95
-12728.5
5076.47
-13393.7
4851.41
-14032.3
4620.96
-14640.1
4393.34
-15215
4174.88
-15757.7
3969.52
-16270
3778.95
-16755.1
3603.17
-17216.1
3441.34
-17655.8
3292.53
-18076.8
3156.06
-18481
3031.6
-18870.2
2918.93
-19246
2817.63
-19609.9
2726.95
-19963.4
2645.73
-20307.9
2572.41
-20644.8
2505.22
-20975.3
2442.32
-21300.4
2381.94
-21621
2322.56
-21937.8
2263.13
-22251.2
2203.26
-22561.4
2143.36
-22868.6
2084.7
-23172.9
2029.29
-23474.2
1979.48
-23772.7
1937.48
-24068.7
1904.75
-24362.5
1881.7
-24654.6
1867.69
-24945.5
1861.27
-25235.5
1860.32
-25524.7
1862.13
-25813.5
1861.12
-26102.8
1845.62
-26388
1807.39
1854.23
7843.93
8.93692
7718.14
1093.24
7505.57
1656.62
7258.59
1819.88
7017.26
1708.41
6802.81
1474.9
6624.26
1209.94
6484.47
947.014
6383.49
700.653
6322.81
454.085
6305.16
168.782
6337
-182.799
6432.85
-613.226
6607.64
-1135.08
6860.56
-1725.23
7171.57
-2329.97
7514
-2886.09
7867.27
-3327.36
8217.38
-3583.64
8551.71
-3604.42
8855.51
-3380.09
9114.38
-2955.83
9321.05
-2434.66
9486.81
-1952.21
9575.33
-1418.7
9529.11
-608.744
9380.39
268.554
9188.03
896.002
8972.7
1229.77
8746.23
1415.92
8522.34
1507.48
8308.54
1501.99
8100.31
1458.72
7885.75
1459.22
7651.86
1543.8
7389.23
1704.7
7092.2
1917.76
6754.2
2181.82
6363.69
2531.63
5901.39
3030.23
5342.72
3735.58
4686.37
4561.05
3988.4
5297.43
3382.71
5732.46
2710.02
6981.72
1712.58
10243.9
267.452
14303.1
-1132.56
16268.7
-2110.3
11432.7
-3107.93
6519.21
-4232.44
6487.25
-5391.66
6838.74
-6459.41
6909.08
-7402.99
6894.33
-8242.64
6812.14
-9001.67
6714.94
-9703.46
6615.11
-10368
6512.42
-11010.6
6397.95
-11641.7
6262.28
-12266.6
6099.02
-12886.6
5906.96
-13499.8
5689.63
-14102.3
5453.95
-14689.9
5208.53
-15258.6
4962.1
-15806
4722.2
-16330.7
4494.26
-16833.1
4281.33
-17314.3
4084.37
-17776
3903.08
-18220.1
3736.61
-18648.2
3584.17
-19061.8
3445.22
-19462.2
3319.36
-19850.8
3206.13
-20228.6
3104.81
-20597.2
3014.3
-20957.9
2933.14
-21312.3
2859.56
-21661.6
2791.67
-22007.2
2727.56
-22350.2
2665.49
-22691.2
2604.13
-23030.6
2542.74
-23368.7
2481.38
-23704.9
2420.99
-24039
2363.37
-24370.4
2310.84
-24698.6
2265.72
-25023.6
2229.74
-25345.5
2203.57
-25664.6
2186.77
-25981.3
2177.95
-26295.8
2174.89
-26608.2
2174.54
-26918.8
2171.65
-27227.9
2154.71
-27530.2
2109.71
2138.99
7803.98
-5.60948
7683.96
1213.26
7473.7
1866.9
7226.16
2067.43
6983.75
1950.85
6769.82
1688.84
6594.66
1385.12
6461.51
1080.18
6370.19
791.992
6321.1
503.197
6316.39
173.511
6363.49
-229.876
6476.23
-725.945
6662.46
-1321.29
6911.46
-1974.21
7199.78
-2618.28
7506.6
-3192.9
7821.01
-3641.76
8136.5
-3899.13
8443.85
-3911.76
8728.13
-3664.36
8972.93
-3200.61
9168.65
-2630.37
9325.11
-2108.66
9396.92
-1490.5
9325.35
-537.158
9154.41
439.496
8947.99
1102.44
8720.46
1457.31
8482.89
1653.51
8249.39
1740.98
8026.23
1725.16
7806.87
1678.09
7578.07
1688.03
7326.45
1795.43
7043.19
1987.98
6723.76
2237.21
6362.36
2543.23
5947.4
2946.61
5457.47
3520.17
4863.77
4329.29
4164.26
5260.58
3464.47
5997.24
2937.14
6259.8
2267.6
7651.28
1055.36
11456.2
-526.492
15885
-1628.47
17370.7
-2362.48
12166.7
-3530.04
7686.78
-4894.73
7851.96
-6188.26
8132.28
-7326.53
8047.36
-8311.43
7879.23
-9176.86
7677.58
-9949.02
7487.11
-10650.5
7316.59
-11300
7161.96
-11913
7010.92
-12501.5
6850.77
-13074.5
6672.02
-13638.1
6470.6
-14195.9
6247.45
-14749.2
6007.22
-15297.4
5756.73
-15838.8
5503.5
-16371.1
5254.52
-16892.1
5015.25
-17399.9
4789.17
-17893.5
4577.89
-18372.1
4381.74
-18835.9
4200.37
-19285.1
4033.36
-19720.3
3880.39
-20142.1
3741.24
-20551.6
3615.61
-20949.8
3502.96
-21337.8
3402.33
-21717
3312.38
-22088.8
3231.37
-22454.5
3157.3
-22815
3088.04
-23171
3021.57
-23523.1
2956.18
-23871.1
2890.75
-24214.7
2825.01
-24553.4
2759.69
-24886.6
2696.54
-25213.8
2638.02
-25534.8
2586.72
-25849.7
2544.67
-26158.9
2512.77
-26462.8
2490.65
-26761.7
2476.91
-27056
2469.16
-27345.7
2464.2
-27631
2457.02
-27913.2
2436.88
-28190.7
2387.23
2410.63
7718.32
-20.9351
7608.63
1322.96
7409.71
2065.83
7170.88
2306.27
6935.3
2186.45
6728.43
1895.72
6562.14
1551.43
6440.23
1202.11
6362.22
870.011
6327.45
537.986
6337.8
163.182
6399.9
-291.966
6523.04
-849.069
6707.35
-1505.58
6937.87
-2204.71
7194.24
-2874.64
7463.35
-3462
7741.96
-3920.35
8028.31
-4185.47
8314.5
-4197.93
8584.06
-3933.91
8818
-3434.54
9004.9
-2817.26
9152.64
-2256.39
9207.43
-1545.29
9113.81
-443.52
8925.25
628.065
8707.55
1320.14
8470.94
1693.93
8224.12
1900.34
7981.06
1984.06
7747.09
1959.14
7514.42
1910.77
7269.18
1933.28
6997.92
2066.7
6692.52
2293.39
6349.5
2580.24
5963.68
2929.07
5522.92
3387.38
5002.52
4040.59
4366.67
4965.15
3605.07
6022.2
2719.59
6882.73
1924.95
7054.45
1073.23
8503.02
-246.932
12776.4
-1572.65
17210.7
-2070.88
17868.9
-2569.5
12665.3
-3941.33
9058.62
-5495.38
9406.02
-6834.54
9471.43
-7978.69
9191.53
-8968.63
8869.16
-9843.8
8552.76
-10628.9
8272.21
-11342.9
8030.58
-12000.9
7819.96
-12615.5
7625.49
-13197.4
7432.7
-13756.3
7230.93
-14300.8
7015.04
-14837.9
6784.55
-15372.8
6542.12
-15908.1
6292.03
-16443.8
6039.28
-16978
5788.71
-17507.3
5544.49
-18027.8
5309.69
-18536.2
5086.27
-19029.8
4875.39
-19507.2
4677.71
-19967.5
4493.71
-20410.9
4323.8
-20838
4168.27
-21249.5
4027.16
-21646.7
3900.12
-22030.6
3786.3
-22402.6
3684.33
-22763.6
3592.38
-23114.6
3508.24
-23456.1
3429.54
-23788.5
3353.98
-24111.9
3279.6
-24426.3
3205.13
-24731.5
3130.24
-25027.6
3055.81
-25314.9
2983.82
-25593.9
2917.02
-25865.4
2858.22
-26130.3
2809.51
-26389.2
2771.71
-26642.8
2744.25
-26891.4
2725.49
-27135.2
2712.94
-27374.5
2703.48
-27609.8
2692.36
-27842.9
2669.97
-28078.1
2622.43
2657.38
7629.15
-30.1389
7518.55
1433.57
7325.5
2258.89
7096.82
2534.96
6873.24
2410.04
6679.52
2089.46
6527.61
1703.35
6421.32
1308.42
6359.64
931.713
6340.52
557.121
6364.62
139.114
6435.55
-362.884
6557.86
-971.352
6728.26
-1675.97
6932.57
-2409.01
7155.19
-3097.25
7389.51
-3696.31
7637.93
-4168.76
7901.46
-4448.99
8171.96
-4468.42
8430.52
-4192.45
8655.62
-3659.63
8835.2
-2996.83
8974.63
-2395.8
9013.22
-1583.88
8901.36
-331.648
8700.16
829.276
8475.54
1544.76
8232.96
1936.52
7977.66
2155.65
7723.64
2238.09
7475.92
2206.87
7226.46
2160.25
6961.71
2198.05
6668.6
2359.82
6339.76
2622.25
5972.52
2947.5
5561.87
3339.74
5094.47
3854.8
4540.91
4594.17
3855.11
5650.96
2935.71
6941.61
1781.58
8036.87
651.557
8184.48
-558.444
9713.03
-1834.29
14052.2
-2522.87
17899.3
-2410.75
17756.8
-2899.2
13153.8
-4495.8
10655.2
-6092.6
11002.8
-7373.52
10752.4
-8473.06
10291.1
-9445.14
9841.25
-10324.1
9431.74
-11128.7
9076.76
-11871.5
8773.42
-12561.6
8510.1
-13206.3
8270.16
-13812.5
8038.95
-14388.3
7806.68
-14942.4
7569.13
-15483.5
7325.71
-16018.9
7077.48
-16552.8
6825.92
-17086.1
6572.64
-17616.9
6319.47
-18141
6068.59
-18653.7
5822.37
-19150.6
5583.22
-19628.7
5353.46
-20086.2
5135.19
-20522.7
4930.2
-20938.7
4739.87
-21335.5
4565.06
-21714.4
4406.05
-22076.8
4262.49
-22423.9
4133.39
-22756.7
4017.18
-23076.1
3911.76
-23382.5
3814.71
-23676.5
3723.47
-23958.2
3635.67
-24227.9
3549.36
-24486.2
3463.45
-24733.9
3377.93
-24972.1
3294.01
-25202.3
3214.01
-25426.2
3140.86
-25645.2
3077.29
-25860.8
3025.11
-26073.8
2984.68
-26284.6
2955.04
-26493.3
2934.24
-26700.2
2919.84
-26905.7
2908.95
-27110.4
2897.04
-27316
2875.6
-27529.2
2835.65
2889.73
7532.58
-34.0523
7419.81
1546.35
7230.08
2448.63
7010.91
2754.14
6801.29
2619.67
6623.98
2266.78
6489.62
1837.73
6401.01
1397.04
6356.07
976.675
6350.62
562.583
6383.27
106.484
6455.24
-434.841
6568.82
-1084.92
6719.94
-1827.08
6896.32
-2585.37
7087.25
-3288.16
7291.85
-3900.9
7516.31
-4393.21
7762.56
-4695.23
8021.18
-4727.03
8270.65
-4441.91
8487.85
-3876.82
8661.44
-3170.41
8794.57
-2528.91
8820.01
-1609.3
8695.33
-206.954
8488.14
1036.47
8260.47
1772.45
8012.95
2184.04
7748.19
2420.42
7480.55
2505.73
7215.15
2472.29
6944.73
2430.68
6657.01
2485.78
6339.8
2677.04
5986.49
2975.57
5594.9
3339.1
5159.68
3774.97
4665.56
4348.94
4077.18
5182.57
3340.41
6387.75
2303.85
7978.18
931.497
9409.24
-668.226
9784.21
-2219.91
11264.7
-3162.55
14994.9
-3200.74
17937.5
-2842.27
17398.4
-3573.86
13885.4
-5265.28
12346.6
-6711.19
12448.7
-7861.77
11902.9
-8890.37
11319.7
-9835.18
10786.1
-10719.2
10315.8
-11551.9
9909.49
-12337
9558.49
-13074.5
9247.62
-13764
8959.62
-14406.9
8681.85
-15008.2
8407.97
-15576
8136.9
-16119.6
7869.39
-16647.6
7605.43
-17165.2
7343.52
-17674.1
7081.57
-18172.8
6818.21
-18657.9
6553.67
-19125.4
6289.88
-19572.2
6029.99
-19996.5
5777.73
-20398
5536.74
-20777.8
5310.02
-21137.6
5099.63
-21479.2
4906.67
-21804.4
4731.26
-22114.7
4572.74
-22411
4429.72
-22694.1
4300.3
-22964.5
4182.15
-23222.6
4072.72
-23468.5
3969.46
-23703
3870.13
-23926.7
3773.08
-24140.9
3677.58
-24346.9
3584.02
-24546.9
3493.96
-24742.7
3409.86
-24936.4
3334.53
-25129.5
3270.35
-25322.9
3218.59
-25517.3
3179.08
-25712.7
3150.45
-25909.1
3130.57
-26106.3
3117.1
-26304.9
3107.48
-26505.1
3097.27
-26708.3
3078.8
-26920.5
3047.84
3118.56
7427.78
-32.1988
7312.69
1661.45
7125.99
2635.34
6916.32
2963.81
6721.25
2814.75
6561.22
2426.83
6444.81
1954.16
6373.27
1468.59
6342.99
1006.98
6347.62
557.97
6384.35
69.7834
6453.09
-503.561
6554.4
-1186.21
6683.87
-1956.53
6832.68
-2734.17
6995.85
-3451.31
7176.45
-4081.48
7382.05
-4598.8
7614.44
-4927.61
7862.94
-4975.52
8103.89
-4682.85
8313.94
-4086.86
8483.77
-3340.23
8614.52
-2659.64
8632.19
-1626.95
8502.15
-76.9071
8296.36
1242.27
8067.48
2001.33
7813.41
2438.12
7536.55
2697.29
7251.71
2790.59
6964.33
2759.68
6668.83
2726.19
6354.99
2799.64
6011.81
3020.23
5633.45
3353.94
5217.85
3754.71
4758.92
4233.92
4238.71
4869.15
3615.38
5805.92
2788.58
7214.56
1621.38
9145.4
67.6179
10963
-1859.24
11711.1
-3483.33
12888.8
-4061.81
15573.4
-3806.75
17682.5
-3638.4
17230
-4632.51
14879.5
-6166.7
13880.8
-7348.86
13630.9
-8353.82
12907.9
-9306.42
12272.3
-10222
11701.6
-11110.8
11204.6
-11971.2
10769.9
-12795.6
10382.9
-13573.5
10025.5
-14295.8
9681.95
-14958.8
9344.79
-15565.2
9014.4
-16123.6
8695.28
-16644.8
8390.64
-17138.8
8099.44
-17612.1
7816.82
-18067.4
7536.82
-18504.3
7255.19
-18921.4
6970.78
-19317.2
6685.59
-19690.9
6403.77
-20043.5
6130.34
-20376.8
5869.96
-20692.9
5626.14
-20994.2
5400.98
-21282.7
5195.19
-21559.9
5008.37
-21826.4
4839.33
-22083
4686.29
-22329.8
4547.09
-22567
4419.31
-22794.7
4300.45
-23013.4
4188.16
-23223.8
4080.49
-23426.8
3976.15
-23624
3874.77
-23817
3777.02
-24007.6
3684.59
-24197.6
3599.86
-24388.5
3525.35
-24581.1
3462.98
-24776.1
3413.55
-24973.5
3376.49
-25173.2
3350.15
-25374.9
3332.34
-25578.7
3320.9
-25784.8
3313.55
-25993.4
3305.87
-26205.5
3290.85
-26425.2
3267.6
3349.95
7317.09
-25.3002
7201.14
1777.41
7018.18
2818.31
6817.9
3164.1
6636.74
2995.93
6492.94
2570.64
6392.95
2054.16
6336.35
1525.2
6318.06
1025.28
6330.08
545.968
6368.2
31.6808
6430.4
-565.742
6515.69
-1271.49
6621.85
-2062.67
6745.69
-2858
6886.32
-3591.92
7047.53
-4242.69
7237.22
-4788.47
7457.55
-5147.93
7696.83
-5214.78
7929.76
-4915.76
8134.4
-4291.49
8304.32
-3510.14
8438.77
-2794.08
8456.43
-1644.61
8327.88
51.6595
8127.58
1442.58
7896.83
2232.09
7633.33
2701.63
7340.74
2989.89
7034.45
3096.88
6720.78
3073.36
6396.67
3050.31
6054.37
3141.94
5684.13
3390.48
5280.71
3757.38
4841.91
4193.53
4360.53
4715.31
3815.46
5414.24
3160.19
6461.21
2264.41
8110.36
1009.8
10400
-677.585
12650.4
-2742.36
13775.9
-4313.25
14459.7
-4765.51
16025.6
-4625.24
17542.2
-4812.92
17417.7
-5858.13
15924.7
-7071.46
15094.2
-8007.75
14567.2
-8891.77
13791.9
-9775.79
13156.3
-10660.5
12586.3
-11544.2
12088.3
-12414.1
11639.8
-13251
11219.9
-14035.1
10809.6
-14751.1
10398
-15393.1
9986.79
-15965.2
9586.49
-16478.8
9208.86
-16947.5
8859.39
-17382.9
8534.84
-17792.2
8226.05
-18178.6
7923.22
-18543.3
7619.91
-18887.1
7314.53
-19211.1
7009.66
-19517.7
6710.36
-19809.6
6422.25
-20089.7
6150.08
-20360.6
5896.97
-20623.9
5664.34
-20880.9
5452.13
-21131.9
5259.36
-21376.9
5084.39
-21615.9
4925.26
-21848.5
4779.74
-22074.8
4645.53
-22294.7
4520.35
-22508.6
4402.12
-22717.3
4289.18
-22921.7
4180.55
-23123
4076.07
-23322.5
3976.54
-23521.6
3883.6
-23721.2
3799.48
-23922.2
3726.38
-24125.2
3665.93
-24330.2
3618.6
-24537.4
3583.64
-24746.5
3559.25
-24957.4
3543.22
-25170
3533.58
-25384.7
3528.25
-25601.7
3522.84
-25821.7
3510.84
-26047.6
3493.52
3584.2
7165.22
-13.1478
7058.09
1884.55
6890.97
2985.44
6708.57
3346.52
6545.31
3159.21
6418.54
2697.43
6333.9
2138.82
6290.16
1568.95
6281.41
1034.06
6298.08
529.32
6333.94
-4.15526
6385.17
-616.95
6451.82
-1338.12
6536.49
-2147.32
6640.33
-2961.82
6762.72
-3714.3
6906.97
-4386.93
7082.73
-4964.22
7292.89
-5358.07
7524.1
-5445.99
7750.29
-5141.94
7953.13
-4494.31
8128.82
-3685.82
8275.11
-2940.35
8301.01
-1670.5
8177.72
174.966
7983.32
1636.99
7747.39
2468.02
7469.69
2979.34
7156.71
3302.89
6824.51
3429.08
6480.61
3417.27
6125.18
3405.76
5753.19
3513.94
5355.76
3787.93
4927.89
4185.26
4467.08
4654.35
3964.87
5217.54
3396.62
5982.51
2685.86
7171.97
1714.86
9081.38
421.695
11693.2
-1295.43
14367.5
-3343.63
15824.1
-4896.24
16012.3
-5492.52
16621.9
-5666.42
17716.1
-6098.12
17849.4
-7001.58
16828.2
-7915.83
16008.4
-8691.09
15342.5
-9488.88
14589.7
-10314.5
13981.9
-11161.7
13433.5
-12018.4
12945.1
-12862.5
12483.9
-13667
12024.3
-14406.8
11549.4
-15065.8
11057
-15640.9
10561.9
-16141.5
10087.1
-16583.8
9651.1
-16983.8
9259.43
-17353.2
8904.25
-17698.4
8571.19
-18022.3
8247.15
-18327.1
7924.71
-18615.3
7602.75
-18890.3
7284.62
-19155.6
6975.73
-19414.7
6681.35
-19670.1
6405.42
-19923.1
6150.01
-20174.3
5915.57
-20423.6
5701.38
-20670.3
5506.05
-20913.7
5327.85
-21153.3
5164.84
-21388.6
5014.99
-21619.3
4876.21
-21845.4
4746.49
-22067.3
4624.01
-22285.5
4507.37
-22500.7
4395.75
-22713.7
4289.12
-22925.4
4188.27
-23136.6
4094.8
-23347.9
4010.77
-23559.8
3938.24
-23772.5
3878.66
-23986.3
3832.4
-24201.3
3798.58
-24417.4
3775.36
-24634.7
3760.51
-24853.3
3752.18
-25073.5
3748.46
-25295.7
3745.02
-25520.5
3735.66
-25750
3723.05
3820.99
7029.89
14.1266
6912.44
2002
6750.61
3147.29
6584.64
3512.49
6440.99
3302.88
6332.36
2806.07
6262.67
2208.51
6230.19
1601.45
6228.49
1035.77
6246.66
511.166
6276.83
-34.3034
6315.22
-655.333
6365.08
-1387.97
6432.97
-2215.19
6520.71
-3049.55
6626.6
-3820.18
6755.69
-4516.01
6920.55
-5129.07
7122.96
-5560.47
7347.49
-5670.5
7569.65
-5364.09
7776.78
-4701.43
7965.57
-3874.6
8132.67
-3107.43
8172.87
-1710.68
8053.94
293.907
7862.3
1828.63
7615.98
2714.35
7318.11
3277.22
6979.52
3641.48
6616.96
3791.66
6239.39
3794.85
5851
3794.16
5449.33
3915.62
5025.55
4211.72
4574.46
4636.36
4093.09
5135.73
3571.78
5738.87
2983.7
6570.6
2218.58
7937.11
1182.32
10117.7
-128.739
13004.3
-1799.72
16038.5
-3751.31
17775.7
-5355.39
17616.4
-6232.74
17499.2
-6708.76
18192.2
-7228.24
18368.9
-7957.34
17557.3
-8687.83
16738.9
-9379.21
16033.9
-10117.3
15327.8
-10889.9
14754.5
-11686.3
14229.9
-12487
13745.8
-13264.6
13261.4
-13989.5
12749.2
-14637.9
12197.7
-15198.8
11617.9
-15677
11040.1
-16089.1
10499.2
-16455.1
10017.2
-16791.3
9595.54
-17106.5
9219.45
-17404.6
8869.32
-17687.6
8530.17
-17957.9
8195.02
-18218.9
7863.75
-18474.5
7540.19
-18728.1
7229.3
-18982
6935.27
-19237.3
6660.73
-19493.9
6406.63
-19751
6172.7
-20007.6
5957.9
-20262.3
5760.83
-20514.4
5579.89
-20762.9
5413.39
-21007.5
5259.56
-21247.9
5116.59
-21484.1
4982.7
-21716.4
4856.31
-21945.2
4736.17
-22171
4621.59
-22394.5
4512.57
-22616.1
4409.92
-22836.5
4315.17
-23056
4230.33
-23275.2
4157.38
-23494.3
4097.73
-23713.6
4051.72
-23933.4
4018.41
-24154
3995.91
-24375.4
3981.97
-24598
3974.8
-24822.2
3972.59
-25048.3
3971.13
-25277
3964.33
-25509.6
3955.72
4060.58
6896.92
50.8631
6769.81
2129.12
6607.11
3310
6451.51
3668.11
6324.07
3430.33
6231.74
2898.42
6175.4
2264.87
6152.26
1624.6
6155.42
1032.63
6173.03
493.58
6196.72
-57.9626
6224.19
-682.78
6261.25
-1425.01
6315.42
-2269.35
6387.83
-3121.95
6478.27
-3910.6
6595.8
-4633.52
6753.77
-5287.03
6950.32
-5757.01
7169.98
-5890.15
7393.33
-5587.43
7613.52
-4921.6
7823.02
-4084.08
8017.97
-3302.36
8073.32
-1766.02
7952.39
414.841
7756.8
2024.24
7494.77
2976.39
7172.32
3599.68
6803.66
4010.14
6406.54
4188.79
5992.73
4208.67
5571.04
4215.86
5140.93
4345.73
4692.52
4660.14
4219.83
5109.07
3719.49
5636.08
3180.76
6277.62
2547.03
7204.34
1716.64
8767.51
661.157
11173.2
-627.399
14292.8
-2209.59
17620.7
-4032.93
19599
-5706.63
19290.1
-6862.29
18654.9
-7560.85
18890.8
-8105.08
18913.1
-8726.34
18178.6
-9373.97
17386.5
-10024
16684
-10715.5
16019.3
-11433.3
15472.3
-12162.9
14959.6
-12880.9
14463.8
-13559.2
13939.8
-14171.6
13361.5
-14701.2
12727.3
-15147.3
12064
-15524.6
11417.5
-15856
10830.5
-16162
10323.2
-16454.7
9888.29
-16738.4
9503.14
-17013.6
9144.53
-17281
8797.57
-17542.8
8456.77
-17802
8123.03
-18061.9
7800.04
-18324.3
7491.75
-18590
7200.98
-18858.5
6929.17
-19128.4
6676.56
-19398.3
6442.61
-19666.7
6226.34
-19932.5
6026.59
-20194.7
5842.08
-20452.7
5671.4
-20706.2
5513.07