/*--------------------------------*- C++ -*----------------------------------*\
| =========                 |                                                 |
| \\      /  F ield         | OpenFOAM: The Open Source CFD Toolbox           |
|  \\    /   O peration     | Version:  4.1                                   |
|   \\  /    A nd           | Web:      www.OpenFOAM.org                      |
|    \\/     M anipulation  |                                                 |
\*---------------------------------------------------------------------------*/
FoamFile
{
    version     2.0;
    format      ascii;
    class       volVectorField;
    location    "1800";
    object      U;
}
// * * * * * * * * * * * * * * * * * * * * * * * * * * * * * * * * * * * * * //

dimensions      [0 1 -1 0 0 0 0];

internalField   nonuniform List<vector> 
26785
(
(3.09251e-15 0.0944637 58.5871)
(3.26212e-15 0.126314 55.9273)
(8.09651e-16 0.136009 52.9031)
(2.28235e-14 0.133018 50.0241)
(1.46518e-14 0.122175 47.4069)
(3.59996e-14 0.108908 45.1014)
(1.11141e-14 0.0962112 43.1227)
(1.84213e-14 0.0848266 41.4346)
(-1.55827e-14 0.0751711 39.9855)
(4.8151e-14 0.0664501 38.7341)
(3.36011e-14 0.0562748 37.6726)
(2.76996e-14 0.0439512 36.8263)
(1.85178e-14 0.0307352 36.2099)
(1.81928e-14 0.0169853 35.8197)
(2.04029e-14 0.00292413 35.6496)
(2.23643e-14 -0.0111862 35.6916)
(2.1478e-14 -0.0250587 35.9353)
(1.97204e-14 -0.0376488 36.364)
(1.41864e-14 -0.0466298 36.9413)
(3.43262e-14 -0.0492711 37.5982)
(2.18269e-14 -0.0437549 38.2352)
(2.47067e-14 -0.0301867 38.7424)
(4.76287e-14 -0.0110618 39.0305)
(2.88962e-14 0.0103021 39.0517)
(6.29741e-14 0.0292119 38.8131)
(5.27988e-14 0.0481171 38.3454)
(4.6938e-14 0.0722619 37.6505)
(3.76304e-14 0.0967874 36.6839)
(3.85697e-14 0.11063 35.4715)
(9.58822e-14 0.114793 34.1479)
(5.48258e-14 0.116544 32.8425)
(1.19627e-14 0.115156 31.5879)
(6.71517e-14 0.110215 30.3809)
(1.73226e-15 0.104962 29.2294)
(1.19903e-13 0.101997 28.1268)
(6.80255e-14 0.101742 27.0444)
(4.87001e-14 0.103686 25.9519)
(3.61101e-14 0.107763 24.8259)
(4.03788e-14 0.114995 23.6393)
(4.6201e-14 0.127419 22.3466)
(-4.30527e-14 0.146623 20.8799)
(1.27779e-13 0.168407 19.1827)
(8.10117e-14 0.179339 17.2682)
(1.61301e-13 0.157998 15.2649)
(-2.53634e-14 0.103726 13.1551)
(3.36845e-13 0.232942 11.525)
(-2.31726e-15 0.979789 7.56375)
(2.24465e-14 1.26646 -0.801899)
(-1.17906e-14 0.654844 -8.05863)
(2.52464e-15 0.103913 -9.58624)
(-1.50598e-13 0.0619797 -10.6021)
(-1.48382e-13 0.0972285 -11.4665)
(-1.45875e-13 0.119941 -12.4266)
(-1.75337e-13 0.135115 -13.4665)
(-2.13369e-13 0.1425 -14.5336)
(-2.65037e-13 0.14439 -15.6035)
(-7.65759e-14 0.141186 -16.6371)
(-9.50523e-14 0.134791 -17.6136)
(-1.55333e-13 0.126732 -18.5207)
(-7.02357e-14 0.118288 -19.3563)
(-1.59687e-13 0.110398 -20.1254)
(-1.35651e-13 0.103511 -20.8371)
(-1.37102e-13 0.0976677 -21.5012)
(-3.9462e-14 0.0926252 -22.1262)
(-1.21409e-13 0.0880481 -22.7177)
(-1.09868e-13 0.083661 -23.279)
(-1.07597e-13 0.0793179 -23.8119)
(-1.09243e-13 0.074995 -24.3173)
(-1.09213e-13 0.0707434 -24.7964)
(-1.19515e-13 0.0666364 -25.2506)
(-3.03403e-14 0.0627314 -25.6817)
(-9.30669e-14 0.0590479 -26.0913)
(-8.71289e-14 0.0555631 -26.4814)
(-8.57138e-14 0.0522179 -26.8532)
(-6.45571e-14 0.0489304 -27.2077)
(-8.65344e-14 0.0456102 -27.5454)
(-1.2854e-13 0.042171 -27.8664)
(-1.3089e-13 0.0385372 -28.1705)
(-1.37665e-13 0.0346491 -28.457)
(-1.37072e-13 0.0304659 -28.7253)
(-1.32542e-13 0.0259724 -28.9744)
(-9.00733e-14 0.0211867 -29.2035)
(-1.18114e-13 0.0161684 -29.4121)
(-1.191e-13 0.0110231 -29.5999)
(-8.06997e-14 0.00590085 -29.7671)
(-1.04886e-13 0.000984914 -29.9151)
(-1.0573e-13 -0.00353018 -30.0457)
(-1.17369e-13 -0.0074712 -30.162)
(-9.55821e-14 -0.0107233 -30.2676)
(-1.13652e-13 -0.0132569 -30.3662)
(-1.11879e-13 -0.0151234 -30.4606)
(-1.11978e-13 -0.016418 -30.5528)
(-1.11654e-13 -0.0172461 -30.6437)
(-1.11611e-13 -0.017709 -30.7355)
(-1.1396e-13 -0.017875 -30.8395)
(-1.02673e-13 -0.0178364 -30.9578)
(-1.13202e-13 -0.0186608 -31.0922)
(-1.12819e-13 -0.0222894 -31.132)
(-1.12939e-13 -0.0288121 -31.8974)
(-1.12906e-13 -0.028007 -31.6551)
(2.83515e-15 0.291291 60.0004)
(1.08489e-14 0.384943 57.1877)
(1.62916e-15 0.416173 54.0013)
(1.34844e-14 0.409516 50.9621)
(-7.55382e-15 0.378417 48.1978)
(2.22735e-14 0.339046 45.7599)
(-2.47784e-14 0.300633 43.6617)
(1.07469e-15 0.265669 41.865)
(1.32828e-14 0.235515 40.3173)
(1.01899e-14 0.208147 38.9782)
(1.28637e-14 0.176569 37.8342)
(1.04032e-14 0.138539 36.9095)
(1.21133e-14 0.0978478 36.2213)
(1.18237e-14 0.0556798 35.7677)
(1.18937e-14 0.012686 35.5436)
(2.1316e-14 -0.0304481 35.5414)
(-5.64561e-15 -0.0729195 35.7527)
(5.99589e-15 -0.11178 36.1689)
(1.67517e-15 -0.140484 36.7671)
(-3.86838e-14 -0.151 37.4863)
(1.48726e-14 -0.1373 38.2194)
(-1.2117e-14 -0.0988966 38.8374)
(3.52499e-14 -0.0429647 39.2322)
(1.97173e-14 0.0204211 39.3456)
(5.48784e-15 0.0773756 39.1826)
(1.22081e-14 0.136259 38.7673)
(-7.72199e-15 0.212483 38.0943)
(-7.58264e-15 0.287125 37.114)
(-1.41242e-14 0.326911 35.8879)
(-4.62964e-15 0.338717 34.5555)
(-4.86727e-15 0.344256 33.2416)
(-1.78e-14 0.341242 31.9772)
(-1.43185e-14 0.329175 30.7545)
(-9.74001e-16 0.317557 29.5743)
(-1.17818e-15 0.313361 28.4249)
(3.47377e-15 0.317145 27.2771)
(1.83969e-14 0.327084 26.1025)
(2.75983e-14 0.343118 24.8796)
(2.80017e-14 0.368635 23.5804)
(2.60486e-14 0.409689 22.1566)
(3.77716e-14 0.470323 20.5401)
(-9.02276e-14 0.538218 18.6806)
(6.80801e-14 0.579812 16.5928)
(-3.59257e-14 0.55974 14.3633)
(6.45722e-14 0.555725 11.7723)
(-2.93615e-14 1.15414 8.25107)
(1.74466e-13 2.67944 2.37925)
(-3.25292e-14 3.17819 -1.8898)
(-2.24924e-14 1.90344 -6.06021)
(-2.75486e-13 0.542488 -7.85715)
(-1.18768e-13 0.278165 -9.60918)
(-1.64914e-13 0.315768 -10.7112)
(-1.92685e-13 0.373747 -11.7908)
(4.72277e-14 0.416232 -12.9149)
(-1.62608e-13 0.436052 -14.0435)
(-1.64642e-13 0.440252 -15.1603)
(6.10729e-14 0.430023 -16.2324)
(-1.32281e-13 0.410914 -17.2424)
(-2.4788e-13 0.387505 -18.1791)
(-1.72858e-13 0.363508 -19.0411)
(-1.81684e-13 0.341558 -19.8324)
(-4.7573e-14 0.322841 -20.5619)
(-1.0783e-13 0.307346 -21.2392)
(-2.04852e-13 0.294291 -21.8733)
(-1.24985e-13 0.282676 -22.471)
(-1.36927e-13 0.271705 -23.0368)
(-1.28336e-13 0.260967 -23.5732)
(-1.08467e-13 0.2504 -24.0819)
(6.19681e-14 0.240145 -24.5639)
(-1.16347e-13 0.230397 -25.0205)
(-1.16675e-13 0.221294 -25.4534)
(-3.51202e-14 0.212875 -25.8644)
(-1.13704e-13 0.205077 -26.2552)
(-1.33673e-13 0.197765 -26.6277)
(-2.08478e-13 0.190769 -26.983)
(-3.34783e-14 0.183908 -27.3222)
(-8.20327e-14 0.177018 -27.6456)
(-9.12594e-14 0.169951 -27.9533)
(-3.19804e-14 0.162583 -28.245)
(-9.67136e-14 0.154827 -28.5201)
(-1.12593e-13 0.146646 -28.778)
(-9.56646e-14 0.138075 -29.0177)
(-1.1542e-13 0.129242 -29.2388)
(-1.28573e-13 0.120375 -29.4405)
(-8.6905e-14 0.111804 -29.623)
(-5.72164e-14 0.10393 -29.7867)
(-6.59109e-14 0.0971809 -29.9331)
(-8.58912e-14 0.0919418 -30.0646)
(-9.35968e-14 0.088472 -30.1841)
(-1.05507e-13 0.0868442 -30.2949)
(-1.03365e-13 0.0869498 -30.3999)
(-1.02862e-13 0.0885765 -30.5009)
(-1.04539e-13 0.0914707 -30.5991)
(-7.81372e-14 0.0953662 -30.6967)
(-9.85292e-14 0.100095 -30.8047)
(-9.96218e-14 0.105464 -30.9255)
(-9.48869e-14 0.108754 -31.0611)
(-9.99829e-14 0.104721 -31.1042)
(-9.93449e-14 0.0936184 -31.8592)
(-9.92843e-14 0.101544 -31.652)
(6.1624e-15 0.507743 61.1901)
(-1.61096e-14 0.666081 58.2716)
(-5.79185e-15 0.717222 54.9531)
(5.46862e-15 0.704512 51.768)
(-3.97354e-15 0.651166 48.8574)
(4.19643e-14 0.584123 46.2799)
(-2.46783e-14 0.518755 44.0502)
(-2.40143e-14 0.459244 42.1314)
(-2.64525e-14 0.407696 40.471)
(-1.64763e-14 0.361017 39.0309)
(-1.01448e-14 0.307778 37.7965)
(-5.41236e-15 0.243676 36.7876)
(-2.23066e-15 0.174675 36.0244)
(-1.70567e-15 0.102713 35.5085)
(-7.15899e-15 0.0290556 35.2373)
(1.9634e-14 -0.0451317 35.2077)
(-3.1369e-14 -0.119439 35.4268)
(8.15758e-15 -0.190548 35.9123)
(-2.57379e-14 -0.247453 36.6548)
(-9.66883e-17 -0.273655 37.5698)
(2.51301e-15 -0.25542 38.5013)
(-2.57392e-14 -0.190846 39.2787)
(-2.23305e-15 -0.0934965 39.7774)
(1.72244e-14 0.0176318 39.9427)
(7.94833e-15 0.118554 39.7934)
(2.32176e-14 0.225733 39.3603)
(-3.92248e-15 0.363773 38.6281)
(-2.9328e-14 0.490852 37.5534)
(-1.57685e-14 0.553764 36.2414)
(-1.25809e-14 0.572886 34.835)
(-9.45282e-15 0.582402 33.4553)
(-5.30347e-14 0.577653 32.1307)
(1.6039e-14 0.559416 30.8505)
(-5.06762e-14 0.543502 29.6115)
(-3.62072e-14 0.540586 28.398)
(-1.14468e-14 0.551008 27.1794)
(4.26444e-15 0.571764 25.9274)
(1.36355e-14 0.603263 24.6206)
(1.72282e-14 0.651577 23.2295)
(1.65297e-14 0.726246 21.7048)
(1.12946e-14 0.832431 19.98)
(2.10368e-14 0.950468 18.0118)
(2.0963e-14 1.03771 15.8168)
(4.42085e-14 1.08357 13.4499)
(4.07112e-14 1.30098 10.5876)
(3.05913e-14 2.32761 6.57147)
(-2.69444e-14 4.02245 1.71301)
(-1.47269e-14 4.38761 -1.61427)
(-1.47696e-13 2.72242 -5.63319)
(-1.08494e-13 1.01289 -6.73937)
(-7.37508e-14 0.608134 -8.50517)
(-1.14998e-13 0.587959 -9.81596)
(-1.04766e-13 0.654759 -10.9804)
(-8.24762e-14 0.717159 -12.1843)
(-7.34438e-14 0.745478 -13.3893)
(5.02703e-14 0.749711 -14.5828)
(-5.97264e-14 0.731226 -15.7368)
(-2.23858e-13 0.698013 -16.8339)
(-1.39545e-13 0.657113 -17.8598)
(-2.34762e-13 0.614438 -18.8089)
(-1.37376e-13 0.574446 -19.6805)
(-1.26237e-13 0.539493 -20.4796)
(-1.08326e-13 0.510022 -21.2144)
(-1.03939e-13 0.485113 -21.8944)
(7.58481e-15 0.463262 -22.5286)
(-3.56951e-14 0.443055 -23.1246)
(-1.44898e-13 0.423551 -23.6875)
(-1.08357e-13 0.404372 -24.2206)
(-9.71894e-14 0.385576 -24.7256)
(-1.07747e-13 0.367451 -25.2037)
(-1.27755e-13 0.350306 -25.6562)
(-1.31038e-13 0.334333 -26.0845)
(-1.72658e-13 0.319532 -26.4909)
(-8.68956e-14 0.305724 -26.8775)
(-9.25384e-14 0.292604 -27.2466)
(-9.71062e-14 0.279809 -27.6001)
(-9.42702e-14 0.26698 -27.9393)
(-9.45287e-14 0.253794 -28.2653)
(-9.55436e-14 0.239976 -28.5784)
(-9.40804e-14 0.225309 -28.8786)
(-8.84659e-14 0.209657 -29.1656)
(-9.40204e-14 0.192998 -29.4387)
(-7.58204e-14 0.175468 -29.697)
(-1.03195e-13 0.157389 -29.9395)
(-9.91141e-14 0.13928 -30.1655)
(-9.93474e-14 0.121821 -30.3743)
(-1.00103e-13 0.105793 -30.566)
(-1.0011e-13 0.091952 -30.7415)
(-1.02779e-13 0.0808915 -30.9028)
(-7.83914e-14 0.0729027 -31.0523)
(-9.86079e-14 0.0679354 -31.1925)
(-9.35898e-14 0.0656832 -31.3255)
(-8.15108e-14 0.0656977 -31.4528)
(-9.71666e-14 0.0674815 -31.5768)
(-9.51805e-14 0.0706839 -31.708)
(-9.58253e-14 0.074885 -31.8495)
(-9.73173e-14 0.0762992 -32.0039)
(-9.66801e-14 0.067747 -32.0693)
(-9.61579e-14 0.0509052 -32.8023)
(-9.61704e-14 0.0600503 -32.6563)
(6.05757e-15 0.735735 62.2243)
(-1.1263e-14 0.966187 59.2115)
(-2.3789e-14 1.04107 55.7649)
(-3.47577e-14 1.02225 52.4348)
(-2.41957e-14 0.94498 49.3783)
(-4.43886e-14 0.848151 46.662)
(-2.22304e-14 0.753694 44.3037)
(4.35093e-15 0.667635 42.2679)
(-1.38987e-14 0.592681 40.5027)
(-9.96946e-15 0.524607 38.9722)
(-7.19086e-15 0.448054 37.6654)
(-3.13465e-15 0.356455 36.5913)
(1.34054e-15 0.257436 35.7723)
(-3.04167e-14 0.153716 35.2145)
(-1.87891e-14 0.0469415 34.9232)
(-2.16275e-14 -0.0630527 34.9174)
(-1.11847e-14 -0.178472 35.2381)
(-3.66154e-14 -0.294043 35.9151)
(1.6334e-14 -0.387788 36.896)
(1.12332e-14 -0.42926 38.0215)
(1.4948e-14 -0.397764 39.0826)
(-8.45313e-15 -0.29498 39.9008)
(8.12956e-15 -0.145396 40.3731)
(4.27411e-15 0.021143 40.4719)
(-1.40654e-15 0.170942 40.2395)
(-7.91647e-15 0.332696 39.7087)
(-1.34388e-14 0.538517 38.8536)
(-1.65e-14 0.715266 37.639)
(-1.90656e-14 0.795076 36.2082)
(-1.57574e-14 0.819462 34.7072)
(-1.51761e-14 0.831431 33.2497)
(-8.32263e-14 0.822883 31.8569)
(-6.43173e-14 0.797277 30.5169)
(-6.94896e-14 0.776944 29.2237)
(2.41769e-14 0.775863 27.9579)
(-1.02525e-13 0.793993 26.6864)
(4.34684e-14 0.827205 25.3801)
(-7.28781e-17 0.876457 24.0164)
(-4.43751e-14 0.950276 22.5647)
(9.74801e-14 1.06086 20.9745)
(-3.77607e-15 1.21358 19.1807)
(-7.8116e-14 1.38212 17.1449)
(3.51147e-14 1.52109 14.8951)
(1.58825e-13 1.65121 12.5106)
(3.36524e-14 2.06787 9.78751)
(3.65073e-14 3.33968 6.39594)
(-1.46565e-13 5.07001 2.35286)
(-7.4958e-14 5.41904 -0.955322)
(-1.3283e-13 3.42267 -5.80114)
(2.57859e-14 1.33931 -6.26608)
(-8.21062e-14 0.928254 -7.71795)
(1.2369e-13 0.889029 -9.02356)
(-1.22977e-13 0.956693 -10.227)
(-1.59487e-13 1.0398 -11.4859)
(-2.53045e-14 1.07869 -12.7594)
(-5.23652e-14 1.08589 -14.0373)
(3.33343e-14 1.06288 -15.297)
(-1.99476e-13 1.01887 -16.5217)
(-9.81649e-14 0.962508 -17.6932)
(-1.95488e-13 0.90137 -18.7989)
(-7.8976e-14 0.84162 -19.8293)
(-1.54576e-13 0.78724 -20.7807)
(-5.22255e-14 0.739943 -21.6544)
(-4.22017e-14 0.699578 -22.4561)
(-1.49959e-14 0.664821 -23.1945)
(-1.17606e-13 0.633932 -23.879)
(1.81963e-14 0.605339 -24.5183)
(-1.87582e-15 0.577989 -25.1191)
(-1.26964e-13 0.551435 -25.6856)
(-1.03067e-13 0.525738 -26.2204)
(-1.56857e-13 0.501251 -26.7253)
(-7.70589e-14 0.478372 -27.2017)
(-1.42236e-13 0.457352 -27.6516)
(-5.57261e-14 0.438191 -28.0776)
(-6.91991e-14 0.420644 -28.4828)
(-1.34772e-13 0.404287 -28.8705)
(-5.71676e-14 0.388622 -29.2434)
(-1.27966e-13 0.373157 -29.6042)
(-7.92911e-14 0.357444 -29.9544)
(-7.99627e-14 0.341104 -30.2951)
(-8.29356e-14 0.323841 -30.6268)
(-8.23996e-14 0.305478 -30.9492)
(-7.82761e-14 0.286008 -31.2614)
(-5.54061e-14 0.265641 -31.5622)
(-8.81051e-14 0.24484 -31.8497)
(-7.54783e-14 0.224316 -32.1223)
(-7.6263e-14 0.20498 -32.3785)
(-8.85704e-14 0.187834 -32.6177)
(-8.89525e-14 0.1738 -32.8402)
(-8.46717e-14 0.163528 -33.0474)
(-8.69889e-14 0.157257 -33.2412)
(-8.02408e-14 0.154814 -33.4237)
(-7.64173e-14 0.155705 -33.5965)
(-9.15612e-14 0.159262 -33.7624)
(-8.92914e-14 0.164904 -33.9312)
(-9.74255e-14 0.171857 -34.1063)
(-8.66255e-14 0.175694 -34.2912)
(-9.74374e-14 0.168538 -34.3912)
(-8.91002e-14 0.152137 -35.0875)
(-8.90134e-14 0.161581 -35.0173)
(5.89989e-15 0.955094 63.178)
(-1.23656e-14 1.25618 60.0644)
(-1.1024e-14 1.3606 56.4765)
(-1.64058e-14 1.34077 52.9886)
(-3.19455e-15 1.24306 49.7776)
(8.03425e-15 1.11844 46.9202)
(-2.49347e-14 0.99572 44.4368)
(-3.28502e-15 0.883206 42.2926)
(-6.62492e-15 0.784404 40.4354)
(-4.31913e-15 0.693868 38.8305)
(2.76556e-15 0.593223 37.4739)
(-2.63619e-14 0.473833 36.3601)
(-1.34887e-14 0.344122 35.513)
(-4.97733e-14 0.206584 34.9492)
(-3.02688e-14 0.0612722 34.6975)
(1.05976e-14 -0.0949049 34.8092)
(4.8203e-15 -0.2636 35.3311)
(5.91309e-15 -0.429448 36.2388)
(5.34097e-15 -0.554247 37.3939)
(4.0815e-15 -0.597021 38.5853)
(-7.72405e-17 -0.537805 39.6117)
(-3.05467e-14 -0.386901 40.333)
(-2.11086e-14 -0.180468 40.684)
(-2.14945e-14 0.0422192 40.6606)
(-2.09244e-14 0.240737 40.3192)
(-1.99179e-14 0.459979 39.6724)
(-1.9726e-14 0.735507 38.6908)
(-6.41164e-14 0.957497 37.3465)
(-8.24424e-15 1.04835 35.8052)
(-1.58466e-14 1.07601 34.2207)
(-2.10261e-14 1.08865 32.7)
(-2.82054e-14 1.07408 31.254)
(-3.65371e-14 1.03968 29.8696)
(-6.07178e-14 1.01446 28.5382)
(1.19067e-14 1.01533 27.2365)
(-4.74282e-14 1.04168 25.9287)
(-2.25292e-14 1.08832 24.5853)
(-1.06168e-14 1.15683 23.1837)
(-7.58209e-15 1.25805 21.692)
(-2.39856e-14 1.40624 20.0585)
(-1.02562e-14 1.60629 18.2165)
(1.66641e-14 1.82427 16.1292)
(8.71883e-14 2.01116 13.8398)
(3.89897e-16 2.20518 11.4811)
(8.29428e-15 2.75065 8.98703)
(6.6814e-15 4.17907 6.19533)
(-3.66874e-14 5.96888 2.71338)
(-1.30837e-15 6.50227 -0.62768)
(-1.59203e-13 4.141 -6.00952)
(-1.53907e-14 1.55812 -6.19657)
(-1.00359e-13 1.19914 -7.39031)
(7.7242e-14 1.18799 -8.66049)
(-5.31332e-14 1.26555 -9.88626)
(-4.85443e-14 1.37408 -11.1682)
(-3.68659e-14 1.42995 -12.4771)
(-1.70163e-13 1.44794 -13.8084)
(-9.99245e-14 1.429 -15.1509)
(-1.42604e-13 1.38213 -16.4928)
(-5.17707e-14 1.31623 -17.8146)
(-1.3281e-13 1.23968 -19.0973)
(1.65157e-14 1.15986 -20.3213)
(-1.34138e-13 1.08249 -21.4711)
(-7.6964e-14 1.01118 -22.5369)
(-7.27265e-14 0.947544 -23.5155)
(-6.46158e-14 0.89156 -24.4097)
(6.62237e-14 0.842133 -25.2269)
(-1.18604e-13 0.797678 -25.9766)
(-3.70174e-14 0.756647 -26.6682)
(-1.02848e-13 0.717905 -27.3101)
(-3.90831e-14 0.680907 -27.9084)
(-9.39361e-14 0.645658 -28.4674)
(-7.54852e-14 0.612511 -28.9902)
(-1.47726e-13 0.581894 -29.4796)
(-5.8761e-14 0.554072 -29.9387)
(-6.2279e-14 0.529007 -30.3709)
(-5.99413e-14 0.506349 -30.7801)
(-4.47209e-14 0.485514 -31.1702)
(-1.38774e-13 0.465799 -31.5447)
(-8.92879e-14 0.446471 -31.9063)
(-9.59724e-14 0.426836 -32.2571)
(-1.29036e-13 0.406275 -32.598)
(-8.91975e-14 0.384293 -32.9295)
(-1.22758e-13 0.360586 -33.251)
(-9.4299e-14 0.335121 -33.5613)
(-7.49484e-14 0.308213 -33.8589)
(-9.47438e-14 0.280567 -34.1419)
(-9.63016e-14 0.25326 -34.4088)
(-9.94483e-14 0.227631 -34.6587)
(-1.00557e-13 0.205064 -34.8917)
(-1.23966e-13 0.186698 -35.1087)
(-1.07825e-13 0.173167 -35.3113)
(-1.11931e-13 0.164502 -35.501)
(-1.02264e-13 0.160203 -35.6792)
(-1.08523e-13 0.159432 -35.8481)
(-1.06028e-13 0.161314 -36.0165)
(-1.08537e-13 0.164645 -36.1878)
(-1.18508e-13 0.164648 -36.3657)
(-1.13607e-13 0.153448 -36.461)
(-1.08692e-13 0.131917 -37.0979)
(-1.13085e-13 0.133913 -37.0494)
(6.1711e-15 1.22 64.1354)
(-1.23011e-14 1.59291 60.9723)
(-9.89173e-15 1.72288 57.2548)
(-1.01493e-14 1.69509 53.5943)
(6.49024e-15 1.56993 50.2043)
(5.91331e-15 1.41161 47.183)
(-5.74613e-15 1.25583 44.5593)
(-4.67407e-14 1.11297 42.3008)
(-4.48078e-14 0.987009 40.3553)
(-5.02933e-15 0.870697 38.6885)
(-8.47598e-16 0.743237 37.3024)
(-4.25635e-15 0.59421 36.1773)
(-2.19493e-14 0.431078 35.3385)
(-1.40475e-14 0.254171 34.8203)
(-5.68136e-15 0.0611568 34.6762)
(-1.49552e-16 -0.150692 34.9618)
(1.67636e-15 -0.375287 35.6753)
(1.55109e-14 -0.583109 36.7108)
(-2.41015e-15 -0.724081 37.8805)
(-2.05738e-14 -0.754825 38.9872)
(-3.97826e-14 -0.660585 39.8765)
(-2.58662e-14 -0.459851 40.4503)
(-4.56902e-14 -0.198053 40.6662)
(-6.10146e-14 0.0777872 40.528)
(-3.47999e-14 0.324549 40.0972)
(-5.1812e-14 0.604621 39.3437)
(-3.6508e-14 0.949175 38.2481)
(-2.15526e-14 1.21185 36.7975)
(-9.01017e-15 1.3098 35.1626)
(1.12711e-14 1.33892 33.5075)
(-4.17979e-14 1.34976 31.9379)
(-2.47919e-14 1.32679 30.4541)
(-2.00748e-14 1.28246 29.039)
(-1.91601e-14 1.25225 27.681)
(-9.48964e-14 1.25547 26.3523)
(-8.49177e-14 1.29072 25.0157)
(-1.89584e-14 1.35166 23.6428)
(-1.62475e-14 1.44064 22.2123)
(-1.09544e-14 1.57076 20.6922)
(-2.01034e-14 1.75821 19.0288)
(6.74699e-15 2.00713 17.1508)
(3.88708e-14 2.27387 15.017)
(5.03787e-15 2.5005 12.6843)
(1.2837e-13 2.7286 10.3523)
(-1.3563e-14 3.34964 8.06886)
(-2.02382e-14 4.90756 5.67962)
(-1.7422e-15 6.7906 2.45739)
(-1.63712e-14 7.59686 -0.880171)
(-1.46179e-13 4.87162 -6.1604)
(-1.14961e-13 1.74549 -6.58537)
(-4.97891e-14 1.43958 -7.79413)
(-5.64702e-14 1.48418 -9.13394)
(-7.13842e-14 1.57297 -10.4717)
(-8.15269e-14 1.70217 -11.8076)
(-1.07082e-13 1.77563 -13.1424)
(-1.12585e-13 1.81002 -14.4814)
(-1.04981e-13 1.80512 -15.8357)
(-1.19032e-13 1.76749 -17.2108)
(-3.53982e-14 1.70386 -18.5973)
(-1.00901e-13 1.62151 -19.9776)
(-7.3022e-14 1.52789 -21.3274)
(-1.56298e-13 1.42998 -22.6222)
(-1.18585e-13 1.33347 -23.8409)
(-1.42056e-13 1.24237 -24.9698)
(-6.4988e-14 1.15894 -26.0025)
(-4.80333e-14 1.08382 -26.9401)
(-6.36124e-14 1.01649 -27.789)
(-5.22259e-14 0.955689 -28.5588)
(-8.79e-14 0.900039 -29.2601)
(-1.44127e-14 0.848425 -29.9026)
(-1.19276e-13 0.800254 -30.4941)
(-7.89514e-14 0.755455 -31.041)
(-8.27443e-14 0.714277 -31.548)
(-8.03153e-14 0.677016 -32.0194)
(-1.28911e-13 0.643764 -32.4592)
(-9.09024e-14 0.614283 -32.8714)
(-8.44653e-14 0.588006 -33.2602)
(-1.30996e-13 0.564123 -33.6295)
(-9.15938e-14 0.541701 -33.9827)
(-8.91881e-14 0.519779 -34.3223)
(-9.17924e-14 0.497456 -34.6503)
(-1.21237e-13 0.473954 -34.9678)
(-1.22701e-13 0.448709 -35.275)
(-1.37255e-13 0.42147 -35.5718)
(-1.41156e-13 0.392402 -35.8571)
(-9.07083e-14 0.362153 -36.13)
(-1.13266e-13 0.331855 -36.3895)
(-1.14983e-13 0.303009 -36.635)
(-1.16292e-13 0.277245 -36.8664)
(-1.15028e-13 0.255983 -37.0845)
(-1.34491e-13 0.240109 -37.2901)
(-1.23126e-13 0.229821 -37.4842)
(-1.14812e-13 0.224684 -37.6674)
(-1.17069e-13 0.223811 -37.8415)
(-1.27216e-13 0.226099 -38.014)
(-1.19786e-13 0.230007 -38.1886)
(-1.18049e-13 0.230777 -38.3691)
(-1.1811e-13 0.220979 -38.471)
(-1.2268e-13 0.200291 -39.0701)
(-1.20036e-13 0.200571 -39.0482)
(4.19512e-15 1.43215 64.4773)
(4.93713e-15 1.89562 61.3772)
(-1.40528e-14 2.07147 57.6645)
(-1.25899e-14 2.04958 53.942)
(3.29926e-15 1.90395 50.4504)
(2.87257e-14 1.71419 47.3186)
(9.23622e-15 1.52499 44.5946)
(5.19496e-15 1.35021 42.2563)
(2.1407e-14 1.19497 40.2561)
(2.77075e-14 1.05021 38.5622)
(-4.75683e-15 0.893495 37.1798)
(1.51122e-15 0.713043 36.079)
(-2.2457e-15 0.513238 35.2864)
(1.19008e-15 0.291131 34.8532)
(-3.2979e-15 0.0440177 34.8426)
(2.33425e-14 -0.225176 35.2807)
(7.20023e-15 -0.498636 36.0955)
(-2.92226e-14 -0.735416 37.1264)
(-1.55576e-14 -0.88067 38.1915)
(-2.57467e-14 -0.893268 39.1413)
(1.22885e-14 -0.763459 39.8688)
(-1.28282e-16 -0.515361 40.3011)
(-7.30764e-15 -0.201453 40.4021)
(9.71959e-15 0.123811 40.1736)
(5.2361e-15 0.418896 39.6799)
(5.47098e-16 0.765614 38.8294)
(1.78168e-14 1.17606 37.6267)
(2.84339e-14 1.47438 36.0896)
(-1.19415e-15 1.57755 34.378)
(7.0319e-14 1.60692 32.6658)
(1.41333e-14 1.61321 31.0585)
(2.17937e-15 1.57957 29.5462)
(-1.04582e-14 1.52468 28.1079)
(-1.81215e-14 1.48986 26.7275)
(-2.25981e-14 1.49608 25.3731)
(-2.76838e-14 1.54079 24.007)
(-1.31534e-14 1.61639 22.6036)
(7.21605e-15 1.72623 21.1453)
(8.53637e-15 1.88594 19.6009)
(-2.74305e-15 2.11399 17.915)
(3.34272e-14 2.41411 16.0088)
(-4.13141e-14 2.73016 13.8306)
(-2.50898e-14 2.98761 11.4455)
(-7.18637e-14 3.21605 9.12705)
(-3.8697e-14 3.88367 7.03797)
(-3.52377e-14 5.58658 4.89616)
(1.2049e-14 7.59888 1.81695)
(-3.28569e-14 8.62545 -1.53539)
(-8.93419e-14 5.60334 -6.34061)
(-1.08668e-13 2.01214 -7.36915)
(-1.66679e-13 1.72154 -8.94851)
(-2.66245e-13 1.82082 -10.5714)
(-1.0055e-13 1.90712 -12.2179)
(-1.00267e-13 2.03145 -13.7395)
(-1.02503e-13 2.10267 -15.1677)
(-9.48759e-14 2.14103 -16.5179)
(-7.39061e-14 2.14658 -17.8294)
(-1.65699e-13 2.12235 -19.1349)
(-3.23838e-14 2.07028 -20.4492)
(-9.79501e-14 1.9937 -21.7714)
(-1.08457e-13 1.89753 -23.0866)
(-1.25255e-13 1.78821 -24.3722)
(-1.2777e-13 1.67249 -25.6041)
(-1.90502e-13 1.5565 -26.7618)
(-1.22966e-13 1.44508 -27.8314)
(-1.63252e-13 1.34135 -28.8061)
(-2.20231e-14 1.24676 -29.6866)
(-5.15482e-14 1.16136 -30.4789)
(-1.33391e-13 1.08426 -31.1925)
(-9.79362e-14 1.01427 -31.8378)
(-1.31071e-13 0.950348 -32.4247)
(-3.63872e-14 0.89188 -32.9617)
(1.36599e-14 0.838673 -33.4555)
(-2.5327e-14 0.790765 -33.9114)
(-5.59762e-14 0.748155 -34.3341)
(-9.97055e-14 0.710601 -34.7277)
(-1.4541e-13 0.677527 -35.096)
(-1.47018e-13 0.648053 -35.4427)
(-1.01722e-13 0.621093 -35.771)
(-1.02107e-13 0.595466 -36.0837)
(-1.24154e-13 0.570001 -36.3828)
(-1.10275e-13 0.543645 -36.6698)
(-1.29692e-13 0.515559 -36.9455)
(-1.3321e-13 0.485253 -37.2103)
(-1.2126e-13 0.452704 -37.464)
(-1.17906e-13 0.418458 -37.7063)
(-1.13366e-13 0.383645 -37.9371)
(-1.04988e-13 0.349874 -38.1561)
(-1.22216e-13 0.318967 -38.3639)
(-1.10109e-13 0.292573 -38.561)
(-1.08261e-13 0.271782 -38.7482)
(-1.13314e-13 0.256916 -38.926)
(-1.06393e-13 0.247569 -39.0945)
(-1.12595e-13 0.242776 -39.2544)
(-1.11328e-13 0.241149 -39.4128)
(-1.1865e-13 0.240782 -39.5728)
(-1.09416e-13 0.237149 -39.7384)
(-1.14706e-13 0.223556 -39.8281)
(-1.11516e-13 0.198757 -40.384)
(-1.11646e-13 0.194053 -40.3621)
(-3.26118e-15 1.65247 64.5517)
(7.59782e-15 2.20422 61.4916)
(-3.01097e-15 2.42263 57.7861)
(3.90861e-15 2.40715 54.0311)
(1.19612e-14 2.24268 50.4822)
(7.53272e-15 2.0223 47.2891)
(1.63188e-15 1.79926 44.5142)
(3.91431e-14 1.59121 42.1437)
(2.51809e-14 1.4048 40.134)
(1.62884e-14 1.2293 38.455)
(6.33904e-15 1.04128 37.1111)
(1.99026e-15 0.827412 36.0624)
(-2.49018e-15 0.587672 35.3398)
(-8.68464e-15 0.315917 35.0079)
(-7.93544e-15 0.0124221 35.1218)
(-3.87035e-14 -0.309665 35.6534)
(-1.95949e-14 -0.620807 36.4673)
(-5.61354e-15 -0.874609 37.3916)
(9.1727e-15 -1.01727 38.2881)
(1.58439e-14 -1.01103 39.0616)
(1.86922e-14 -0.848719 39.638)
(2.65716e-14 -0.557316 39.9531)
(4.71522e-15 -0.194717 39.9658)
(-4.29014e-15 0.176566 39.6721)
(1.50174e-14 0.521849 39.1302)
(1.65138e-14 0.941617 38.1996)
(7.1109e-14 1.41417 36.8889)
(1.80859e-14 1.74138 35.2829)
(1.43717e-14 1.84912 33.5102)
(1.5773e-15 1.87831 31.7541)
(-1.4779e-15 1.87778 30.1175)
(-8.77439e-15 1.83168 28.5818)
(-1.44812e-14 1.76607 27.123)
(-1.96735e-14 1.72753 25.7204)
(-1.5289e-14 1.73782 24.3374)
(-7.51205e-14 1.79263 22.9362)
(-1.84947e-14 1.88294 21.4959)
(1.28149e-15 2.0133 20.0045)
(6.90792e-15 2.20237 18.4335)
(7.47823e-15 2.47177 16.7262)
(9.30189e-15 2.82589 14.7947)
(5.15076e-15 3.1935 12.5714)
(-1.01919e-13 3.47178 10.1204)
(-9.82669e-14 3.66961 7.801)
(-5.37859e-14 4.36735 5.90564)
(-4.44092e-14 6.22495 3.99523)
(8.98726e-15 8.39166 1.18387)
(3.89971e-14 9.57708 -2.49015)
(-8.21522e-15 6.34217 -6.6662)
(-4.39307e-14 2.42937 -8.29616)
(-2.26351e-14 2.12651 -10.4983)
(-1.79462e-13 2.26217 -12.6013)
(-1.15027e-13 2.32181 -14.7069)
(-1.2812e-13 2.40102 -16.528)
(-1.29292e-13 2.43336 -18.128)
(-1.22744e-13 2.44531 -19.536)
(-1.30487e-14 2.4393 -20.814)
(-1.37005e-13 2.41552 -22.0167)
(-9.13136e-14 2.37069 -23.1832)
(-1.51595e-13 2.30263 -24.3354)
(-1.16004e-13 2.21169 -25.4783)
(-1.32508e-13 2.10135 -26.6042)
(-1.39872e-13 1.97731 -27.698)
(-1.39746e-13 1.84622 -28.7426)
(-1.42422e-13 1.7145 -29.7228)
(-1.49046e-13 1.58744 -30.6281)
(-1.05901e-13 1.46868 -31.4539)
(-7.44028e-14 1.36008 -32.2016)
(-9.23173e-14 1.26196 -32.8768)
(-8.92117e-14 1.17364 -33.4875)
(-1.29135e-13 1.09404 -34.0426)
(-8.84697e-14 1.02221 -34.5502)
(-8.64521e-14 0.957508 -35.0171)
(-9.73953e-14 0.899603 -35.4489)
(-1.4601e-13 0.84824 -35.85)
(-8.44331e-14 0.80304 -36.2242)
(-9.35221e-14 0.763356 -36.5748)
(-1.17449e-13 0.728246 -36.9051)
(-1.22275e-13 0.696531 -37.2178)
(-1.18858e-13 0.666899 -37.5158)
(-9.36319e-14 0.638024 -37.8013)
(-8.48977e-14 0.608681 -38.0762)
(-1.24153e-13 0.577875 -38.3421)
(-1.07617e-13 0.544981 -38.6001)
(-1.23705e-13 0.509881 -38.8509)
(-1.11905e-13 0.473074 -39.095)
(-1.10194e-13 0.435695 -39.3324)
(-1.09981e-13 0.399402 -39.5634)
(-1.07888e-13 0.366097 -39.7878)
(-1.08687e-13 0.337512 -40.0059)
(-1.09845e-13 0.314806 -40.2176)
(-9.4832e-14 0.298345 -40.4228)
(-9.27357e-14 0.28776 -40.6212)
(-1.05633e-13 0.282101 -40.8131)
(-1.15941e-13 0.279855 -41.0049)
(-1.17997e-13 0.278978 -41.2001)
(-1.13773e-13 0.275534 -41.4026)
(-1.10385e-13 0.263361 -41.5346)
(-1.1585e-13 0.238125 -42.1008)
(-1.14006e-13 0.22893 -42.1266)
(-2.3032e-14 1.86427 64.4023)
(-1.77246e-14 2.50804 61.3892)
(-2.63129e-14 2.77299 57.7033)
(-2.03367e-14 2.76559 53.9347)
(-6.03274e-15 2.58244 50.3558)
(-4.48905e-15 2.33085 47.1365)
(-1.68405e-14 2.07284 44.3505)
(-9.20144e-15 1.83012 41.9886)
(-5.93821e-15 1.61097 40.0081)
(-3.60139e-14 1.40325 38.3784)
(-2.24421e-14 1.18298 37.0968)
(-2.79301e-14 0.934713 36.1148)
(-2.3969e-14 0.652801 35.4739)
(-2.00048e-14 0.32911 35.2457)
(-1.18648e-14 -0.0284679 35.4505)
(1.06767e-15 -0.394032 35.9948)
(6.9082e-15 -0.730654 36.7131)
(2.74539e-14 -0.993332 37.466)
(3.62645e-14 -1.13197 38.1733)
(5.52013e-15 -1.11028 38.782)
(1.86373e-14 -0.920455 39.2336)
(2.01901e-14 -0.590106 39.4601)
(4.81171e-15 -0.181617 39.4092)
(9.18672e-14 0.233603 39.0707)
(2.58675e-14 0.632245 38.4847)
(9.0677e-15 1.13108 37.4927)
(6.28885e-16 1.66285 36.0782)
(2.27225e-14 2.01029 34.4164)
(3.84127e-15 2.12283 32.5942)
(-5.17407e-15 2.15203 30.805)
(3.24907e-14 2.14287 29.1456)
(6.61871e-15 2.08303 27.59)
(-6.49122e-15 2.00703 26.1123)
(5.31653e-14 1.96616 24.6866)
(1.38688e-14 1.9821 23.271)
(-2.03473e-14 2.04795 21.828)
(-2.06752e-14 2.15287 20.3428)
(-8.21111e-15 2.30291 18.81)
(-7.13232e-15 2.52036 17.2054)
(-2.56e-15 2.83128 15.472)
(-5.5484e-14 3.24252 13.5114)
(-3.39016e-14 3.66561 11.2362)
(-3.19415e-14 3.95836 8.69865)
(-6.82373e-14 4.07671 6.35027)
(-6.00627e-14 4.76934 4.78557)
(-5.42329e-14 6.78096 3.29135)
(1.02721e-14 9.19734 0.389783)
(4.40151e-14 10.4939 -3.95734)
(4.61167e-14 7.03787 -7.14255)
(-2.18086e-14 2.99704 -9.08225)
(-8.02429e-14 2.70069 -12.0304)
(-1.15808e-13 2.843 -14.696)
(-1.1863e-13 2.84181 -17.2413)
(-1.31835e-13 2.83478 -19.3387)
(-1.31749e-13 2.79363 -21.104)
(-1.35289e-13 2.74942 -22.5872)
(-6.87726e-14 2.70618 -23.8636)
(-1.26382e-13 2.66174 -24.9961)
(-8.37866e-14 2.60874 -26.0355)
(-7.77997e-14 2.54032 -27.0181)
(-7.71453e-14 2.45217 -27.966)
(-1.31126e-13 2.34398 -28.8892)
(-1.37629e-13 2.2188 -29.7878)
(-1.51341e-13 2.082 -30.6565)
(-9.94652e-14 1.93994 -31.4874)
(-1.18908e-13 1.79881 -32.2727)
(-7.67313e-14 1.66368 -33.0073)
(-8.368e-14 1.53795 -33.6892)
(-1.00538e-13 1.42322 -34.3196)
(-8.57475e-14 1.31962 -34.9022)
(-1.24803e-13 1.22643 -35.4417)
(-8.59994e-14 1.14266 -35.943)
(-8.94953e-14 1.06748 -36.4106)
(-8.72737e-14 1.00028 -36.8485)
(-8.48617e-14 0.940607 -37.2597)
(-1.25244e-13 0.887977 -37.6471)
(-1.32994e-13 0.841701 -38.0133)
(-1.0245e-13 0.80084 -38.3611)
(-1.06695e-13 0.764214 -38.6931)
(-1.14585e-13 0.730485 -39.0121)
(-8.03215e-14 0.69826 -39.3207)
(-1.00046e-13 0.666211 -39.6213)
(-1.1523e-13 0.633209 -39.9158)
(-1.41609e-13 0.598462 -40.2056)
(-1.05992e-13 0.561668 -40.4914)
(-1.11517e-13 0.523131 -40.7731)
(-1.20105e-13 0.48381 -41.0503)
(-1.21487e-13 0.44524 -41.3219)
(-1.24446e-13 0.409281 -41.5869)
(-1.27135e-13 0.377732 -41.8442)
(-1.32152e-13 0.351892 -42.0931)
(-1.28171e-13 0.332296 -42.3329)
(-1.22875e-13 0.318714 -42.5632)
(-1.26298e-13 0.31024 -42.7843)
(-1.22708e-13 0.305206 -43.002)
(-1.3187e-13 0.301269 -43.2198)
(-1.37551e-13 0.294613 -43.4416)
(-1.36158e-13 0.278476 -43.5939)
(-1.40578e-13 0.243339 -44.1454)
(-1.43321e-13 0.217396 -44.1888)
(3.33107e-15 2.04756 64.0586)
(-2.77118e-15 2.78425 61.1028)
(-6.72284e-15 3.10724 57.4599)
(-1.5132e-14 3.11634 53.7034)
(3.93651e-15 2.91828 50.1209)
(6.72108e-16 2.6362 46.9042)
(2.11625e-14 2.34251 44.1376)
(3.57017e-16 2.06392 41.8144)
(1.85431e-15 1.81082 39.8906)
(9.76243e-16 1.5702 38.3317)
(-2.56515e-14 1.31759 37.1242)
(-3.39296e-15 1.03401 36.219)
(-1.03795e-14 0.708061 35.6701)
(-2.77669e-14 0.333244 35.5299)
(4.88357e-15 -0.071059 35.7613)