/*--------------------------------*- C++ -*----------------------------------*\
| =========                 |                                                 |
| \\      /  F ield         | OpenFOAM: The Open Source CFD Toolbox           |
|  \\    /   O peration     | Version:  4.1                                   |
|   \\  /    A nd           | Web:      www.OpenFOAM.org                      |
|    \\/     M anipulation  |                                                 |
\*---------------------------------------------------------------------------*/
FoamFile
{
    version     2.0;
    format      ascii;
    class       volScalarField;
    location    "300";
    object      k;
}
// * * * * * * * * * * * * * * * * * * * * * * * * * * * * * * * * * * * * * //

dimensions      [0 2 -2 0 0 0 0];

internalField   nonuniform List<scalar> 
6820
(
0.257082
0.434211
0.598524
0.709391
0.778165
0.818087
0.838612
0.845996
0.844517
0.837167
0.826041
0.812606
0.797884
0.782588
0.767204
0.752059
0.737365
0.723259
0.709819
0.697085
0.685073
0.673779
0.663189
0.65328
0.644028
0.635406
0.627385
0.619945
0.613036
0.606755
0.600532
0.596993
0.584163
0.811272
1.4461
1.51869
1.38788
1.22323
1.07763
0.959256
0.864619
0.788699
0.727214
0.676892
0.635293
0.600593
0.571418
0.546712
0.52566
0.507621
0.492087
0.478647
0.466973
0.456791
0.447879
0.440048
0.433143
0.427031
0.421597
0.416744
0.412385
0.408439
0.40485
0.401495
0.39847
0.395257
0.368871
0.664167
0.79743
0.829382
0.816558
0.786241
0.750355
0.713926
0.678974
0.646237
0.615926
0.58803
0.562444
0.539023
0.517606
0.498029
0.480134
0.463772
0.448804
0.435103
0.422552
0.411045
0.400486
0.390789
0.381875
0.373673
0.366119
0.359153
0.352723
0.346781
0.341275
0.336177
0.331407
0.240027
0.336284
0.41216
0.460202
0.48707
0.49996
0.503967
0.50242
0.497427
0.4903
0.481871
0.472689
0.463123
0.453424
0.443768
0.434274
0.425023
0.416068
0.407444
0.39917
0.391254
0.383698
0.376499
0.369649
0.363139
0.356955
0.351085
0.345516
0.340233
0.335224
0.330473
0.325969
0.321693
0.214144
0.250644
0.284532
0.312064
0.332923
0.347992
0.358421
0.365282
0.369449
0.371583
0.372179
0.371608
0.37015
0.368023
0.365394
0.362393
0.359123
0.355665
0.352083
0.348429
0.344742
0.341053
0.337389
0.333768
0.330205
0.326712
0.323298
0.319968
0.316728
0.313579
0.310523
0.307561
0.304692
0.205639
0.221932
0.238608
0.253646
0.266421
0.276879
0.28524
0.291808
0.296881
0.300718
0.303534
0.305507
0.306783
0.307484
0.30771
0.307544
0.307053
0.306297
0.305323
0.304173
0.302879
0.301473
0.299977
0.298412
0.296797
0.295145
0.293468
0.291778
0.290083
0.288391
0.286706
0.285035
0.283382
0.202356
0.210373
0.219395
0.228093
0.235939
0.242762
0.248579
0.253484
0.257584
0.260982
0.263771
0.266033
0.267839
0.269252
0.270324
0.271102
0.271625
0.271929
0.272043
0.271994
0.271803
0.271493
0.271078
0.270576
0.269999
0.269358
0.268665
0.267928
0.267155
0.266353
0.265529
0.264686
0.263832
0.201008
0.205095
0.210223
0.215514
0.220523
0.225059
0.229077
0.232597
0.235661
0.238314
0.240598
0.242554
0.244218
0.245624
0.2468
0.247771
0.248562
0.249192
0.24968
0.250041
0.250291
0.250441
0.250504
0.250489
0.250407
0.250264
0.250069
0.249829
0.249549
0.249236
0.248893
0.248525
0.248137
0.200424
0.202504
0.205451
0.208741
0.212024
0.215112
0.217933
0.220473
0.222744
0.224764
0.226551
0.228128
0.229514
0.230726
0.231783
0.232699
0.233488
0.234162
0.234732
0.23521
0.235603
0.235921
0.236171
0.23636
0.236495
0.23658
0.236622
0.236625
0.236595
0.236534
0.236447
0.236337
0.236207
0.200163
0.20119
0.202857
0.204892
0.207052
0.209172
0.211174
0.213024
0.214715
0.21625
0.217636
0.218884
0.220004
0.221005
0.221898
0.222693
0.223397
0.224019
0.224566
0.225044
0.22546
0.225819
0.226127
0.226389
0.226608
0.226789
0.226936
0.227053
0.227143
0.227208
0.227253
0.227279
0.227288
0.200044
0.200518
0.201424
0.20265
0.204045
0.205488
0.206902
0.208248
0.209508
0.210674
0.211746
0.212727
0.213622
0.214436
0.215174
0.215842
0.216445
0.216988
0.217476
0.217914
0.218305
0.218654
0.218965
0.21924
0.219483
0.219697
0.219886
0.220051
0.220195
0.220321
0.220431
0.220526
0.220609
0.199989
0.200175
0.200634
0.201337
0.202207
0.203162
0.204141
0.205106
0.206034
0.206913
0.207736
0.208502
0.209211
0.209865
0.210466
0.211018
0.211524
0.211986
0.212409
0.212794
0.213144
0.213463
0.213753
0.214016
0.214255
0.214473
0.214671
0.214852
0.215017
0.215168
0.215308
0.215438
0.215559
0.199965
0.200003
0.200205
0.200576
0.201087
0.201691
0.202345
0.203016
0.203684
0.204333
0.204954
0.205543
0.206097
0.206616
0.2071
0.207549
0.207967
0.208353
0.208711
0.209041
0.209346
0.209628
0.209888
0.210129
0.210352
0.210559
0.210751
0.210931
0.2111
0.211259
0.211409
0.211553
0.211691
0.199954
0.199917
0.199975
0.200143
0.200415
0.20077
0.201182
0.201628
0.20209
0.202553
0.203009
0.20345
0.203874
0.204277
0.204659
0.205018
0.205357
0.205674
0.205971
0.206249
0.206509
0.206752
0.20698
0.207193
0.207394
0.207584
0.207763
0.207933
0.208096
0.208252
0.208404
0.20855
0.208693
0.199949
0.199876
0.199855
0.199902
0.200021
0.200205
0.200442
0.200718
0.201018
0.201332
0.201652
0.20197
0.202283
0.202587
0.202879
0.203159
0.203427
0.203681
0.203922
0.204151
0.204368
0.204573
0.204768
0.204953
0.205129
0.205298
0.20546
0.205617
0.205769
0.205917
0.206063
0.206206
0.206346
0.199947
0.199856
0.199793
0.199771
0.199796
0.199867
0.199982
0.200132
0.200309
0.200506
0.200715
0.200931
0.201151
0.201369
0.201584
0.201795
0.201999
0.202196
0.202387
0.202569
0.202745
0.202914
0.203077
0.203234
0.203385
0.203532
0.203675
0.203816
0.203954
0.204091
0.204227
0.204362
0.204497
0.199946
0.199847
0.199762
0.199702
0.19967
0.199671
0.199703
0.199764
0.199851
0.199957
0.20008
0.200214
0.200355
0.200502
0.200651
0.2008
0.200949
0.201095
0.201239
0.20138
0.201518
0.201653
0.201784
0.201914
0.20204
0.202165
0.202289
0.202412
0.202536
0.202659
0.202784
0.202909
0.203035
0.199946
0.199842
0.199748
0.199666
0.199603
0.19956
0.199539
0.199541
0.199563
0.199603
0.199659
0.199728
0.199808
0.199895
0.199988
0.200085
0.200185
0.200287
0.20039
0.200493
0.200596
0.2007
0.200803
0.200905
0.201009
0.201112
0.201217
0.201322
0.20143
0.20154
0.201652
0.201766
0.201882
0.199946
0.199841
0.199741
0.199649
0.199567
0.199499
0.199446
0.199409
0.199387
0.199381
0.199389
0.199409
0.19944
0.19948
0.199528
0.199582
0.199641
0.199705
0.199772
0.199841
0.199914
0.199989
0.200065
0.200144
0.200225
0.200308
0.200394
0.200483
0.200575
0.200671
0.20077
0.200873
0.200978
0.199946
0.19984
0.199737
0.19964
0.199549
0.199467
0.199395
0.199334
0.199284
0.199246
0.19922
0.199205
0.1992
0.199204
0.199216
0.199236
0.199262
0.199294
0.199331
0.199373
0.199419
0.199468
0.199522
0.199579
0.19964
0.199705
0.199774
0.199847
0.199925
0.200007
0.200094
0.200185
0.200279
0.199946
0.199839
0.199736
0.199636
0.199541
0.199451
0.199368
0.199292
0.199225
0.199167
0.199119
0.199079
0.199049
0.199027
0.199013
0.199006
0.199007
0.199014
0.199027
0.199046
0.19907
0.199099
0.199133
0.199172
0.199216
0.199265
0.199319
0.199378
0.199443
0.199512
0.199588
0.199668
0.199752
0.199946
0.199839
0.199735
0.199634
0.199536
0.199442
0.199353
0.19927
0.199193
0.199123
0.19906
0.199005
0.198958
0.198918
0.198886
0.198861
0.198843
0.198832
0.198827
0.198829
0.198836
0.198849
0.198868
0.198893
0.198923
0.198958
0.199
0.199047
0.199101
0.19916
0.199225
0.199296
0.199371
0.199946
0.199839
0.199735
0.199633
0.199534
0.199438
0.199346
0.199259
0.199176
0.1991
0.199029
0.198965
0.198907
0.198857
0.198813
0.198777
0.198747
0.198723
0.198707
0.198696
0.198692
0.198694
0.198703
0.198717
0.198737
0.198763
0.198796
0.198834
0.198879
0.19893
0.198987
0.19905
0.199118
0.199946
0.199839
0.199735
0.199632
0.199533
0.199436
0.199343
0.199254
0.199169
0.19909
0.199015
0.198947
0.198885
0.19883
0.19878
0.198738
0.198702
0.198673
0.19865
0.198633
0.198623
0.198619
0.198621
0.19863
0.198644
0.198665
0.198691
0.198724
0.198764
0.198809
0.198861
0.198918
0.19898
0.199946
0.199839
0.199734
0.199632
0.199533
0.199436
0.199343
0.199254
0.199169
0.19909
0.199016
0.198947
0.198885
0.19883
0.19878
0.198738
0.198702
0.198672
0.198649
0.198631
0.198621
0.198616
0.198617
0.198624
0.198638
0.198657
0.198682
0.198713
0.19875
0.198793
0.198842
0.198896
0.198955
0.199946
0.199839
0.199735
0.199633
0.199534
0.199438
0.199346
0.199259
0.199177
0.1991
0.19903
0.198966
0.198909
0.198858
0.198815
0.198778
0.198747
0.198723
0.198705
0.198694
0.198688
0.198688
0.198693
0.198704
0.198721
0.198743
0.19877
0.198803
0.198841
0.198885
0.198934
0.198988
0.199045
0.199946
0.199839
0.199735
0.199634
0.199536
0.199443
0.199354
0.199272
0.199196
0.199127
0.199065
0.199012
0.198965
0.198926
0.198895
0.19887
0.198852
0.19884
0.198834
0.198834
0.198839
0.19885
0.198865
0.198885
0.19891
0.198939
0.198973
0.199011
0.199054
0.199101
0.199153
0.199209
0.199267
0.199946
0.19984
0.199736
0.199637
0.199543
0.199454
0.199373
0.199301
0.199237
0.199183
0.199138
0.199102
0.199075
0.199057
0.199046
0.199042
0.199044
0.199052
0.199066
0.199084
0.199107
0.199134
0.199164
0.199198
0.199235
0.199276
0.19932
0.199367
0.199418
0.199471
0.199528
0.199588
0.199649
0.199946
0.199841
0.19974
0.199645
0.199558
0.199481
0.199416
0.199363
0.199323
0.199295
0.199279
0.199274
0.199279
0.199292
0.199313
0.199341
0.199373
0.199411
0.199452
0.199496
0.199543
0.199591
0.199642
0.199695
0.199749
0.199804
0.199861
0.19992
0.19998
0.200042
0.200106
0.200171
0.200236
0.199947
0.199844
0.199748
0.199664
0.199595
0.199543
0.199509
0.199494
0.199496
0.199515
0.199547
0.199592
0.199646
0.199708
0.199775
0.199846
0.199921
0.199997
0.200073
0.20015
0.200227
0.200303
0.200379
0.200453
0.200526
0.200599
0.200671
0.200742
0.200813
0.200884
0.200955
0.201025
0.201095
0.199948
0.199851
0.199771
0.199713
0.199683
0.199682
0.199711
0.199767
0.199845
0.199941
0.200051
0.200171
0.200297
0.200426
0.200556
0.200685
0.200811
0.200935
0.201055
0.20117
0.201281
0.201387
0.201489
0.201587
0.20168
0.20177
0.201857
0.20194
0.202021
0.202099
0.202175
0.20225
0.202322
0.199951
0.199872
0.199829
0.199835
0.199892
0.199999
0.200148
0.20033
0.200535
0.200754
0.200979
0.201205
0.201428
0.201645
0.201853
0.202051
0.202238
0.202415
0.20258
0.202736
0.202881
0.203017
0.203144
0.203262
0.203373
0.203477
0.203575
0.203666
0.203753
0.203835
0.203913
0.203988
0.204058
0.19996
0.199932
0.199991
0.200148
0.200397
0.200716
0.201083
0.201476
0.201878
0.202274
0.202658
0.203022
0.203363
0.203681
0.203976
0.204247
0.204495
0.204723
0.204932
0.205122
0.205296
0.205454
0.205599
0.205731
0.205851
0.205962
0.206063
0.206155
0.20624
0.206319
0.206391
0.206459
0.206521
0.199989
0.200114
0.200443
0.200957
0.201602
0.202316
0.203049
0.203765
0.204443
0.205071
0.205645
0.206164
0.206632
0.207051
0.207425
0.207759
0.208057
0.208322
0.208557
0.208767
0.208953
0.209119
0.209265
0.209396
0.209511
0.209613
0.209704
0.209783
0.209854
0.209916
0.209971
0.210019
0.210061
0.200096
0.2007
0.201738
0.203048
0.204457
0.20584
0.207122
0.208273
0.209287
0.210171
0.210936
0.211596
0.212163
0.212652
0.213072
0.213434
0.213745
0.214012
0.214241
0.214436
0.214604
0.214745
0.214865
0.214966
0.215049
0.215117
0.215172
0.215215
0.215247
0.21527
0.215285
0.215293
0.215295
0.20052
0.20268
0.205539
0.208494
0.211222
0.213591
0.215574
0.217204
0.218533
0.219613
0.220489
0.221199
0.221776
0.222243
0.222621
0.222926
0.22317
0.223363
0.223514
0.223629
0.223713
0.223771
0.223806
0.223821
0.223818
0.223801
0.223771
0.223729
0.223677
0.223617
0.223548
0.223473
0.223393
0.202177
0.209431
0.217099
0.223347
0.228043
0.231483
0.233976
0.235774
0.237069
0.237997
0.238656
0.239119
0.239435
0.239639
0.239757
0.239808
0.239804
0.239756
0.239672
0.239557
0.239417
0.239254
0.239073
0.238876
0.238665
0.238443
0.23821
0.237969
0.23772
0.237466
0.237206
0.236942
0.236676
0.2085
0.227592
0.245311
0.258685
0.267549
0.272831
0.275651
0.276945
0.277335
0.277195
0.276748
0.276124
0.275399
0.274616
0.2738
0.272967
0.272123
0.271274
0.270422
0.269569
0.268717
0.267867
0.267019
0.266175
0.265337
0.264504
0.263679
0.262861
0.262052
0.261253
0.260464
0.259686
0.25892
0.248312
0.315076
0.348184
0.362187
0.367149
0.367982
0.366714
0.364182
0.360843
0.35701
0.352902
0.348671
0.344425
0.34024
0.336168
0.332242
0.328485
0.324908
0.321517
0.318312
0.315291
0.312449
0.309781
0.307278
0.304935
0.302742
0.300693
0.29878
0.296995
0.295332
0.293783
0.292343
0.291003
0.205355
0.221127
0.238044
0.254121
0.268993
0.282967
0.296252
0.308929
0.32104
0.332613
0.34367
0.354228
0.364305
0.373913
0.383069
0.391787
0.400082
0.407968
0.415462
0.422577
0.429329
0.435733
0.441803
0.447554
0.453
0.458154
0.463029
0.467639
0.471996
0.476113
0.48
0.483668
0.487133
0.628072
0.693948
0.794634
0.916213
1.04778
1.17827
1.30069
1.4106
1.50527
1.58348
1.64546
1.69266
1.72722
1.75142
1.76715
1.77567
1.77755
1.77279
1.76104
1.74179
1.71456
1.67894
1.63461
1.58139
1.51917
1.4479
1.36768
1.27876
1.1817
1.07748
0.967686
0.854673
0.741666
0.632756
0.532693
0.446414
0.378317
0.331464
0.307121
0.305111
0.325101
0.368205
0.438136
0.542191
0.691105
0.893397
1.14559
1.4298
1.72233
2.00348
2.26126
2.49012
2.68854
2.85712
2.99744
3.11151
3.20149
3.26958
3.31796
3.3488
3.36427
3.36653
3.35776
3.34011
3.31566
3.28637
3.25396
3.21992
3.18542
3.15134
3.11824
3.08648
3.05621
3.02745
3.00014
2.97418
2.94945
2.92582
2.90319
2.88145
2.86051
2.84033
2.82082
2.80197
2.78372
2.76607
2.74898
2.73246
2.71648
2.70106
2.68618
2.67185
2.65807
2.64484
2.63216
2.62004
2.60847
2.59742
2.5868
2.57541
0.391717
0.394575
0.404469
0.421461
0.445869
0.477306
0.51456
0.556085
0.600369
0.646123
0.692358
0.738359
0.783573
0.827461
0.86936
0.908386
0.943412
0.973135
0.996191
1.01131
1.01748
1.01397
1.00045
0.976939
0.943762
0.901533
0.851131
0.793704
0.730698
0.663893
0.595432
0.527802
0.463761
0.406157
0.357659
0.320438
0.295917
0.284753
0.287181
0.303687
0.335763
0.386491
0.461063
0.567725
0.717627
0.919243
1.16917
1.45018
1.73947
2.01804
2.2741
2.50209
2.70032
2.86921
3.01019
3.12512
3.21607
3.28514
3.33447
3.36619
3.38245
3.38542
3.3773
3.36027
3.33646
3.30785
3.27621
3.24303
3.20949
3.17646
3.1445
3.11392
3.08487
3.05732
3.03122
3.00644
2.98284
2.96029
2.93867
2.91789
2.89785
2.87849
2.85976
2.8416
2.82399
2.80692
2.79035
2.77429
2.75872
2.74366
2.72909
2.71503
2.70147
2.68842
2.6759
2.66389
2.6524
2.64142
2.63083
2.61949
0.326213
0.320817
0.315956
0.311827
0.308758
0.307038
0.306881
0.308463
0.311946
0.317463
0.325121
0.334987
0.347083
0.361346
0.377603
0.395515
0.414551
0.433957
0.452778
0.469905
0.484172
0.494474
0.49988
0.499744
0.493765
0.482018
0.464953
0.443365
0.418348
0.391238
0.363545
0.336864
0.312767
0.292693
0.277852
0.269191
0.267457
0.273383
0.287974
0.312827
0.350469
0.404671
0.480965
0.587684
0.735824
0.933726
1.17847
1.45394
1.73848
2.01368
2.26782
2.49513
2.69367
2.86361
3.00615
3.123
3.21606
3.28735
3.3389
3.37278
3.39109
3.396
3.38968
3.37435
3.35214
3.32506
3.29492
3.26323
3.23118
3.19964
3.16916
3.14006
3.11246
3.08635
3.06162
3.03816
3.01581
2.99445
2.97395
2.95421
2.93513
2.91665
2.89872
2.88129
2.86434
2.84784
2.83179
2.81618
2.80101
2.78627
2.77198
2.75813
2.74474
2.73182
2.71937
2.70741
2.69594
2.68494
2.67431
2.66292
0.316974
0.311793
0.30675
0.301847
0.297121
0.29262
0.288398
0.284516
0.28104
0.278044
0.275602
0.273794
0.272698
0.272383
0.272906
0.274288
0.276509
0.279479
0.283032
0.286915
0.290791
0.294265
0.296919
0.298361
0.298282
0.296499
0.292995
0.287937
0.281667
0.274686
0.267612
0.26114
0.255995
0.252905
0.252594
0.255815
0.26342
0.27647
0.296383
0.325126
0.365432
0.421082
0.497456
0.602585
0.747018
0.938909
1.17606
1.44388
1.72207
1.99284
2.2445
2.471
2.67003
2.84144
2.98619
3.10576
3.20189
3.27643
3.33132
3.36851
3.39004
3.39802
3.39461
3.38199
3.36231
3.33761
3.30969
3.28011
3.25007
3.22045
3.19183
3.16452
3.13863
3.11415
3.09098
3.06899
3.04804
3.02799
3.0087
2.99008
2.97203
2.95449
2.93741
2.92075
2.90449
2.88859
2.87307
2.85791
2.84311
2.82868
2.81463
2.80097
2.78771
2.77487
2.76245
2.75047
2.73894
2.72786
2.71711
2.70558
0.301451
0.297808
0.29419
0.290592
0.287011
0.283452
0.279933
0.276475
0.273106
0.269852
0.266741
0.2638
0.261056
0.258536
0.256265
0.254267
0.252555
0.251134
0.249993
0.249103
0.248413
0.247855
0.247344
0.246793
0.246122
0.245275
0.244239
0.243058
0.24184
0.240766
0.24009
0.240136
0.241297
0.244043
0.248934
0.256655
0.268066
0.284277
0.306752
0.337448
0.378995
0.434942
0.51033
0.612709
0.752018
0.936178
1.16385
1.42217
1.69243
1.9576
2.20601
2.43127
2.6307
2.80376
2.9511
3.07398
3.17391
3.25257
3.31174
3.35326
3.37906
3.39117
3.39168
3.38274
3.3665
3.34498
3.32001
3.29315
3.26565
3.23841
3.21202
3.1868
3.16289
3.14027
3.11886
3.09852
3.0791
3.06048
3.04252
3.02511
3.00819
2.99166
2.9755
2.95966
2.94412
2.92886
2.91388
2.89918
2.88476
2.87063
2.85682
2.84332
2.83016
2.81736
2.80493
2.79288
2.78125
2.77002
2.7591
2.74735
0.281472
0.279275
0.277044
0.274779
0.272472
0.27012
0.267732
0.26532
0.262897
0.260477
0.258074
0.255704
0.253383
0.251127
0.248949
0.246865
0.244887
0.243028
0.241296
0.239699
0.23824
0.236923
0.235749
0.234721
0.233847
0.233147
0.232656
0.232432
0.232565
0.233184
0.234466
0.236642
0.240016
0.244973
0.252009
0.261757
0.275037
0.292915
0.316788
0.348495
0.390464
0.445948
0.519582
0.618343
0.751477
0.926631
1.14335
1.39063
1.65151
1.90984
2.15407
2.37748
2.57697
2.75161
2.90171
3.02824
3.13249
3.21593
3.28016
3.32687
3.35785
3.37503
3.3804
3.37607
3.36412
3.34657
3.32525
3.30175
3.27733
3.25292
3.22915
3.20635
3.1847
3.16419
3.14474
3.12622
3.10851
3.09146
3.07495
3.05888
3.04316
3.02774
3.01257
2.99761
2.98285
2.96827
2.95387
2.93965
2.92563
2.91182
2.89824
2.8849
2.87182
2.85904
2.84657
2.83443
2.82265
2.81123
2.80008
2.78805
0.262818
0.261621
0.260375
0.259081
0.257733
0.256324
0.254858
0.253337
0.25177
0.250163
0.248528
0.246875
0.245216
0.243562
0.241926
0.240322
0.238763
0.237264
0.235839
0.234504
0.233276
0.232174
0.231221
0.230442
0.229873
0.229556
0.229549
0.229925
0.230784
0.232252
0.234496
0.237734
0.242245
0.24839
0.256636
0.267582
0.282005
0.300908
0.325594
0.357753
0.399591
0.454049
0.525336
0.61982
0.746005
0.911226
1.11589
1.35086
1.60104
1.85132
2.09033
2.31112
2.51014
2.68607
2.83886
2.96918
3.07805
3.16673
3.23661
3.28919
3.32613
3.34918
3.36027
3.36137
3.35452
3.3417
3.32473
3.30521
3.28441
3.2633
3.24255
3.22254
3.20344
3.18529
3.16803
3.15154
3.1357
3.12038
3.10546
3.09085
3.07647
3.06225
3.04816
3.03417
3.02025
3.00641
2.99264
2.97895
2.96536
2.95189
2.93855
2.92538
2.91239
2.89962
2.88709
2.87484
2.8629
2.85126
2.83984
2.82748
0.247658
0.247073
0.246444
0.245772
0.245052
0.244278
0.243447
0.242559
0.241618
0.240627
0.239592
0.23852
0.23742
0.236303
0.235181
0.234067
0.232977
0.231926
0.230933
0.230017
0.229201
0.228509
0.227971
0.227622
0.227502
0.227665
0.228176
0.229116
0.230588
0.232724
0.235691
0.239703
0.245034
0.252031
0.261143
0.272941
0.288157
0.307726
0.332847
0.365057
0.406337
0.459323
0.527797
0.617505
0.736195
0.89085
1.08266
1.30433
1.54264
1.78368
2.0164
2.23365
2.43151
2.60825
2.76346
2.89748
3.01106
3.10522
3.18113
3.2401
3.2836
3.31322
3.33074
3.33803
3.33703
3.32966
3.3177
3.30276
3.28613
3.26881
3.2515
3.23463
3.21841
3.2029
3.18807
3.17383
3.16005
3.14664
3.13347
3.12046
3.10754
3.09465
3.08175
3.06881
3.05583
3.0428
3.02973
3.01663
3.00353
2.99043
2.97738
2.96439
2.95151
2.93876
2.92618
2.91381
2.90169
2.88981
2.8781
2.86537
0.236031
0.235799
0.235534
0.235238
0.234905
0.23453
0.234109
0.23364
0.233121
0.232556
0.231945
0.231296
0.230613
0.229907
0.229189
0.228473
0.227774
0.22711
0.226501
0.225971
0.225543
0.225247
0.225115
0.225187
0.225507
0.226133
0.227132
0.228589
0.23061
0.233328
0.23691
0.241567
0.247567
0.255246
0.265034
0.277471
0.293241
0.313209
0.338467
0.370398
0.410767
0.461914
0.527209
0.611784
0.722627
0.866336
1.04478
1.25238
1.47786
1.70854
1.93387
2.14659
2.34246
2.51935
2.67649
2.81391
2.93208
3.03175
3.11388
3.17955
3.23004
3.26676
3.29132
3.30544
3.31095
3.30968
3.30337
3.2936
3.28168
3.26864
3.25521
3.24186
3.22885
3.21628
3.20415
3.19238
3.18089
3.16958
3.15834
3.14709
3.13578
3.12434
3.11275
3.10099
3.08905
3.07693
3.06464
3.0522
3.03964
3.02699
3.01426
3.00151
2.98877
2.97607
2.96347
2.95099
2.93869
2.92657
2.91457
2.90145
0.227279
0.227246
0.227192
0.227116
0.227016
0.226885
0.226721
0.226519
0.226278
0.225997
0.225678
0.225323
0.224939
0.224534
0.224118
0.223704
0.223309
0.222951
0.222653
0.222439
0.222335
0.222374
0.22259
0.223026
0.223728
0.224757
0.226182
0.228089
0.230585
0.233803
0.237907
0.243106
0.249656
0.257883
0.268192
0.28109
0.297211
0.317346
0.342479
0.373842
0.412997
0.462005
0.523842
0.603044
0.705859
0.83846
1.00327
1.1963
1.40812
1.62745
1.84429
2.05143
2.24436
2.42059
2.57902
2.71934
2.84176
2.94678
3.03509
3.10759
3.16531
3.20949
3.24153
3.263
3.27558
3.28101
3.28094
3.27691
3.27023
3.26194
3.25283
3.2434
3.23395
3.22464
3.21548
3.20645
3.19748
3.18847
3.17935
3.17005
3.1605
3.15068
3.14054
3.13009
3.1193
3.1082
3.0968
3.08512
3.0732
3.06105
3.04873
3.03627
3.02372
3.01112
2.99852
2.98597
2.97352
2.96118
2.94889
2.93538
0.220691
0.220769
0.220834
0.220886
0.220923
0.220942
0.220936
0.220905
0.220844
0.220753
0.220631
0.220482
0.22031
0.220123
0.219929
0.219743
0.219581
0.219461
0.219407
0.219445
0.219602
0.219913
0.220415
0.221151
0.222171
0.223536
0.225317
0.227601
0.230494
0.234128
0.238663
0.2443
0.251288
0.259933
0.270616
0.283808
0.30009
0.320175
0.344945
0.375488
0.413171
0.459799
0.517975
0.591672
0.686423
0.807945
0.959077
1.13724
1.33481
1.54189
1.74921
1.9497
2.13865
2.3133
2.47221
2.61477
2.7409
2.85087
2.94514
3.02437
3.08937
3.14118
3.181
3.2102
3.23031
3.24292
3.2496
3.25183
3.25089
3.24784
3.24349
3.23838
3.23286
3.22713
3.22126
3.21524
3.20903
3.20256
3.19577
3.1886
3.18101
3.17297
3.16444
3.15544
3.14596
3.136
3.12561
3.1148
3.10361
3.09208
3.08024
3.06816
3.05587
3.04343
3.0309
3.01832
3.00576
2.99323
2.98066
2.96678
0.215687
0.215825
0.215957
0.216083
0.216201
0.216309
0.216403
0.216479
0.216536
0.216572
0.216587
0.216582
0.216562
0.216534
0.216506
0.216493
0.216509
0.216575
0.216714
0.216951
0.217318
0.217848
0.218581
0.219561
0.22084
0.222478
0.224549
0.22714
0.230354
0.23432
0.239196
0.245171
0.252483
0.26142
0.272335
0.28566
0.301921
0.321758
0.345951
0.375451
0.411448
0.455508
0.50989
0.578041
0.664816
0.775451
0.913063
1.0763
1.2592
1.45328
1.65012
1.84289
2.02681
2.19885
2.35729
2.50125
2.63041
2.74475
2.84454
2.9302
3.00234
3.06176
3.10946
3.14662
3.17457
3.19475
3.20862
3.21756
3.22283
3.22547
3.2263
3.22591
3.2247
3.2229
3.22062
3.2179
3.21471
3.21103
3.2068
3.20198
3.19654
3.19047
3.18373
3.17635
3.16832
3.15966
3.15041
3.1406
3.13027
3.11946
3.10822
3.09661
3.08467
3.07248
3.06008
3.04754
3.03492
3.02225
3.00947
2.99523
0.211842
0.212011
0.212178
0.212345
0.21251
0.212672
0.212827
0.212973
0.213108
0.21323
0.213339
0.213438
0.213529
0.213619
0.213718
0.213837
0.213993
0.214205
0.214497
0.214894
0.215429
0.216135
0.217053
0.218229
0.219716
0.221573
0.223875
0.226706
0.23017
0.234391
0.239519
0.245736
0.253263
0.262369
0.273379
0.286684
0.302756
0.322163
0.345588
0.373856
0.407994
0.44935
0.499868
0.562512
0.641499
0.741572
0.865995
1.01443
1.18244
1.36297
1.54847
1.73251
1.9103
2.07865
2.23559
2.38
2.5113
2.62928
2.73396
2.82556
2.90448
2.9713
3.02681
3.07197
3.10792
3.13593
3.15731
3.17334
3.18522
3.19396
3.20038
3.20511
3.20858
3.21106
3.21269
3.21356
3.21368
3.21304
3.21161
3.20938
3.20631
3.2024
3.19765
3.19206
3.18566
3.17847
3.17052
3.16186
3.15252
3.14256
3.13204
3.12102
3.10954
3.09769
3.08552
3.0731
3.06051
3.04777
3.03482
3.02029
0.208853
0.209035
0.209219
0.209408
0.209599
0.209792
0.209985
0.210175
0.210362
0.210543
0.21072
0.210893
0.211067
0.211247
0.211443
0.211667
0.211933
0.212262
0.212676
0.213202
0.213872
0.21472
0.215787
0.217119
0.218769
0.220797
0.223276
0.226289
0.229937
0.234338
0.239636
0.246002
0.253641
0.2628
0.273775
0.286918
0.302648
0.321463
0.343955
0.370835
0.402981
0.441545
0.488184
0.545424
0.616897
0.706842
0.818551
0.952502
1.10561
1.27218
1.44563
1.61999
1.79059
1.95414
2.10848
2.25228
2.38473
2.50544
2.61421
2.71107
2.79622
2.87004
2.93308
2.98611
3.03007
3.06601
3.0951
3.1185
3.13732
3.15251
3.1649
3.17512
3.18362
3.19071
3.19659
3.20136
3.20507
3.20774
3.20937
3.20996
3.20949
3.20797
3.2054
3.20182
3.19723
3.19168
3.1852
3.17785
3.16967
3.16072
3.15106
3.14075
3.12987
3.11847
3.10665
3.09445
3.08198
3.06925
3.05621
3.04144
0.206506
0.206691
0.206882
0.207079
0.207283
0.207494
0.207709
0.207927
0.208148
0.20837
0.208595
0.208824
0.20906
0.20931
0.209582
0.209888
0.210243
0.210666
0.211179
0.21181
0.212588
0.213549
0.214734
0.216187
0.217962
0.220118
0.222726
0.225868
0.229639
0.234152
0.239543
0.24597
0.253624
0.262729
0.27355
0.286402
0.301652
0.319734
0.341157
0.366526
0.396585
0.432312
0.475107
0.527103
0.591395
0.671729
0.771319
0.891261
1.02965
1.18205
1.34287
1.50672
1.66913
1.82678
1.97739
2.11944
2.25197
2.37436
2.48627
2.58755
2.6782
2.75841
2.82853
2.88911
2.94088
2.98471
3.02157
3.0525
3.07847
3.1004
3.11907
3.1351
3.14896
3.161
3.17144
3.18041
3.18801
3.19427
3.19922
3.20288
3.20525
3.20634
3.20619
3.20481
3.20224
3.19853
3.19371
3.18785
3.18099
3.17321
3.16457
3.15513
3.14498
3.13419
3.12283
3.11098
3.09874
3.08612
3.07309
3.05817
0.204652
0.204833
0.205022
0.205221
0.20543
0.205648
0.205875
0.206111
0.206354
0.206604
0.206863
0.207133
0.207417
0.20772
0.208052
0.208424
0.20885
0.209349
0.209943
0.210657
0.211522
0.212572
0.213847
0.215392
0.217258
0.219505
0.222199
0.225419
0.229257
0.233819
0.239231
0.245641
0.253219
0.262171
0.272731
0.285177
0.299829
0.31706
0.337303
0.361069
0.388984
0.421869
0.460896
0.507851
0.565345
0.636642
0.724801
0.831346
0.955352
1.09356
1.24137
1.39401
1.54731
1.69802
1.84376
1.98291
2.11434
2.2373
2.35129
2.45598
2.55124
2.63706
2.7136
2.78123
2.84044
2.89192
2.93647
2.97493
3.00817
3.03702
3.0622
3.08431
3.10383
3.12111
3.1364
3.14988
3.16164
3.17177
3.18031
3.18729
3.19275
3.1967
3.19918
3.20023
3.1999
3.19823
3.19527
3.19109
3.18575
3.17932
3.17187
3.16347
3.15421
3.14416
3.13342
3.12206
3.11017
3.0978
3.08489
3.06992
0.203182
0.203355
0.203539
0.203734
0.203941
0.204161
0.204394
0.204638
0.204895
0.205164
0.205448
0.205747
0.206067
0.206412
0.206791
0.207215
0.207698
0.208257
0.208915
0.209695
0.210627
0.211745
0.213087
0.214696
0.216624
0.218925
0.221665
0.224919
0.228773
0.233326
0.238694
0.245012
0.252435
0.261145
0.27135
0.283291
0.297245
0.31353
0.332509
0.354611
0.380357
0.410429
0.445801
0.487952
0.53906
0.601937
0.679414
0.773289
0.883421
1.0076
1.14218
1.28307
1.42646
1.56924
1.70904
1.84412
1.97327
2.09561
2.2105
2.31751
2.41633
2.50682
2.58897
2.66293
2.72904
2.78777
2.83972
2.88557
2.92607
2.9619
2.99373
3.02212
3.04752
3.07029
3.09071
3.10895
3.12516
3.13942
3.15181
3.16237
3.17116
3.1782
3.18356
3.18727
3.1894
3.18998
3.1891
3.18681
3.18318
3.17829
3.17222
3.16504
3.15685
3.14772
3.13776
3.12703
3.11565
3.10365
3.091
3.07611
0.202018
0.202181
0.202356
0.202544
0.202747
0.202964
0.203196
0.203444
0.203708
0.20399
0.204289
0.20461
0.204955
0.205332
0.205747
0.206212
0.206739
0.207346
0.208052
0.208882
0.209865
0.211031
0.212417
0.214067
0.216027
0.218352
0.221102
0.224348
0.228171
0.232662
0.237927
0.244088
0.251284
0.259675
0.269443
0.280797
0.293973
0.309237
0.326895
0.3473
0.370881
0.398201
0.430059
0.467666
0.512823
0.567916
0.635506
0.71752
0.814421
0.924894
1.04621
1.17497
1.3078
1.44179
1.57462
1.70452
1.8302
1.9507
2.06528
2.1734
2.27464
2.36872
2.4555
2.53495
2.60722
2.6726
2.7315
2.78444
2.832
2.87474
2.91325
2.94801
2.97945
3.00791
3.03366
3.05691
3.0778
3.09645
3.11293
3.12732
3.13968
3.15006
3.15853
3.16513
3.16994
3.17301
3.17441
3.17423
3.17252
3.16938
3.16489
3.15913
3.15219
3.14416
3.13515
3.12523
3.11451
3.10305
3.09079
3.07612
0.201103
0.201254
0.201419
0.201598
0.201793
0.202004
0.202233
0.20248
0.202747
0.203034
0.203343
0.203678
0.204041
0.20444
0.204882
0.205376
0.205937
0.206578
0.207321
0.208186
0.209202
0.210398
0.21181
0.213477
0.215444
0.217762
0.22049
0.223691
0.22744
0.231821
0.236931
0.242877
0.249783
0.25779
0.267055
0.277756
0.290091
0.304284
0.320585
0.339285
0.360733
0.385386
0.413893
0.447237
0.486886
0.534835
0.593353
0.664378
0.748803
0.846061
0.954255
1.07069
1.19246
1.31692
1.44186
1.56553
1.6866
1.80405
1.91708
2.02507
2.1275
2.22399
2.31427
2.39819
2.47573
2.54699
2.61222
2.67177
2.72603
2.77548
2.82054
2.86165
2.89918
2.93344
2.96469
2.99312
3.0189
3.04214
3.06294
3.08139
3.09756
3.11151
3.12331
3.13304
3.14076
3.14653
3.15045
3.15258
3.15302
3.15184
3.14913
3.14499
3.13951
3.13278
3.1249
3.11597
3.1061
3.09534
3.08364
3.06934
0.200392
0.200532
0.200685
0.200854
0.201039
0.201243
0.201466
0.201709
0.201974
0.202262
0.202576
0.202918
0.203293
0.203706
0.204166
0.20468
0.205263
0.205928
0.206693
0.20758
0.208614
0.209823
0.211241
0.212904
0.214854
0.21714
0.219814
0.222936
0.226574
0.230804
0.235712
0.241394
0.247959
0.255528
0.264235
0.274232
0.285683
0.298773
0.313706
0.330715
0.350084
0.372177
0.397516
0.426886
0.461471
0.502913
0.553176
0.61412
0.686911
0.77158
0.866964
0.971041
1.08142
1.19577
1.31202
1.42851
1.5439
1.65714
1.76739
1.87398
1.97633
2.07398
2.16657
2.25381
2.33556
2.41178
2.48255
2.54803
2.6085
2.66424
2.71561
2.76292
2.80647
2.84654
2.88335
2.91708
2.94789
2.97589
3.0012
3.02391
3.04409
3.06183
3.07719
3.09026
3.10111
3.10982
3.11647
3.12114
3.12393
3.12493
3.12423
3.12191
3.11809
3.11286
3.10632
3.09858
3.08974
3.07986
3.0689
3.05516
0.199854
0.199981
0.200123
0.200281
0.200456
0.200651
0.200866
0.201103
0.201363
0.201648
0.201962
0.202306
0.202686
0.203107
0.203575
0.204101
0.204696
0.205373
0.206149
0.207044
0.208082
0.209288
0.210694
0.212333
0.214245
0.216473
0.219067
0.22208
0.225574
0.229617
0.234284
0.239662
0.245843
0.252931
0.261041
0.270298
0.280839
0.292813
0.306383
0.321738
0.339099
0.358757
0.381121
0.406814
0.436773
0.472329
0.515143
0.566929
0.628996
0.701816
0.784855
0.876727
0.975557
1.07936
1.18628
1.29476
1.40348
1.51143
1.61772
1.72167
1.82267
1.92019
2.01379
2.10313
2.18794
2.26804
2.34338
2.41398
2.47995
2.54145
2.5987
2.6519
2.70128
2.74705
2.78938
2.82844
2.86435
2.89723
2.92719
2.95431