/*--------------------------------*- C++ -*----------------------------------*\
| =========                 |                                                 |
| \\      /  F ield         | OpenFOAM: The Open Source CFD Toolbox           |
|  \\    /   O peration     | Version:  4.1                                   |
|   \\  /    A nd           | Web:      www.OpenFOAM.org                      |
|    \\/     M anipulation  |                                                 |
\*---------------------------------------------------------------------------*/
FoamFile
{
    version     2.0;
    format      ascii;
    class       volScalarField;
    location    "300";
    object      nut;
}
// * * * * * * * * * * * * * * * * * * * * * * * * * * * * * * * * * * * * * //

dimensions      [0 2 -1 0 0 0 0];

internalField   nonuniform List<scalar> 
6820
(
3.54369e-05
5.0672e-05
6.21567e-05
6.89864e-05
7.29404e-05
7.51504e-05
7.62643e-05
7.66614e-05
7.6582e-05
7.61863e-05
7.55838e-05
7.48503e-05
7.40392e-05
7.3188e-05
7.23228e-05
7.14619e-05
7.06179e-05
6.97991e-05
6.9011e-05
6.82569e-05
6.75388e-05
6.68576e-05
6.62132e-05
6.56053e-05
6.50332e-05
6.44961e-05
6.3993e-05
6.35232e-05
6.30842e-05
6.26827e-05
6.22829e-05
6.20567e-05
6.12496e-05
0.00135033
0.000930453
0.000725656
0.00056997
0.000453382
0.000372292
0.000316315
0.000276597
0.000247429
0.00022534
0.00020817
0.000194532
0.000183501
0.000174443
0.000166913
0.000160589
0.000155231
0.000150658
0.000146732
0.000143344
0.000140408
0.000137855
0.000135631
0.00013369
0.000131994
0.000130515
0.000129226
0.000128109
0.000127147
0.000126334
0.000125643
0.000125153
0.00012463
0.00344392
0.00180037
0.00133712
0.00108083
0.000912433
0.000791598
0.000701001
0.000631066
0.000575715
0.000530925
0.000493979
0.000462997
0.000436653
0.000413982
0.000394276
0.000376997
0.000361734
0.000348166
0.000336039
0.000325148
0.000315328
0.000306441
0.000298376
0.000291037
0.000284345
0.000278232
0.000272642
0.000267524
0.000262837
0.000258548
0.00025462
0.000251049
0.000247742
0.00637391
0.00310292
0.00217852
0.00173336
0.00146619
0.00128431
0.00115087
0.00104815
0.000966367
0.000899606
0.000844016
0.000796975
0.000756629
0.000721627
0.000690963
0.000663869
0.000639753
0.000618147
0.00059868
0.000581052
0.00056502
0.00055038
0.000536969
0.000524645
0.000513293
0.000502813
0.000493122
0.000484151
0.000475839
0.000468137
0.000461002
0.000454412
0.000448301
0.00899735
0.0052727
0.00366206
0.00284171
0.00235746
0.00203868
0.00181212
0.0016421
0.00150935
0.00140255
0.00131463
0.00124091
0.00117816
0.00112406
0.00107693
0.00103548
0.000998749
0.000965968
0.000936535
0.000909966
0.000885869
0.000863924
0.000843865
0.000825471
0.000808559
0.000792974
0.000778586
0.000765284
0.000752977
0.000741589
0.000731055
0.000721336
0.000712338
0.0103765
0.00752963
0.00561354
0.00443401
0.00367749
0.00316228
0.00279204
0.00251409
0.00229798
0.00212518
0.00198387
0.00186615
0.00176657
0.00168124
0.00160732
0.00154267
0.00148566
0.00143502
0.00138977
0.0013491
0.00131237
0.00127906
0.00124873
0.00122103
0.00119565
0.00117234
0.00115091
0.00113116
0.00111295
0.00109615
0.00108067
0.0010664
0.00105327
0.0109773
0.00922095
0.00752202
0.00622426
0.00528099
0.00458932
0.00406951
0.00366833
0.00335097
0.00309445
0.00288324
0.00270658
0.00255679
0.00242829
0.00231694
0.00221959
0.00213382
0.00205772
0.0019898
0.00192886
0.00187391
0.00182416
0.00177895
0.00173773
0.00170004
0.0016655
0.00163379
0.00160463
0.00157778
0.00155307
0.0015303
0.00150936
0.00149012
0.0112223
0.01026
0.00902119
0.00786222
0.0068977
0.00612342
0.00550434
0.00500527
0.00459788
0.00426089
0.00397855
0.00373923
0.00353421
0.00335691
0.00320228
0.0030664
0.00294619
0.0028392
0.00274346
0.00265737
0.00257962
0.00250914
0.00244502
0.00238652
0.002333
0.00228392
0.00223885
0.00219739
0.00215921
0.00212402
0.0020916
0.00206177
0.00203433
0.0113196
0.0108285
0.0100354
0.00914726
0.00830344
0.00755805
0.00691903
0.00637647
0.00591579
0.0055229
0.0051857
0.00489426
0.00464062
0.0044184
0.00422246
0.0040487
0.00389377
0.00375495
0.00363002
0.00351712
0.00341472
0.00332153
0.00323647
0.00315863
0.00308723
0.0030216
0.00296118
0.00290548
0.00285408
0.00280662
0.00276281
0.00272238
0.00268509
0.0113579
0.0111186
0.0106545
0.0100468
0.0093931
0.00875787
0.00817217
0.00764615
0.00717945
0.0067672
0.00640319
0.00608115
0.00579537
0.00554083
0.00531325
0.00510897
0.00492494
0.00475853
0.00460756
0.00447017
0.00434476
0.00422999
0.0041247
0.00402789
0.00393872
0.00385645
0.00378042
0.0037101
0.00364498
0.00358469
0.00352884
0.00347712
0.00342923
0.0113728
0.01126
0.0110056
0.0106242
0.0101643
0.00967428
0.00918813
0.00872533
0.00829505
0.00790025
0.00754055
0.0072139
0.00691756
0.0066486
0.00640419
0.0061817
0.00597876
0.00579326
0.00562333
0.00546733
0.00532384
0.0051916
0.00506951
0.0049566
0.00485205
0.0047551
0.0046651
0.00458148
0.00450376
0.00443149
0.00436428
0.00430179
0.00424368
0.0113787
0.0113266
0.0111939
0.0109702
0.010671
0.0103232
0.00995226
0.00957771
0.00921219
0.00886313
0.00853429
0.00822711
0.00794166
0.00767716
0.00743245
0.00720616
0.00699687
0.0068032
0.00662383
0.00645754
0.00630322
0.00615984
0.00602649
0.00590234
0.00578666
0.00567877
0.00557808
0.00548407
0.00539627
0.00531424
0.00523762
0.00516604
0.00509918
0.0113809
0.0113571
0.0112905
0.0111662
0.0109839
0.0107537
0.0104906
0.0102089
0.00992009
0.00963264
0.0093522
0.0090823
0.00882497
0.00858118
0.00835119
0.00813485
0.00793172
0.00774119
0.00756259
0.0073952
0.00723832
0.00709126
0.00695336
0.00682401
0.00670264
0.00658871
0.00648176
0.00638134
0.00628705
0.00619851
0.00611539
0.00603738
0.00596415
0.0113818
0.0113708
0.0113382
0.0112722
0.0111669
0.0110236
0.0108486
0.01065
0.0104362
0.0102142
0.00998967
0.00976676
0.00954842
0.00933664
0.00913268
0.00893729
0.00875081
0.00857335
0.00840481
0.00824498
0.00809356
0.00795023
0.00781463
0.00768638
0.00756513
0.00745052
0.00734222
0.00723991
0.00714329
0.00705206
0.00696595
0.00688472
0.00680808
0.0113822
0.0113768
0.0113611
0.0113271
0.0112691
0.0111844
0.0110743
0.0109423
0.0107931
0.0106315
0.0104619
0.010288
0.0101129
0.00993883
0.00976747
0.0096001
0.00943759
0.00928051
0.00912923
0.00898395
0.00884472
0.00871154
0.00858431
0.00846292
0.00834721
0.00823701
0.00813214
0.0080324
0.00793762
0.0078476
0.00776216
0.00768112
0.00760425
0.0113823
0.0113794
0.0113717
0.0113546
0.0113237
0.0112759
0.01121
0.0111267
0.0110281
0.0109166
0.0107953
0.0106668
0.0105336
0.0103977
0.0102609
0.0101245
0.0099897
0.00985722
0.00972773
0.00960169
0.00947941
0.00936112
0.00924696
0.00913699
0.00903125
0.00892972
0.00883236
0.00873912
0.00864991
0.00856466
0.00848325
0.00840559
0.00833152
0.0113824
0.0113805
0.0113764
0.0113678
0.0113518
0.0113257
0.011288
0.0112379
0.0111757
0.0111027
0.0110202
0.0109299
0.0108334
0.0107325
0.0106285
0.0105226
0.0104158
0.0103092
0.0102032
0.0100987
0.0099959
0.0098953
0.00979713
0.00970162
0.00960891
0.00951913
0.00943234
0.00934858
0.00926788
0.00919024
0.00911563
0.00904401
0.0089753
0.0113824
0.0113809
0.0113785
0.011374
0.0113657
0.0113518
0.0113309
0.0113019
0.0112645
0.0112188
0.0111652
0.0111047
0.0110382
0.0109667
0.0108911
0.0108126
0.0107318
0.0106497
0.0105668
0.0104837
0.0104009
0.0103189
0.0102379
0.0101583
0.0100802
0.0100039
0.00992945
0.00985706
0.00978679
0.0097187
0.00965282
0.00958919
0.00952775
0.0113824
0.0113811
0.0113794
0.0113768
0.0113723
0.0113649
0.0113536
0.0113374
0.0113157
0.0112882
0.0112549
0.0112161
0.0111722
0.0111237
0.0110713
0.0110156
0.0109571
0.0108965
0.0108343
0.0107711
0.0107071
0.0106428
0.0105787
0.0105148
0.0104516
0.0103891
0.0103277
0.0102674
0.0102085
0.0101509
0.0100948
0.0100402
0.00998713
0.0113824
0.0113812
0.0113798
0.011378
0.0113754
0.0113713
0.0113651
0.0113562
0.0113439
0.011328
0.011308
0.0112841
0.0112563
0.0112249
0.01119
0.0111521
0.0111115
0.0110686
0.0110238
0.0109775
0.0109301
0.0108817
0.0108327
0.0107835
0.0107341
0.0106849
0.010636
0.0105875
0.0105397
0.0104927
0.0104465
0.0104012
0.0103568
0.0113824
0.0113812
0.0113799
0.0113785
0.0113767
0.0113743
0.0113708
0.0113658
0.0113589
0.0113498
0.0113382
0.011324
0.011307
0.0112873
0.011265
0.0112402
0.0112131
0.0111839
0.0111529
0.0111203
0.0110863
0.0110512
0.0110151
0.0109784
0.0109412
0.0109036
0.0108659
0.0108282
0.0107907
0.0107534
0.0107164
0.0106799
0.0106439
0.0113824
0.0113812
0.01138
0.0113787
0.0113773
0.0113756
0.0113734
0.0113705
0.0113666
0.0113614
0.0113547
0.0113464
0.0113363
0.0113243
0.0113104
0.0112947
0.0112772
0.0112579
0.0112371
0.0112148
0.0111912
0.0111664
0.0111406
0.011114
0.0110866
0.0110587
0.0110304
0.0110017
0.0109728
0.0109439
0.010915
0.0108862
0.0108575
0.0113824
0.0113812
0.01138
0.0113788
0.0113776
0.0113762
0.0113746
0.0113727
0.0113703
0.0113672
0.0113633
0.0113584
0.0113524
0.0113451
0.0113366
0.0113267
0.0113155
0.011303
0.0112892
0.0112741
0.0112579
0.0112406
0.0112223
0.0112032
0.0111832
0.0111626
0.0111414
0.0111197
0.0110976
0.0110752
0.0110526
0.0110298
0.011007
0.0113824
0.0113812
0.01138
0.0113788
0.0113777
0.0113764
0.0113751
0.0113737
0.011372
0.01137
0.0113674
0.0113643
0.0113606
0.011356
0.0113505
0.0113441
0.0113366
0.0113281
0.0113186
0.0113081
0.0112966
0.011284
0.0112706
0.0112563
0.0112412
0.0112254
0.011209
0.011192
0.0111745
0.0111565
0.0111382
0.0111196
0.0111007
0.0113824
0.0113812
0.01138
0.0113789
0.0113777
0.0113765
0.0113753
0.011374
0.0113726
0.011371
0.0113691
0.0113667
0.0113639
0.0113604
0.0113563
0.0113513
0.0113456
0.011339
0.0113315
0.011323
0.0113137
0.0113035
0.0112923
0.0112804
0.0112677
0.0112542
0.0112401
0.0112253
0.01121
0.0111942
0.011178
0.0111614
0.0111444
0.0113824
0.0113812
0.01138
0.0113789
0.0113777
0.0113765
0.0113753
0.011374
0.0113726
0.0113709
0.0113689
0.0113664
0.0113635
0.0113599
0.0113556
0.0113505
0.0113446
0.0113378
0.0113301
0.0113215
0.011312
0.0113016
0.0112902
0.0112781
0.0112651
0.0112514
0.011237
0.011222
0.0112064
0.0111903
0.0111737
0.0111567
0.0111393
0.0113824
0.0113812
0.01138
0.0113788
0.0113777
0.0113764
0.0113751
0.0113735
0.0113716
0.0113694
0.0113665
0.0113631
0.0113588
0.0113537
0.0113476
0.0113405
0.0113324
0.0113233
0.011313
0.0113017
0.0112894
0.0112761
0.0112619
0.0112467
0.0112308
0.011214
0.0111966
0.0111786
0.01116
0.0111409
0.0111213
0.0111014
0.0110811
0.0113824
0.0113812
0.01138
0.0113788
0.0113775
0.0113761
0.0113743
0.011372
0.011369
0.0113651
0.0113603
0.0113542
0.0113468
0.0113381
0.0113279
0.0113163
0.0113033
0.0112889
0.0112731
0.0112561
0.0112378
0.0112185
0.0111981
0.0111768
0.0111547
0.0111319
0.0111084
0.0110843
0.0110597
0.0110348
0.0110095
0.0109839
0.0109582
0.0113824
0.0113812
0.01138
0.0113787
0.0113771
0.0113749
0.0113719
0.0113678
0.0113622
0.0113548
0.0113454
0.011334
0.0113204
0.0113046
0.0112866
0.0112666
0.0112447
0.011221
0.0111956
0.0111688
0.0111406
0.0111113
0.011081
0.0110498
0.0110179
0.0109854
0.0109524
0.0109191
0.0108855
0.0108517
0.0108179
0.0107839
0.0107501
0.0113824
0.0113812
0.0113799
0.0113782
0.0113755
0.0113715
0.0113654
0.0113568
0.0113451
0.0113301
0.0113116
0.0112896
0.0112642
0.0112356
0.011204
0.0111698
0.0111332
0.0110945
0.0110541
0.0110123
0.0109692
0.0109252
0.0108804
0.0108351
0.0107894
0.0107436
0.0106977
0.0106518
0.0106061
0.0105607
0.0105156
0.0104709
0.0104266
0.0113825
0.0113812
0.0113794
0.0113762
0.0113706
0.0113613
0.0113475
0.0113283
0.0113034
0.0112726
0.0112362
0.0111947
0.0111484
0.0110981
0.0110442
0.0109875
0.0109285
0.0108677
0.0108056
0.0107425
0.010679
0.0106151
0.0105513
0.0104877
0.0104246
0.010362
0.0103001
0.010239
0.0101789
0.0101196
0.0100614
0.0100043
0.00994817
0.0113825
0.0113808
0.0113771
0.0113692
0.0113547
0.0113318
0.0112992
0.0112566
0.0112042
0.011143
0.0110741
0.0109987
0.0109182
0.0108338
0.0107465
0.0106573
0.010567
0.0104763
0.0103857
0.0102958
0.0102068
0.010119
0.0100327
0.00994799
0.00986504
0.00978391
0.00970468
0.00962736
0.00955198
0.00947854
0.00940701
0.00933738
0.00926961
0.0113825
0.0113787
0.0113679
0.0113449
0.0113057
0.0112484
0.0111733
0.0110822
0.0109776
0.0108626
0.0107398
0.010612
0.0104812
0.0103493
0.0102175
0.0100869
0.00995841
0.00983254
0.00970971
0.00959019
0.00947416
0.0093617
0.00925286
0.00914761
0.00904592
0.0089477
0.00885287
0.00876134
0.00867298
0.0085877
0.00850537
0.00842588
0.00834911
0.011382
0.0113691
0.0113326
0.0112635
0.0111591
0.0110227
0.0108606
0.0106803
0.0104885
0.0102911
0.0100923
0.00989541
0.00970275
0.00951578
0.00933541
0.00916214
0.00899617
0.00883753
0.00868608
0.00854161
0.00840384
0.0082725
0.00814725
0.0080278
0.00791381
0.007805
0.00770106
0.00760172
0.00750672
0.00741581
0.00732876
0.00724534
0.00716535
0.0113786
0.0113249
0.0111999
0.0110012
0.0107446
0.0104515
0.0101409
0.00982721
0.00951979
0.00922433
0.00894393
0.00868001
0.00843278
0.00820175
0.00798609
0.00778481
0.00759685
0.00742117
0.00725679
0.00710279
0.0069583
0.00682255
0.00669483
0.00657448
0.00646093
0.00635364
0.00625213
0.00615597
0.00606475
0.00597812
0.00589574
0.00581733
0.00574262
0.0113536
0.0111261
0.0107261
0.0102232
0.00968856
0.00916714
0.0086805
0.00823646
0.00783574
0.00747581
0.00715307
0.00686338
0.00660258
0.00636691
0.00615315
0.00595852
0.00578064
0.00561752
0.00546742
0.00532888
0.00520064
0.00508161
0.00497084
0.0048675
0.00477089
0.00468037
0.00459539
0.00451545
0.00444013
0.00436904
0.00430183
0.00423819
0.00417786
0.0111683
0.0102732
0.0092434
0.0082939
0.00749006
0.00682633
0.00627816
0.00582236
0.00543979
0.00511591
0.00483913
0.00459986
0.00439088
0.0042067
0.0040431
0.00389677
0.00376508
0.0036459
0.00353753
0.00343853
0.00334773
0.00326414
0.00318693
0.00311539
0.0030489
0.00298695
0.00292908
0.00287489
0.00282405
0.00277625
0.00273121
0.00268871
0.00264853
0.00982651
0.00723871
0.00577378
0.00486913
0.00424827
0.00378694
0.00342611
0.00313971
0.00290865
0.00271799
0.00255761
0.00242073
0.00230251
0.00219936
0.00210857
0.00202801
0.00195602
0.00189129
0.00183273
0.00177949
0.00173085
0.00168621
0.00164508
0.00160706
0.00157177
0.00153894
0.00150829
0.00147961
0.0014527
0.0014274
0.00140355
0.00138103
0.00135972
0.00414168
0.00254162
0.00204417
0.00174831
0.00154026
0.00137799
0.00124719
0.00114061
0.00105281
0.000979738
0.000918271
0.000865994
0.00082106
0.000782063
0.000747925
0.000717806
0.00069105
0.000667132
0.000645631
0.000626206
0.000608575
0.000592506
0.000577806
0.00056431
0.000551879
0.000540397
0.000529762
0.000519885
0.000510691
0.000502114
0.000494095
0.000486586
0.000479533
0.000119434
0.000124352
0.000129425
0.000134072
0.000138234
0.000142036
0.00014556
0.000148846
0.00015192
0.000154801
0.000157505
0.000160046
0.000162433
0.000164678
0.000166789
0.000168775
0.000170643
0.000172401
0.000174055
0.000175611
0.000177075
0.000178453
0.000179749
0.000180968
0.000182116
0.000183195
0.00018421
0.000185165
0.000186063
0.000186907
0.000187702
0.000188448
0.00018915
6.6773e-05
7.78706e-05
9.53239e-05
0.000118401
0.000146138
0.000177244
0.000210526
0.000244894
0.000279396
0.000313293
0.000346133
0.000377761
0.000408254
0.000437821
0.000466689
0.000495024
0.000522876
0.000550178
0.000576766
0.000602417
0.000626889
0.000649952
0.000671413
0.000691123
0.000708982
0.000724936
0.000738976
0.000751141
0.000761536
0.000770368
0.000778022
0.000785196
0.000793149
0.000804133
0.000822122
0.000853961
0.000910888
0.00100992
0.00117399
0.00143029
0.00180897
0.00234443
0.00307878
0.00406906
0.00538764
0.00707305
0.00904194
0.011082
0.0129615
0.014534
0.0157568
0.0166558
0.0172862
0.0177078
0.0179741
0.0181296
0.0182092
0.0182405
0.0182442
0.0182364
0.018229
0.0182303
0.0182459
0.0182784
0.0183283
0.0183938
0.0184712
0.0185558
0.0186425
0.0187257
0.018801
0.0188644
0.0189134
0.0189465
0.0189632
0.0189638
0.0189493
0.0189208
0.0188798
0.018828
0.0187667
0.0186976
0.0186219
0.0185408
0.0184556
0.0183671
0.0182762
0.0181837
0.0180903
0.0179966
0.017903
0.01781
0.0177179
0.0176272
0.0175379
0.0174504
0.0173647
0.0172809
0.0171982
0.0171091
0.000124501
0.000125605
0.00012843
0.000133336
0.000140543
0.00015011
0.000161977
0.000176039
0.000192203
0.000210391
0.000230536
0.000252567
0.000276389
0.000301866
0.000328802
0.000356933
0.000385926
0.000415394
0.000444913
0.000474059
0.000502435
0.000529703
0.000555608
0.000579982
0.000602756
0.000623958
0.000643724
0.000662319
0.00068019
0.000698048
0.00071703
0.000738933
0.000766593
0.0008044
0.000858945
0.000939607
0.00105882
0.00123182
0.00147626
0.00181273
0.00226647
0.0028694
0.0036625
0.00470244
0.00606005
0.00776815
0.00973697
0.0117544
0.0135962
0.0151245
0.0163034
0.0171623
0.0177578
0.0181501
0.0183926
0.0185294
0.0185951
0.0186168
0.018615
0.0186055
0.0185997
0.018606
0.0186293
0.018672
0.0187339
0.0188127
0.018904
0.0190025
0.0191023
0.0191974
0.0192829
0.0193547
0.01941
0.0194476
0.0194669
0.0194686
0.0194536
0.0194235
0.0193799
0.0193245
0.0192591
0.0191852
0.0191043
0.0190178
0.0189267
0.0188322
0.0187352
0.0186364
0.0185367
0.0184366
0.0183367
0.0182374
0.0181391
0.0180421
0.0179468
0.0178532
0.0177616
0.0176718
0.0175834
0.0174887
0.000244406
0.000241014
0.000238132
0.000236178
0.000235451
0.000236115
0.000238274
0.000242009
0.000247373
0.00025441
0.000263151
0.000273626
0.000285866
0.000299893
0.000315721
0.000333337
0.00035269
0.000373673
0.000396123
0.000419822
0.000444513
0.00046993
0.000495834
0.000522051
0.000548515
0.000575312
0.000602731
0.000631334
0.000662036
0.000696236
0.000735978
0.000784159
0.000844765
0.0009231
0.00102595
0.0011617
0.00134045
0.00157439
0.00187855
0.00227191
0.00277859
0.00342883
0.00426121
0.00532993
0.00670251
0.00840774
0.0103555
0.0123397
0.0141439
0.0156359
0.0167822
0.0176128
0.0181841
0.0185562
0.0187823
0.0189061
0.0189622
0.0189774
0.0189723
0.0189623
0.018959
0.0189703
0.0190012
0.0190537
0.0191271
0.0192187
0.0193235
0.0194356
0.0195484
0.0196556
0.0197516
0.0198322
0.0198946
0.0199373
0.01996
0.0199633
0.0199486
0.0199174
0.0198717
0.0198133
0.019744
0.0196656
0.0195797
0.0194877
0.0193908
0.0192902
0.0191869
0.0190818
0.0189755
0.0188688
0.0187622
0.0186562
0.0185513
0.0184477
0.0183457
0.0182456
0.0181476
0.0180516
0.0179569
0.017856
0.000441873
0.000435212
0.000429228
0.000424257
0.000420535
0.000418139
0.00041708
0.000417341
0.000418874
0.000421612
0.000425485
0.000430431
0.000436412
0.000443423
0.000451511
0.00046077
0.000471349
0.000483427
0.000497207
0.000512887
0.00053065
0.000550668
0.00057311
0.000598177
0.000626148
0.000657436
0.000692656
0.000732701
0.000778833
0.000832777
0.000896832
0.000973983
0.00106803
0.00118371
0.00132693
0.00150495
0.00172684
0.002004
0.00235087
0.00278565
0.00333097
0.00401446
0.0048714
0.00595243
0.00732089
0.00900283
0.0109122
0.0128531
0.0146184
0.0160792
0.0172013
0.018013
0.0185691
0.0189288
0.0191447
0.0192606
0.0193109
0.0193224
0.0193157
0.0193064
0.0193059
0.0193223
0.0193604
0.019422
0.0195062
0.0196098
0.0197276
0.0198528
0.0199784
0.0200976
0.0202045
0.0202944
0.0203643
0.0204128
0.0204396
0.0204454
0.0204316
0.0204001
0.0203528
0.0202918
0.0202191
0.0201366
0.0200459
0.0199486
0.019846
0.0197393
0.0196297
0.019518
0.019405
0.0192914
0.0191779
0.0190649
0.018953
0.0188424
0.0187335
0.0186265
0.0185216
0.0184189
0.0183177
0.0182102
0.000702844
0.000692983
0.000684087
0.000676444
0.000670288
0.000665705
0.000662712
0.000661285
0.000661356
0.000662825
0.000665569
0.000669464
0.000674398
0.000680291
0.000687113
0.000694898
0.000703761
0.000713897
0.000725589
0.000739193
0.000755133
0.000773891
0.000796006
0.000822076
0.000852779
0.000888904
0.000931396
0.000981417
0.00104041
0.00111019
0.00119302
0.00129174
0.00140991
0.00155197
0.00172347
0.00193138
0.00218447
0.00249378
0.00287305
0.00333926
0.0039129
0.00461854
0.00548788
0.00656762
0.00791658
0.00955912
0.0114161
0.0133053
0.0150295
0.0164624
0.0175668
0.0183671
0.0189155
0.0192694
0.0194809
0.0195933
0.0196411
0.0196513
0.0196446
0.0196369
0.0196396
0.0196609
0.0197055
0.0197754
0.0198695
0.0199843
0.020114
0.0202517
0.0203898
0.0205209
0.0206386
0.0207382
0.0208163
0.0208713
0.020903
0.020912
0.0209
0.0208688
0.0208206
0.0207576
0.020682
0.0205957
0.0205005
0.0203981
0.02029
0.0201774
0.0200614
0.0199431
0.0198233
0.0197027
0.0195821
0.0194619
0.0193427
0.0192249
0.0191087
0.0189945
0.0188825
0.0187727
0.0186645
0.0185501
0.00103941
0.00102498
0.00101193
0.0010005
0.000990878
0.000983174
0.0009774
0.000973531
0.000971495
0.000971183
0.000972471
0.000975229
0.000979346
0.00098474
0.000991381
0.000999305
0.00100863
0.00101956
0.00103239
0.00104752
0.00106542
0.00108667
0.00111193
0.00114194
0.00117757
0.00121979
0.00126975
0.00132878
0.00139847
0.00148074
0.00157793
0.00169289
0.00182918
0.00199119
0.0021844
0.00241565
0.00269344
0.00302827
0.00343295
0.00392287
0.00451615
0.00523423
0.00610536
0.00717223
0.00848914
0.0100796
0.0118734
0.0137035
0.0153843
0.0167911
0.0178825
0.0186776
0.0192247
0.0195787
0.0197907
0.0199037
0.0199523
0.0199634
0.0199583
0.0199528
0.0199588
0.0199847
0.0200353
0.0201125
0.0202153
0.02034
0.0204806
0.0206299
0.0207798
0.0209225
0.0210512
0.0211607
0.0212475
0.0213097
0.021347
0.0213601
0.0213506
0.0213205
0.0212722
0.0212079
0.02113
0.0210404
0.0209412
0.0208341
0.0207206
0.0206022
0.02048
0.0203552
0.0202285
0.0201009
0.0199731
0.0198456
0.0197189
0.0195936
0.0194699
0.0193483
0.0192288
0.0191117
0.0189962
0.0188746
0.00146974
0.00144848
0.00142912
0.00141187
0.00139688
0.00138425
0.00137397
0.001366
0.00136026
0.00135664
0.00135501
0.00135523
0.00135721
0.00136088
0.00136622
0.00137331
0.00138228
0.00139338
0.00140694
0.0014234
0.00144327
0.00146718
0.00149584
0.00153007
0.00157078
0.00161905
0.0016761
0.00174336
0.00182251
0.00191555
0.0020249
0.00215348
0.00230487
0.00248348
0.00269471
0.00294522
0.00324313
0.00359825
0.00402225
0.00452881
0.00513365
0.00585529
0.00671872
0.00776275
0.00903733
0.0105658
0.0122878
0.014053
0.0156876
0.0170691
0.018151
0.0189459
0.0194971
0.0198564
0.0200736
0.020191
0.0202432
0.0202575
0.0202552
0.0202527
0.0202622
0.0202922
0.0203479
0.0204313
0.0205416
0.0206749
0.0208253
0.0209851
0.021146
0.0212998
0.0214394
0.021559
0.0216548
0.0217248
0.0217685
0.0217865
0.0217804
0.0217524
0.0217047
0.0216399
0.0215602
0.021468
0.0213652
0.0212538
0.0211354
0.0210115
0.0208833
0.0207521
0.0206187
0.0204841
0.020349
0.0202141
0.0200799
0.019947
0.0198157
0.0196863
0.0195593
0.0194345
0.0193115
0.0191825
0.00200513
0.0019745
0.0019464
0.00192098
0.00189836
0.0018786
0.00186168
0.00184754
0.00183608
0.00182719
0.00182073
0.00181657
0.00181461
0.0018148
0.00181715
0.00182175
0.00182878
0.00183851
0.00185131
0.00186767
0.00188815
0.0019134
0.0019442
0.00198139
0.00202595
0.00207899
0.0021418
0.00221584
0.00230285
0.0024049
0.00252442
0.00266439
0.00282838
0.00302074
0.00324674
0.00351274
0.00382635
0.00419658
0.00463386
0.0051501
0.00575874
0.00647566
0.0073229
0.00833553
0.00955945
0.0110182
0.0126618
0.0143569
0.0159427
0.0172988
0.0183735
0.0191722
0.019732
0.0201014
0.0203279
0.0204533
0.020512
0.0205315
0.0205336
0.0205349
0.0205479
0.0205817
0.0206417
0.0207302
0.0208466
0.0209871
0.0211458
0.0213149
0.0214859
0.0216502
0.0218002
0.02193
0.0220352
0.0221135
0.0221643
0.022188
0.0221863
0.0221611
0.022115
0.0220504
0.0219698
0.0218756
0.02177
0.0216548
0.0215319
0.0214028
0.021269
0.0211315
0.0209916
0.0208501
0.0207078
0.0205656
0.0204238
0.0202832
0.0201442
0.0200071
0.0198723
0.0197398
0.0196091
0.0194725
0.00264521
0.00260315
0.00256422
0.00252855
0.00249624
0.0024673
0.0024417
0.00241938
0.00240021
0.00238409
0.00237086
0.00236042
0.00235266
0.00234754
0.00234511
0.00234546
0.0023488
0.00235544
0.00236578
0.00238034
0.00239971
0.0024246
0.00245579
0.0024942
0.00254083
0.00259683
0.00266351
0.00274239
0.00283523
0.00294411
0.00307149
0.00322031
0.0033941
0.00359708
0.0038343
0.00411171
0.00443634
0.00481625
0.00526063
0.00577966
0.00638472
0.00708932
0.00791285
0.00888688
0.0100534
0.0114366
0.0129967
0.0146176
0.0161516
0.0174815
0.0185502
0.0193555
0.019928
0.0203115
0.0205514
0.0206883
0.0207564
0.0207833
0.0207912
0.020797
0.0208139
0.0208512
0.0209147
0.0210073
0.0211283
0.0212745
0.0214401
0.0216171
0.021797
0.0219709
0.022131
0.0222707
0.0223855
0.0224727
0.0225312
0.0225615
0.0225649
0.0225436
0.0224999
0.0224365
0.0223558
0.0222604
0.0221525
0.0220342
0.0219073
0.0217736
0.0216344
0.0214912
0.0213449
0.0211968
0.0210475
0.020898
0.0207488
0.0206006
0.0204538
0.0203089
0.0201663
0.020026
0.0198875
0.019743
0.00337776
0.00332313
0.00327217
0.00322498
0.00318162
0.00314209
0.00310636
0.00307434
0.00304593
0.00302101
0.00299944
0.00298113
0.00296598
0.00295398
0.00294517
0.00293969
0.00293777
0.00293972
0.00294599
0.00295711
0.00297371
0.00299652
0.00302636
0.00306417
0.00311098
0.00316798
0.00323649
0.00331805
0.00341444
0.00352773
0.00366036
0.00381522
0.00399571
0.00420587
0.00445043
0.00473489
0.00506558
0.00544963
0.00589495
0.00641015
0.00700473
0.00769016
0.00848346
0.00941292
0.010517
0.0118202
0.013293
0.014836
0.0163153
0.0176173
0.0186804
0.0194944
0.0200827
0.0204841
0.0207411
0.0208929
0.0209733
0.0210099
0.0210251
0.0210366
0.0210577
0.0210983
0.0211648
0.0212602
0.0213847
0.0215351
0.0217059
0.0218894
0.022077
0.0222595
0.022429
0.0225784
0.0227028
0.0227991
0.022866
0.0229035
0.022913
0.0228965
0.0228562
0.0227948
0.022715
0.0226192
0.0225099
0.0223891
0.022259
0.0221211
0.0219771
0.0218285
0.0216764
0.0215218
0.0213658
0.0212092
0.0210528
0.020897
0.0207426
0.02059
0.0204395
0.0202914
0.020145
0.0199927
0.00418089
0.00411383
0.00405081
0.00399191
0.00393718
0.00388661
0.00384017
0.00379778
0.00375936
0.0037248
0.00369398
0.00366681
0.00364325
0.00362328
0.00360699
0.00359452
0.00358612
0.00358214
0.00358304
0.00358937
0.00360177
0.00362101
0.00364792
0.00368346
0.00372868
0.00378479
0.00385313
0.00393524
0.00403288
0.00414811
0.0042833
0.00444125
0.0046252
0.00483893
0.00508682
0.00537384
0.00570561
0.00608831
0.00652865
0.00703381
0.00761166
0.00827192
0.00902949
0.00990961
0.0109473
0.0121677
0.0135504
0.0150124
0.0164337
0.0177056
0.0187626
0.0195864
0.020193
0.0206157
0.0208933
0.0210634
0.021159
0.0212077
0.0212322
0.0212505
0.0212765
0.0213204
0.0213893
0.0214869
0.0216135
0.0217667
0.0219412
0.0221296
0.0223234
0.0225135
0.0226915
0.0228501
0.022984
0.0230897
0.0231653
0.0232109
0.0232273
0.0232164
0.0231805
0.0231222
0.0230441
0.0229489
0.0228389
0.0227166
0.0225838
0.0224425
0.0222943
0.0221408
0.0219832
0.0218227
0.0216604
0.021497
0.0213335
0.0211705
0.0210086
0.0208483
0.0206901
0.0205342
0.02038
0.0202197
0.00502655
0.00494851
0.00487464
0.00480503
0.00473973
0.00467874
0.00462205
0.0045696
0.00452132
0.00447713
0.00443696
0.00440074
0.00436845
0.00434011
0.00431583
0.00429579
0.00428025
0.00426959
0.00426427
0.00426487
0.00427204
0.00428656
0.00430929
0.00434118
0.00438332
0.00443689
0.00450325
0.00458393
0.00468066
0.00479544
0.00493058
0.00508871
0.0052729
0.00548663
0.00573387
0.00601906
0.00634709
0.00672324
0.00715311
0.00764262
0.00819826
0.00882824
0.00954556
0.0103727
0.0113414
0.0124771
0.0137679
0.0151461
0.0165063
0.0177451
0.0187944
0.0196285
0.0202552
0.0207019
0.0210035
0.0211952
0.0213091
0.0213726
0.0214084
0.021435
0.0214667
0.0215144
0.0215856
0.0216845
0.0218123
0.0219669
0.0221436
0.0223354
0.022534
0.0227304
0.0229159
0.0230832
0.0232263
0.0233413
0.0234261
0.0234802
0.0235042
0.0234999
0.0234693
0.023415
0.0233397
0.023246
0.0231364
0.0230133
0.0228787
0.0227347
0.0225831
0.0224253
0.0222628
0.0220969
0.0219286
0.0217589
0.0215886
0.0214186
0.0212495
0.0210818
0.020916
0.0207525
0.0205905
0.0204223
0.00588416
0.0057977
0.00571529
0.00563704
0.00556301
0.00549324
0.00542773
0.00536646
0.0053094
0.0052565
0.00520772
0.00516305
0.00512249
0.00508611
0.00505404
0.00502649
0.00500376
0.00498622
0.00497438
0.0049688
0.00497018
0.00497928
0.00499697
0.00502421
0.0050621
0.0051118
0.00517468
0.00525221
0.0053461
0.00545828
0.00559092
0.00574651
0.00592789
0.00613822
0.00638106
0.00666028
0.00698009
0.00734494
0.00775943
0.0082284
0.00875714
0.00935261
0.0100262
0.0107976
0.0116958
0.012746
0.0139438
0.0152361
0.0165315
0.0177339
0.0187731
0.0196167
0.0202647
0.0207378
0.0210663
0.021283
0.0214184
0.0214994
0.021549
0.0215857
0.0216244
0.0216765
0.0217501
0.02185
0.0219781
0.022133
0.0223106
0.0225044
0.0227063
0.0229076
0.0230996
0.0232747
0.0234265
0.0235508
0.023645
0.0237081
0.0237404
0.0237434
0.0237191
0.0236698
0.0235983
0.0235071
0.0233989
0.0232759
0.0231405
0.0229946
0.0228402
0.0226789
0.0225122
0.0223414
0.0221677
0.0219921
0.0218156
0.0216389
0.0214629
0.0212881
0.021115
0.020944
0.0207745
0.0205985
0.00672391
0.00663236
0.0065445
0.00646048
0.00638038
0.00630426
0.00623217
0.00616413
0.00610014
0.0060402
0.00598432
0.00593252
0.00588486
0.00584145
0.00580244
0.00576807
0.00573867
0.00571465
0.00569651
0.00568484
0.00568034
0.00568377
0.00569601
0.00571802
0.00575088
0.00579576
0.00585397
0.00592697
0.00601639
0.00612407
0.00625206
0.00640266
0.00657845
0.00678229
0.00701728
0.00728679
0.00759438
0.00794373
0.0083386
0.00878286
0.00928088
0.00983851
0.0104656
0.0111797
0.0120067
0.0129714
0.0140758
0.0152802
0.0165075
0.0176692
0.0186951
0.0195467
0.0202162
0.0207174
0.0210757
0.0213205
0.0214807
0.0215825
0.0216484
0.0216974
0.0217447
0.0218023
0.0218788
0.0219798
0.0221078
0.0222621
0.0224394
0.0226337
0.0228376
0.0230425
0.0232399
0.0234218
0.0235818
0.0237151
0.0238186
0.023891
0.0239322
0.0239433
0.0239261
0.0238829
0.0238162
0.0237285
0.0236226
0.0235008
0.0233655
0.0232187
0.0230624
0.0228983
0.0227281
0.0225531
0.0223746
0.0221938
0.0220115
0.0218287
0.0216462
0.0214646
0.0212846
0.0211065
0.0209297
0.0207459
0.00751934
0.0074264
0.00733661
0.00725013
0.00716708
0.00708756
0.00701165
0.00693942
0.00687091
0.00680617
0.00674525
0.00668822
0.00663518
0.00658628
0.00654172
0.00650176
0.00646676
0.00643713
0.00641341
0.00639619
0.00638617
0.00638412
0.00639091
0.0064075
0.00643494
0.00647439
0.00652712
0.00659453
0.00667819
0.0067798
0.00690129
0.00704476
0.00721253
0.00740713
0.00763126
0.00788779
0.00817968
0.00850995
0.00888163
0.00929783
0.00976207
0.0102793
0.0108582
0.0115139
0.0122698
0.0131498
0.0141612
0.0152762
0.0164316
0.0175482
0.0185565