/*--------------------------------*- C++ -*----------------------------------*\
| =========                 |                                                 |
| \\      /  F ield         | OpenFOAM: The Open Source CFD Toolbox           |
|  \\    /   O peration     | Version:  4.1                                   |
|   \\  /    A nd           | Web:      www.OpenFOAM.org                      |
|    \\/     M anipulation  |                                                 |
\*---------------------------------------------------------------------------*/
FoamFile
{
    version     2.0;
    format      ascii;
    class       volScalarField;
    location    "300";
    object      omega;
}
// * * * * * * * * * * * * * * * * * * * * * * * * * * * * * * * * * * * * * //

dimensions      [0 0 -1 0 0 0 0];

internalField   nonuniform List<scalar> 
6820
(
7254.63
8569.05
9629.27
10283.1
10668.5
10886
10996.1
11035.5
11027.6
10988.4
10928.8
10856.4
10776.5
10692.9
10608.1
10523.9
10441.6
10362
10285.6
10212.7
10143.4
10077.8
10016
9957.74
9903.07
9851.85
9803.97
9759.35
9717.75
9679.78
9642
9620.12
9537.42
600.797
1554.19
2092.85
2435.01
2698
2894.59
3032.6
3125.92
3187.57
3227.19
3251.63
3265.75
3272.98
3275.67
3275.43
3273.33
3270.11
3266.25
3262.06
3257.71
3253.32
3248.9
3244.45
3239.92
3235.22
3230.27
3224.92
3219.01
3212.35
3204.59
3195.52
3183.85
3171.44
107.108
368.905
596.377
767.356
894.924
993.233
1070.41
1131.3
1179.36
1217.19
1246.87
1270.05
1288.08
1302.04
1312.8
1321.04
1327.31
1332.04
1335.57
1338.17
1340.04
1341.35
1342.22
1342.75
1343
1343.03
1342.86
1342.51
1341.98
1341.26
1340.33
1339.09
1337.71
37.6577
108.377
189.193
265.496
332.201
389.282
437.9
479.341
514.739
545.016
570.927
593.104
612.087
628.336
642.247
654.157
664.355
673.09
680.571
686.977
692.461
697.151
701.157
704.571
707.469
709.915
711.963
713.653
715.018
716.081
716.859
717.343
717.582
23.8008
47.5361
77.6971
109.815
141.221
170.694
197.791
222.448
244.774
264.934
283.105
299.463
314.177
327.405
339.293
349.975
359.573
368.195
375.943
382.903
389.156
394.772
399.814
404.336
408.387
412.009
415.238
418.104
420.634
422.847
424.761
426.377
427.735
19.8177
29.4745
42.5058
57.2046
72.4464
87.5566
102.162
116.069
129.192
141.502
153.001
163.71
173.66
182.891
191.443
199.359
206.679
213.444
219.693
225.463
230.788
235.699
240.226
244.395
248.231
251.756
254.989
257.947
260.644
263.094
265.305
267.286
269.048
18.4341
22.8147
29.1671
36.6458
44.6771
52.8972
61.0833
69.1006
76.8685
84.3388
91.4842
98.2913
104.756
110.881
116.673
122.14
127.296
132.151
136.719
141.013
145.046
148.832
152.381
155.707
158.819
161.728
164.443
166.972
169.323
171.501
173.514
175.364
177.053
17.9114
19.9899
23.3032
27.4113
31.9706
36.7539
41.6174
46.4704
51.2542
55.9305
60.4737
64.8674
69.1012
73.1696
77.07
80.802
84.3673
87.7685
91.0093
94.0936
97.0262
99.8116
102.455
104.96
107.333
109.576
111.696
113.694
115.575
117.341
118.996
120.54
121.975
17.7059
18.701
20.4726
22.8201
25.5345
28.4613
31.4976
34.5761
37.6525
40.6966
43.6877
46.6113
49.4575
52.2195
54.8929
57.4751
59.9645
62.3608
64.6643
66.8757
68.9965
71.028
72.9719
74.8301
76.6043
78.2964
79.908
81.441
82.8969
84.277
85.582
86.8124
87.9697
17.6233
18.0949
19.0395
20.3938
22.043
23.8839
25.8406
27.8602
29.9069
31.9556
33.9887
35.9938
37.962
39.8866
41.7633
43.5886
45.3604
47.0773
48.7385
50.3435
51.8924
53.3854
54.8228
56.2052
57.5334
58.8078
60.0293
61.1987
62.3165
63.383
64.3987
65.3641
66.2796
17.5896
17.808
18.302
19.0744
20.0747
21.2407
22.5184
23.8671
25.257
26.6667
28.081
29.4885
30.8812
32.2528
33.5989
34.9162
36.2022
37.4552
38.6739
39.8574
41.0052
42.117
43.1925
44.2319
45.2352
46.2025
47.1342
48.0304
48.8913
49.717
50.5078
51.2639
51.9854
17.5758
17.6731
17.9236
18.3532
18.9492
19.6802
20.5121
21.415
22.3654
23.3453
24.3413
25.3432
26.3434
27.3362
28.3172
29.283
30.2312
31.1598
32.0673
32.9527
33.8151
34.654
35.4689
36.2595
37.0258
37.7675
38.4848
39.1774
39.8455
40.489
41.1081
41.7028
42.2732
17.5702
17.6103
17.7322
17.9628
18.3075
18.7554
19.2881
19.8862
20.5325
21.2125
21.915
22.6311
23.3538
24.0778
24.7988
25.5136
26.2196
26.9149
27.5978
28.2671
28.9219
29.5615
30.1852
30.7926
31.3835
31.9575
32.5145
33.0543
33.5769
34.0821
34.5701
35.0406
35.4938
17.5678
17.5816
17.6372
17.7554
17.9472
18.2127
18.5446
18.9323
19.3644
19.8306
20.3219
20.8309
21.3516
21.8791
22.4095
22.9397
23.4671
23.9899
24.5063
25.0151
25.5152
26.0058
26.4862
26.9559
27.4145
27.8616
28.297
28.7204
29.1317
29.5307
29.9175
30.2918
30.6537
17.5669
17.5687
17.5912
17.648
17.7495
17.9004
18.0997
18.3433
18.6247
18.9374
19.2749
19.6315
20.0024
20.3833
20.7709
21.1622
21.555
21.9472
22.3373
22.724
23.1062
23.483
23.8537
24.2178
24.5746
24.9239
25.2653
25.5984
25.9232
26.2395
26.547
26.8458
27.1356
17.5665
17.563
17.5694
17.5939
17.644
17.7252
17.8396
17.9865
18.1635
18.367
18.5928
18.8371
19.0961
19.3667
19.6459
19.9313
20.2207
20.5125
20.8051
21.0973
21.388
21.6763
21.9615
22.2429
22.5202
22.7927
23.0601
23.3222
23.5787
23.8294
24.0741
24.3127
24.545
17.5663
17.5605
17.5593
17.5673
17.5894
17.6299
17.6917
17.776
17.8825
18.0098
18.1558
18.318
18.4942
18.6817
18.8786
19.0828
19.2926
19.5065
19.7231
19.9413
20.1601
20.3786
20.5963
20.8124
21.0264
21.2378
21.4464
21.6517
21.8535
22.0516
22.2457
22.4358
22.6216
17.5662
17.5594
17.5548
17.5546
17.5619
17.5796
17.6102
17.6554
17.716
17.7919
17.8822
17.9859
18.1015
18.2275
18.3625
18.5049
18.6534
18.8069
18.9641
19.1243
19.2864
19.4497
19.6136
19.7776
19.941
20.1035
20.2646
20.4242
20.5818
20.7373
20.8904
21.041
21.1888
17.5662
17.559
17.5528
17.5488
17.5485
17.5539
17.5668
17.5886
17.6205
17.6628
17.7157
17.7788
17.8514
17.9328
18.022
18.1181
18.2202
18.3274
18.4387
18.5536
18.6712
18.7909
18.9122
19.0345
19.1574
19.2806
19.4036
19.5261
19.6479
19.7688
19.8885
20.0069
20.1237
17.5662
17.5588
17.5519
17.5461
17.5422
17.5413
17.5445
17.5529
17.5675
17.5889
17.6176
17.6535
17.6967
17.7467
17.8031
17.8654
17.933
18.0053
18.0818
18.1619
18.245
18.3307
18.4185
18.5079
18.5987
18.6905
18.7829
18.8757
18.9687
19.0616
19.1542
19.2464
19.3379
17.5662
17.5587
17.5516
17.545
17.5393
17.5352
17.5333
17.5344
17.5391
17.548
17.5617
17.5803
17.604
17.6328
17.6665
17.7049
17.7477
17.7947
17.8453
17.8994
17.9564
18.0161
18.0782
18.1422
18.208
18.2751
18.3435
18.4128
18.4829
18.5535
18.6245
18.6956
18.7668
17.5662
17.5587
17.5514
17.5445
17.538
17.5324
17.528
17.5252
17.5245
17.5263
17.5311
17.5391
17.5505
17.5656
17.5843
17.6066
17.6324
17.6615
17.6938
17.7291
17.7672
17.8078
17.8507
17.8957
17.9426
17.9911
18.0411
18.0924
18.1449
18.1983
18.2525
18.3073
18.3626
17.5662
17.5587
17.5514
17.5443
17.5375
17.5312
17.5255
17.5208
17.5173
17.5153
17.5151
17.517
17.5212
17.528
17.5373
17.5493
17.564
17.5815
17.6015
17.6241
17.6491
17.6765
17.706
17.7375
17.771
17.8062
17.843
17.8813
17.9209
17.9618
18.0037
18.0465
18.0902
17.5662
17.5587
17.5513
17.5442
17.5373
17.5306
17.5245
17.5189
17.514
17.5102
17.5075
17.5063
17.5066
17.5088
17.5129
17.5191
17.5275
17.538
17.5507
17.5656
17.5826
17.6018
17.6229
17.646
17.671
17.6977
17.7261
17.756
17.7873
17.82
17.8539
17.8889
17.925
17.5662
17.5587
17.5513
17.5441
17.5372
17.5305
17.5242
17.5183
17.513
17.5085
17.505
17.5026
17.5016
17.502
17.5041
17.5079
17.5135
17.5211
17.5307
17.5422
17.5558
17.5712
17.5886
17.6079
17.629
17.6518
17.6762
17.7022
17.7297
17.7585
17.7887
17.82
17.8524
17.5662
17.5587
17.5513
17.5442
17.5373
17.5306
17.5244
17.5188
17.5138
17.5097
17.5066
17.5047
17.5043
17.5053
17.5081
17.5126
17.5191
17.5274
17.5378
17.5501
17.5643
17.5806
17.5987
17.6186
17.6403
17.6638
17.6889
17.7155
17.7436
17.773
17.8038
17.8357
17.8688
17.5662
17.5587
17.5514
17.5443
17.5375
17.5312
17.5256
17.5207
17.5169
17.5143
17.5133
17.5139
17.5164
17.5209
17.5275
17.5362
17.5472
17.5603
17.5757
17.5933
17.6129
17.6346
17.6583
17.6838
17.7111
17.7402
17.7708
17.8029
17.8364
17.8713
17.9073
17.9445
17.9827
17.5662
17.5587
17.5515
17.5446
17.5383
17.5328
17.5285
17.5256
17.5246
17.5258
17.5293
17.5355
17.5445
17.5564
17.5712
17.5889
17.6094
17.6326
17.6585
17.6868
17.7175
17.7505
17.7855
17.8224
17.8611
17.9014
17.9432
17.9865
18.0309
18.0766
18.1233
18.1709
18.2193
17.5662
17.5588
17.5518
17.5455
17.5404
17.5369
17.5358
17.5375
17.5427
17.5516
17.5647
17.582
17.6036
17.6294
17.6593
17.693
17.7304
17.7712
17.8151
17.8619
17.9112
17.9629
18.0166
18.0722
18.1295
18.1882
18.2481
18.3092
18.3713
18.4341
18.4977
18.5619
18.6265
17.5662
17.559
17.5527
17.548
17.546
17.5476
17.554
17.5661
17.5844
17.6093
17.641
17.6793
17.724
17.7746
17.8307
17.8917
17.9572
18.0266
18.0994
18.1752
18.2536
18.3341
18.4165
18.5003
18.5855
18.6715
18.7584
18.8459
18.9338
19.0219
19.1102
19.1986
19.2868
17.5663
17.5598
17.5555
17.5553
17.5614
17.5756
17.5996
17.6343
17.6801
17.7369
17.8041
17.8809
17.9664
18.0595
18.1593
18.2648
18.375
18.4892
18.6065
18.7265
18.8484
18.9717
19.0961
19.2212
19.3467
19.4722
19.5975
19.7226
19.8471
19.971
20.0941
20.2163
20.3376
17.5665
17.5622
17.5642
17.5769
17.6044
17.6494
17.7135
17.7968
17.8982
18.0161
18.1486
18.2935
18.4488
18.6126
18.7831
18.9589
19.1386
19.3212
19.5056
19.6911
19.8771
20.0629
20.2482
20.4325
20.6156
20.7971
20.977
21.155
21.331
21.5049
21.6767
21.8463
22.0137
17.5674
17.5706
17.5925
17.6421
17.7253
17.8439
17.9967
18.1802
18.39
18.6213
18.8697
19.1313
19.4026
19.6808
19.9634
20.2487
20.5349
20.821
21.1059
21.3887
21.669
21.9462
22.22
22.4901
22.7563
23.0184
23.2763
23.5301
23.7796
24.0249
24.266
24.5029
24.7357
17.5706
17.6016
17.6873
17.8415
18.0661
18.3546
18.6959
19.0786
19.492
19.9271
20.3765
20.8344
21.2962
21.7587
22.2192
22.6759
23.1273
23.5724
24.0105
24.4412
24.864
25.2788
25.6854
26.0838
26.4741
26.8563
27.2305
27.5968
27.9554
28.3065
28.6502
28.9868
29.3162
17.5854
17.722
18.0126
18.4569
19.0288
19.6948
20.4244
21.1935
21.9845
22.7844
23.5842
24.3773
25.1594
25.9276
26.6804
27.4167
28.136
28.838
29.5228
30.1905
30.8414
31.4758
32.0942
32.697
33.2845
33.8573
34.4157
34.9603
35.4915
36.0097
36.5154
37.0089
37.4907
17.6614
18.2166
19.1625
20.3942
21.8011
23.2996
24.8343
26.371
27.8893
29.3765
30.8244
32.2289
33.5893
34.9059
36.18
37.4129
38.6064
39.7619
40.8811
41.9655
43.0164
44.0354
45.0237
45.9826
46.9133
47.817
48.6947
49.5474
50.3762
51.1821
51.9659
52.7285
53.4707
18.1027
20.3862
23.4869
26.929
30.446
33.9103
37.2682
40.4946
43.5805
46.5209
49.318
51.984
54.5301
56.9661
59.3004
61.5402
63.6917
65.7604
67.7512
69.6685
71.5161
73.2977
75.0167
76.6762
78.2792
79.8282
81.3259
82.7748
84.177
85.5348
86.8501
88.1249
89.3612
21.2181
31.441
42.4872
53.1275
62.9785
72.0454
80.4559
88.2071
95.3483
101.985
108.206
114.067
119.608
124.862
129.851
134.599
139.121
143.433
147.551
151.487
155.252
158.857
162.313
165.629
168.814
171.875
174.82
177.656
180.39
183.028
185.575
188.038
190.421
59.9544
123.966
170.33
207.163
238.369
267.043
294.031
319.287
342.744
364.394
384.311
402.626
419.488
435.054
449.467
462.858
475.342
487.023
497.989
508.319
518.081
527.335
536.133
544.521
552.538
560.221
567.6
574.703
581.555
588.176
594.587
600.804
606.846
1719.4
1778.23
1839.25
1895.41
1945.93
1992.22
2035.26
2075.49
2113.22
2148.64
2181.96
2213.3
2242.8
2270.58
2296.73
2321.36
2344.55
2366.39
2386.96
2406.33
2424.56
2441.73
2457.89
2473.11
2487.43
2500.91
2513.59
2525.53
2536.76
2547.32
2557.25
2566.59
2575.38
9406.06
8911.56
8336.15
7738.22
7169.79
6647.7
6178.29
5760.02
5387.59
5054.31
4753.84
4480.76
4230.75
4000.32
3786.57
3587.05
3399.57
3222.21
3053.29
2891.34
2735.03
2583.17
2434.59
2288.15
2142.74
1997.28
1850.78
1702.43
1551.73
1398.65
1243.78
1088.48
935.091
786.88
647.949
522.757
415.328
328.208
261.606
213.321
179.716
157.055
142.308
133.247
128.276
126.31
126.698
129.02
132.88
137.848
143.511
149.505
155.531
161.348
166.764
171.626
175.817
179.249
181.864
183.633
184.556
184.666
184.028
182.735
180.904
178.667
176.164
173.526
170.869
168.289
165.856
163.614
161.59
159.79
158.209
156.835
155.65
154.636
153.772
153.041
152.425
151.909
151.479
151.124
150.834
150.599
150.413
150.27
150.162
150.088
150.041
150.02
150.021
150.043
150.084
150.142
150.216
150.306
150.411
150.529
3146.29
3141.4
3149.34
3160.88
3172.47
3179.7
3176.75
3158.87
3123.61
3071.06
3003.26
2923.42
2835.03
2741.15
2644.02
2544.98
2444.54
2342.68
2239.07
2133.31
2025.09
1914.22
1800.64
1684.43
1565.75
1444.86
1322.2
1198.37
1074.26
951.071
830.414
714.276
604.965
504.919
416.393
341.034
279.478
231.165
194.533
167.53
148.143
134.694
125.888
120.73
118.419
118.335
120.076
123.373
127.938
133.428
139.486
145.79
152.064
158.082
163.663
168.657
172.952
176.461
179.128
180.925
181.854
181.953
181.29
179.963
178.097
175.831
173.307
170.663
168.016
165.463
163.072
160.888
158.931
157.208
155.711
154.425
153.331
152.408
151.635
150.994
150.467
150.037
149.691
149.418
149.207
149.049
148.937
148.864
148.825
148.816
148.832
148.871
148.931
149.008
149.102
149.211
149.334
149.47
149.62
149.782
1334.72
1331.11
1326.81
1320.3
1311.34
1300.38
1287.93
1274.6
1261.03
1247.84
1235.49
1224.25
1214.14
1204.92
1196
1186.53
1175.4
1161.33
1143.02
1119.3
1089.22
1052.23
1008.16
957.27
900.184
837.838
771.411
702.268
631.911
561.933
493.962
429.587
370.242
317.076
270.824
231.722
199.528
173.644
153.295
137.693
126.132
118.02
112.87
110.261
109.783
111.055
113.801
117.826
122.914
128.785
135.132
141.666
148.133
154.321
160.052
165.184
169.604
173.224
175.988
177.867
178.864
179.016
178.393
177.097
175.256
173.012
170.514
167.899
165.291
162.785
160.451
158.332
156.448
154.803
153.388
152.187
151.18
150.344
149.658
149.102
148.659
148.312
148.047
147.852
147.716
147.631
147.59
147.585
147.612
147.665
147.742
147.84
147.955
148.085
148.23
148.387
148.556
148.737
148.929
149.133
717.342
716.415
714.656
711.473
706.53
699.816
691.47
681.736
670.943
659.478
647.737
636.093
624.863
614.274
604.428
595.282
586.633
578.12
569.244
559.411
547.989
534.378
518.084
498.785
476.376
450.992
423.003
392.98
361.653
329.843
298.397
268.116
239.69
213.654
190.36
169.983
152.545
137.959
126.074
116.714
109.707
104.891
102.118
101.233
102.039
104.29
107.775
112.337
117.802
123.939
130.484
137.179
143.789
150.112
155.979
161.249
165.807
169.567
172.467
174.477
175.596
175.86
175.338
174.132
172.371
170.201
167.77
165.221
162.679
160.24
157.977
155.931
154.124
152.558
151.225
150.107
149.183
148.43
147.827
147.354
146.991
146.723
146.534
146.414
146.351
146.337
146.364
146.424
146.514
146.629
146.764
146.918
147.086
147.267
147.461
147.664
147.878
148.101
148.333
148.575
428.902
429.748
430.047
429.588
428.191
425.793
422.405
418.088
412.949
407.125
400.772
394.047
387.094
380.037
372.96
365.905
358.865
351.779
344.539
336.993
328.966
320.271
310.732
300.207
288.611
275.929
262.229
247.66
232.446
216.87
201.246
185.901
171.143
157.247
144.438
132.887
122.714
113.994
106.768
101.055
96.8577
94.173
92.9923
93.2924
94.9928
97.9356
101.948
106.888
112.607
118.914
125.579
132.371
139.076
145.503
151.487
156.889
161.595
165.514
168.582
170.763
172.054
172.483
172.118
171.058
169.43
167.38
165.059
162.611
160.161
157.811
155.631
153.668
151.943
150.459
149.207
148.169
147.326
146.654
146.13
145.735
145.449
145.257
145.143
145.095
145.102
145.156
145.248
145.372
145.524
145.697
145.889
146.096
146.317
146.548
146.788
147.036
147.293
147.556
147.826
148.104
270.801
272.468
273.777
274.643
274.98
274.743
273.923
272.534
270.611
268.205
265.379
262.199
258.727
255.018
251.114
247.037
242.792
238.366
233.725
228.825
223.611
218.026
212.018
205.545
198.585
191.137
183.229
174.921
166.299
157.478
148.591
139.786
131.215
123.029
115.367
108.359
102.114
96.7269
92.2787
88.8368
86.4596
85.1984
85.1026
86.2135
88.5221
91.9311
96.2952
101.48
107.35
113.742
120.457
127.29
134.045
140.541
146.62
152.144
156.999
161.091
164.351
166.737
168.239
168.881
168.723
167.859
166.415
164.532
162.361
160.047
157.717
155.475
153.395
151.524
149.886
148.486
147.315
146.358
145.594
144.999
144.552
144.233
144.021
143.901
143.859
143.88
143.956
144.075
144.232
144.418
144.629
144.86
145.107
145.367
145.638
145.917
146.203
146.495
146.793
147.095
147.402
147.714
178.819
180.618
182.192
183.503
184.505
185.172
185.49
185.459
185.089
184.399
183.415
182.165
180.676
178.974
177.076
174.995
172.731
170.279
167.625
164.749
161.63
158.245
154.575
150.609
146.343
141.784
136.954
131.886
126.63
121.245
115.806
110.395
105.101
100.017
95.2367
90.8528
86.9545
83.6263
80.9481
78.9949
77.8377
77.5452
78.19
79.8455
82.547
86.2429
90.8127
96.1265
102.058
108.46
115.163
121.985
128.744
135.274
141.423
147.055
152.054
156.324
159.791
162.407
164.154
165.048
165.141
164.52
163.304
161.631
159.649
157.502
155.32
153.208
151.243
149.475
147.932
146.62
145.533
144.656
143.969
143.45
143.078
142.831
142.692
142.643
142.669
142.759
142.9
143.084
143.303
143.55
143.819
144.107
144.408
144.72
145.04
145.366
145.698
146.032
146.37
146.711
147.054
147.399
123.513
125.132
126.615
127.941
129.086
130.032
130.767
131.288
131.595
131.692
131.591
131.303
130.838
130.209
129.423
128.485
127.395
126.149
124.74
123.157
121.389
119.426
117.257
114.88
112.294
109.508
106.535
103.399
100.131
96.7709
93.3644
89.9656
86.6339
83.4337
80.4326
77.7005
75.3085
73.3277
71.8293
70.8835
70.5601
70.9307
72.0749
74.0811
77.0123
80.8526
85.5062
90.8499
96.7616
103.11
109.745
116.505
123.227
129.755
135.944
141.663
146.795
151.242
154.923
157.785
159.802
160.979
161.36
161.022
160.076
158.652
156.897
154.95
152.944
150.983
149.15
147.498
146.058
144.839
143.838
143.042
142.433
141.989
141.69
141.515
141.446
141.466
141.56
141.715
141.921
142.168
142.449
142.755
143.082
143.425
143.78
144.143
144.513
144.886
145.262
145.639
146.017
146.395
146.774
147.15
89.2294
90.5822
91.8542
93.0325
94.1035
95.0553
95.8793
96.5701
97.1252
97.5449
97.8316
97.9893
98.0224
97.9352
97.7308
97.4108
96.9746
96.4194
95.7406
94.9321
93.9876
92.9008
91.667
90.2842
88.7534
87.0803
85.2752
83.3537
81.3372
79.2524
77.1319
75.0135
72.9402
70.9593
69.122
67.4831
66.0999
65.0317
64.3397
64.0864
64.3359
65.1563
66.627
68.8412
71.8785
75.7511
80.388
85.6764
91.4989
97.7343
104.25
110.903
117.546
124.035
130.234
136.014
141.261
145.874
149.769
152.885
155.186
156.67
157.368
157.348
156.707
155.57
154.075
152.361
150.557
148.771
147.088
145.566
144.238
143.12
142.209
141.497
140.966
140.598
140.371
140.267
140.267
140.354
140.515
140.735
141.005
141.315
141.656
142.021
142.406
142.804
143.212
143.627
144.045
144.465
144.886
145.305
145.723
146.139
146.553
146.961
67.2869
68.3833
69.4317
70.4241
71.3523
72.2085
72.9862
73.6806
74.2887
74.8086
75.2399
75.5833
75.8398
76.0106
76.0966
76.0977
76.0131
75.841
75.5783
75.2216
74.7669
74.2106
73.5504
72.785
71.9157
70.9466
69.8849
68.7418
67.5323
66.2756
64.9956
63.7199
62.481
61.315
60.2621
59.3657
58.6727
58.2325
58.097
58.3204
58.9597
60.0774
61.7486
64.0656
67.1162
70.9343
75.4735
80.6348
86.3071
92.3779
98.7284
105.232
111.756
118.169
124.343
130.156
135.495
140.257
144.355
147.723
150.316
152.121
153.157
153.479
153.174
152.356
151.154
149.703
148.128
146.541
145.028
143.651
142.447
141.437
140.623
139.998
139.548
139.256
139.102
139.069
139.137
139.292
139.518
139.804
140.137
140.509
140.91
141.335
141.776
142.23
142.692
143.158
143.626
144.093
144.559
145.021
145.479
145.933
146.383
146.823
52.7856
53.665
54.516
55.3334
56.1121
56.8469
57.533
58.1667
58.745
59.2657
59.7273
60.1292
60.4709
60.7523
60.9731
61.1329
61.2307
61.2654
61.235
61.1374
60.9706
60.7326
60.4221
60.0389
59.5844
59.0617
58.4764
57.8367
57.1537
56.4421
55.7194
55.0071
54.3302
53.717
53.1995
52.8129
52.5956
52.5885
52.8356
53.3833
54.2813
55.5855
57.3648
59.7069
62.7023
66.4008
70.7786
75.7539
81.2241
87.0847
93.2287
99.5433
105.911
112.211
118.325
124.138
129.539
134.426
138.711
142.32
145.202
147.332
148.719
149.403
149.458
148.985
148.105
146.944
145.627
144.262
142.939
141.722
140.657
139.765
139.055
138.523
138.158
137.944
137.865
137.902
138.04
138.262
138.555
138.905
139.301
139.735
140.198
140.681
141.181
141.691
142.206
142.725
143.243
143.758
144.269
144.775
145.275
145.768
146.254
146.727
42.9096
43.6142
44.3021
44.9701
45.6147
46.2323
46.8196
47.3738
47.8923
48.373
48.8143
49.215
49.5742
49.8913
50.1656
50.3965
50.5833
50.7251
50.8208
50.8694
50.8698
50.8211
50.7231
50.5762
50.3818
50.1429
49.8639
49.5513
49.214
48.8631
48.5127
48.1795
47.8832
47.6468
47.4958
47.4592
47.5684
47.8577
48.3637
49.1259
50.1872
51.5967
53.4164
55.7273
58.6183
62.1498
66.3184
71.0609
76.2861
81.8976
87.7986
93.8889
100.064
106.215
112.233
118.01
123.441
128.424
132.87
136.702
139.861
142.313
144.053
145.109
145.541
145.435
144.901
144.056
143.02
141.901
140.788
139.752
138.839
138.077
137.48
137.047
136.772
136.64
136.638
136.749
136.957
137.248
137.607
138.022
138.483
138.98
139.503
140.047
140.605
141.172
141.743
142.315
142.884
143.449
144.007
144.558
145.1
145.634
146.158
146.665
36.0021
36.5681
37.1247
37.6696
38.2006
38.7152
39.2111
39.6859
40.1378
40.565
40.966
41.3395
41.6846
42.0005
42.2865
42.542
42.7665
42.9594
43.1203
43.2487
43.3443
43.4069
43.437
43.4355
43.4041
43.3454
43.2636
43.164
43.0539
42.9423
42.8407
42.7626
42.724
42.7435
42.8423
43.0438
43.3742
43.862
44.5378
45.4349
46.5899
48.0454
49.8563
52.0958
54.8485
58.1808
62.1063
66.5809
71.5268
76.8569
82.4838
88.3181
94.2673
100.235
106.121
111.826
117.25
122.295
126.872
130.9
134.315
137.075
139.163
140.593
141.41
141.686
141.516
141.01
140.279
139.428
138.547
137.708
136.964
136.346
135.872
135.547
135.368
135.324
135.402
135.589
135.87
136.231
136.658
137.14
137.666
138.227
138.813
139.418
140.036
140.661
141.289
141.915
142.538
143.154
143.761
144.358
144.945
145.52
146.084
146.627
31.0612
31.5174
31.9687
32.4137
32.8506
33.2778
33.6937
34.0965
34.4847
34.857
35.212
35.5486
35.8661
36.1635
36.4404
36.6962
36.9307
37.1434
37.3345
37.5037
37.6513
37.7778
37.8839
37.971
38.0409
38.0963
38.1409
38.1796
38.2184
38.2651
38.3291
38.4218
38.5563
38.748
39.0144
39.3751
39.8515
40.4675
41.2486
42.2226
43.4206
44.8792
46.6464
48.787
51.3794
54.4924
58.1531
62.3355
66.9767
71.9999
77.3267
82.878
88.572
94.3235
100.043
105.639
111.018
116.087
120.757
124.949
128.593
131.639
134.06
135.857
137.059
137.723
137.932
137.781
137.375
136.813
136.184
135.563
135.003
134.543
134.205
133.998
133.923
133.972
134.137
134.404
134.761
135.194
135.692
136.243
136.836
137.462
138.113
138.781
139.46
140.145
140.832
141.515
142.192
142.861
143.519
144.165
144.798
145.418
146.023
146.605
27.4633
27.8319
28.1985
28.5621
28.9216
29.2757
29.6233
29.9632
30.2941
30.6149
30.9247
31.2226
31.5078
31.7796
32.0377
32.2816
32.5113
32.7266
32.9277
33.115
33.2888
33.4501
33.5999
33.7397
33.8716
33.9983
34.1232
34.2508
34.3864
34.5367
34.7099
34.9154
35.1644
35.4697
35.846
36.3095
36.8782
37.5718
38.4115
39.4206
40.6251
42.0564
43.7556
45.7796
48.1994
51.0829
54.4673
58.343
62.6624
67.3601
72.3667
77.6124
83.0257
88.5317
94.0512
99.5014
104.796
109.849
114.574
118.891
122.729
126.031
128.762
130.909
132.488
133.54
134.133
134.35
134.285
134.03
133.673
133.287
132.93
132.644
132.455
132.377
132.415
132.566
132.822
133.175
133.612
134.121
134.693
135.314
135.977
136.671
137.388
138.121
138.865
139.612
140.359
141.101
141.836
142.56
143.272
143.969
144.651
145.317
145.967
146.59
24.8086
25.1066
25.4045
25.7016
25.9972
26.2903
26.5802
26.8659
27.1465
27.4212
27.6892
27.9499
28.2025
28.4468
28.6822
28.9086
29.1261
29.3346
29.5346
29.7265
29.911
30.0893
30.2625
30.4324
30.6011
30.7713
30.9462
31.1298
31.3272
31.5441
31.7877
32.066
32.3887
32.7666
33.212
33.7384
34.3609
35.0958
35.9607
36.9749
38.1603
39.5432
41.1588
43.056
45.298
47.9499
51.0551
54.6181
58.6066
62.9669
67.639
72.5617
77.6731
82.9079
88.1972
93.4671
98.6399
103.635
108.372
112.772
116.763
120.285
123.294
125.767
127.705
129.137
130.113
130.703
130.989
131.057
130.988
130.856
130.719
130.622
130.596
130.66
130.822
131.083
131.439
131.883
132.405
132.995
133.644
134.34
135.075
135.84
136.626
137.428
138.237
139.05
139.86
140.664
141.459
142.242
143.009
143.761
144.495
145.21
145.907
146.576
22.8333
23.0737
23.3154
23.5578
23.8003
24.0425
24.2836
24.5231
24.7602
24.9943
25.2248
25.4513
25.6733
25.8904
26.1024
26.3093
26.5112
26.7082
26.9009
27.0899
27.276
27.4604
27.6445
27.8301
28.0193
28.2148
28.4196
28.6375
28.873
29.1314
29.4188
29.7424
30.1104
30.532
31.0176
31.5787
32.2277
32.9782
33.8448
34.8434
35.9921
37.3129
38.8356
40.6017
42.6666
45.0906
47.9207
51.1726
54.8281
58.8457
63.1747
67.7624
72.5554
77.4978
82.5301
87.5877
92.6017
97.4988
102.204
106.642
110.742
114.441
117.689
120.456
122.729
124.523
125.873
126.834
127.477
127.877
128.111
128.247
128.347
128.455
128.608
128.826
129.124
129.505
129.969
130.511
131.125
131.802
132.532
133.307
134.118
134.957
135.816
136.689
137.568
138.448
139.325
140.195
141.053
141.896
142.723
143.532
144.321
145.089
145.837
146.555
21.3581
21.5513
21.7466
21.9438
22.1423
22.3417
22.5417
22.7418
22.9414
23.1402
23.3378
23.5337
23.7276
23.9194
24.1089
24.2963
24.4815
24.6651
24.8474
25.0293
25.2118
25.3959
25.5832
25.7755
25.9748
26.1837
26.4052
26.6429
26.9007
27.1834
27.4966
27.8464
28.24
28.6853
29.1911
29.7671
30.4236
31.1719
32.0241
32.9931
34.0938
35.3446
36.77
38.4053
40.2978
42.5025
45.0669
48.0154
51.3422
55.0177
59.0008
63.2468
67.7101
72.3436
77.0965
81.9137
86.7348
91.4946
96.1246
100.555
104.716
108.545
111.99
115.01
117.585
119.715
121.422
122.746
123.744
124.482
125.027
125.446
125.795
126.125
126.47
126.857
127.302
127.814
128.396
129.045
129.758
130.527
131.344
132.203
133.095
134.012
134.948
135.895
136.847
137.799
138.746
139.684
140.609
141.518
142.408
143.278
144.125
144.95
145.752
146.524
20.2581
20.4125
20.5695
20.7291
20.8909
21.0546
21.22
21.3866
21.5543
21.7227
21.8916
22.0606
22.2296
22.3984
22.5672
22.736
22.905
23.0747
23.2457
23.4187
23.5947
23.7749
23.9608
24.1543
24.3572
24.5722
24.8019
25.0497
25.3193
25.615
25.9417
26.3048
26.7107
27.166
27.6783
28.2556
28.9068
29.6411
30.4682
31.3989
32.4453
33.6223
34.9502
36.4581
38.1863
40.1835
42.4959
45.1536
48.1614
51.5011
55.1408
59.0436
63.1712
67.4841
71.9403
76.4931
81.091
85.6773
90.1907
94.5669
98.7413
102.652
106.244
109.473
112.309
114.743
116.781
118.451
119.796
120.869
121.731
122.44
123.053
123.616
124.167
124.736
125.342
125.997
126.706
127.472
128.291
129.159
130.071
131.019
131.997
132.997
134.013
135.039
136.069
137.096
138.117
139.128
140.123
141.101
142.058
142.993
143.903
144.788
145.649
146.481
19.4438
19.5663
19.6919
19.8205
19.9518
20.0858
20.2222
20.3609
20.5016
20.6442
20.7884
20.9342
21.0815
21.2303
21.3806
21.5326
21.6867
21.8432
22.0029
22.1665
22.335
22.5097
22.6919
22.8834
23.0863
23.3027
23.5354
23.7873
24.062
24.3632
24.6954
25.0634
25.4726
25.9289
26.4387
27.0088
27.6464
28.3592
29.1552
30.0429
31.0322
32.135
33.3679
34.7547
36.3289
38.1327
40.2098
42.5932
45.2963
48.3111
51.6148
55.1779
58.9688
62.955
67.102
71.3716
75.7208
80.1012
84.4594
88.7379
92.8774
96.8188
100.507
103.895
106.948
109.644
111.981
113.972
115.648
117.049
118.225
119.23
120.113
120.92
121.691
122.454
123.233
124.042
124.89
125.781
126.716
127.692
128.704
129.748
130.817
131.906
133.008
134.118
135.229
136.337
137.436
138.523
139.594
140.645
141.674
142.677
143.655
144.605
145.528
146.426
18.8498
18.9465
19.0466
19.15
19.2565
19.3661
19.4788
19.5944
19.7127
19.8338
19.9575
20.0839
20.2128
20.3444
20.4789
20.6164
20.7574
20.9023
21.0518
21.2066
21.3678
21.5365
21.7143
21.9026
22.1034
22.319
22.5516
22.8043
23.08
23.3824
23.7153
24.083
24.4902
24.942
25.4438
26.0014
26.6208
27.3082
28.0701
28.9133
29.8456
30.8766
32.0193
33.293
34.7251
36.3516
38.212
40.3405
42.7567
45.4615
48.4409
51.6724
55.1306
58.789
62.6199
66.5928
70.6727
74.8196
78.9882
83.1284
87.1869
91.1089
94.8416
98.3368
101.555
104.469
107.065
109.345
111.327
113.04
114.524
115.822
116.979
118.038
119.037
120.006
120.969
121.944
122.942
123.969
125.028
126.12
127.241
128.387
129.555
130.738
131.931
133.13
134.328
135.521
136.704
137.873
139.023
140.152
141.257
142.335
143.384
144.403
145.395
146.365
18.4276
18.5042
18.5842
18.6677
18.7546
18.8449
18.9387
19.0358
19.1364
19.2402
19.3475
19.4582
19.5723
19.6901
19.8117
19.9375
20.0678
20.2031
20.3441
20.4916
20.6466
20.8102
20.9837
21.1689
21.3673
21.5812
21.8128
22.0646
22.3396
22.6409
22.9719
23.3366
23.7391
24.1835
24.6748
25.2175
25.8168
26.4776
27.2051
28.0048
28.8826
29.8459
30.905
32.0751
33.3782
34.8442
36.5081
38.4031
40.553
42.9662
45.6366
48.5486
51.6823
55.0168
58.53
62.1983
65.994
69.8853
73.8347
77.8001
81.7348
85.5897
89.3152
92.8643
96.1955
99.2763
102.086
104.616
106.873
108.876
110.651
112.235
113.665
114.979
116.213
117.396
118.554
119.705
120.862
122.036
123.229
124.445
125.683
126.939
128.212
129.496
130.788
132.081
133.372
134.656
135.927
137.183
138.418
139.63
140.816
141.973
143.099
144.193
145.258
146.308
18.142
18.2036
18.2687
18.3374
18.4097
18.4856
18.5653
18.6487
18.7359
18.8269
18.9219
19.0208
19.124
19.2315
19.3437
19.4608
19.5833
19.7117
19.8467
19.989
20.1397
20.2998
20.4706
20.6536
20.8505
21.0633
21.294
21.5451
21.819
22.1188
22.4476
22.8086
23.2055
23.6421
24.1222
24.65
25.2294
25.8646
26.5596
27.3186
28.146
29.0477
30.0312
31.1083
32.2963
33.6194
35.1076
36.7921
38.6983
40.8408
43.2205
45.8284
48.6499
51.6687
54.8678
58.2289
61.7314
65.3507
69.0572
72.8164
76.5891
80.3323
84.0013
87.5515
90.9417
94.1368
97.1101
99.846
102.341
104.602
106.647
108.502
110.197
111.764
113.235
114.638
115.998
117.334
118.661
119.99
121.327
122.676
124.039
125.414
126.799
128.192
129.588
130.982
132.372
133.752
135.118
136.466
137.792
139.093
140.365
141.607
142.815
143.989
145.133
146.272
17.9681
18.0199
18.0753
18.1342
18.1969
18.2634
18.3339
18.4083
18.4868
18.5695
18.6566
18.7482
18.8445
18.9458
19.0523
19.1643
19.2825
19.4072
19.5392
19.6792
19.8282
19.9873
20.1576
20.3406
20.5379
20.7512
20.9826
21.2342
21.5084
21.8078
22.1352
22.4936
22.886
23.3158
23.7862
24.3006
24.8624
25.4747
26.1408
26.8636
27.6466
28.4937
29.4108
30.4064
31.4938
32.692
34.026
35.5236
37.2107
39.1054
41.2151
43.5371
46.0619
48.7772
51.67
54.7269
57.9328
61.2697
64.7154
68.243
71.8206
75.4123
78.9788
82.4797
85.8757
89.1309
92.2154
95.1078