/*--------------------------------*- C++ -*----------------------------------*\
| =========                 |                                                 |
| \\      /  F ield         | OpenFOAM: The Open Source CFD Toolbox           |
|  \\    /   O peration     | Version:  4.1                                   |
|   \\  /    A nd           | Web:      www.OpenFOAM.org                      |
|    \\/     M anipulation  |                                                 |
\*---------------------------------------------------------------------------*/
FoamFile
{
    version     2.0;
    format      ascii;
    class       volScalarField;
    location    "300";
    object      p;
}
// * * * * * * * * * * * * * * * * * * * * * * * * * * * * * * * * * * * * * //

dimensions      [0 2 -2 0 0 0 0];

internalField   nonuniform List<scalar> 
6820
(
10.523
-0.17614
-3.70326
-4.44932
-4.84301
-5.17567
-5.36581
-5.46128
-5.52672
-5.58238
-5.6289
-5.66791
-5.70263
-5.73498
-5.7657
-5.79526
-5.82414
-5.85276
-5.88144
-5.91047
-5.94013
-5.97068
-6.00242
-6.03563
-6.07065
-6.10783
-6.14761
-6.19052
-6.23715
-6.28854
-6.34515
-6.41121
-6.47444
-11.1963
-7.64925
-6.84786
-6.04425
-5.66222
-5.58144
-5.56928
-5.56653
-5.58106
-5.60909
-5.64061
-5.67157
-5.70195
-5.73197
-5.76149
-5.79047
-5.81912
-5.84769
-5.8764
-5.90548
-5.93518
-5.96574
-5.99743
-6.03053
-6.06534
-6.10221
-6.14153
-6.18379
-6.22949
-6.27963
-6.33455
-6.39811
-6.46643
-9.00577
-5.49803
-5.2364
-5.22691
-5.21531
-5.30725
-5.40218
-5.46653
-5.51966
-5.56975
-5.61462
-5.65397
-5.68961
-5.7229
-5.75445
-5.78471
-5.81415
-5.84318
-5.87214
-5.90134
-5.93104
-5.96152
-5.99305
-6.02593
-6.06044
-6.09691
-6.13571
-6.17726
-6.22203
-6.27075
-6.32366
-6.3828
-6.44324
-6.57884
-5.10813
-5.25907
-5.37016
-5.35135
-5.40185
-5.46769
-5.51337
-5.55206
-5.591
-5.62803
-5.66208
-5.69407
-5.72476
-5.75447
-5.78342
-5.81192
-5.84025
-5.86868
-5.89743
-5.92674
-5.95685
-5.988
-6.02045
-6.05444
-6.09028
-6.12827
-6.16876
-6.2121
-6.25876
-6.30876
-6.36276
-6.41772
-6.12645
-5.41212
-5.45125
-5.46291
-5.41446
-5.43774
-5.48593
-5.52422
-5.55904
-5.59507
-5.63016
-5.66308
-5.69431
-5.72442
-5.75364
-5.78218
-5.81031
-5.83829
-5.86636
-5.89474
-5.92365
-5.95332
-5.98397
-6.01582
-6.04912
-6.08411
-6.12106
-6.16023
-6.20186
-6.24621
-6.29319
-6.34291
-6.39355
-6.04571
-5.56619
-5.51865
-5.49342
-5.45061
-5.46526
-5.50343
-5.5375
-5.56984
-5.6033
-5.6362
-5.66749
-5.69746
-5.72649
-5.7548
-5.78256
-5.81001
-5.83737
-5.86485
-5.89266
-5.92099
-5.95005
-5.98003
-6.01113
-6.04356
-6.07753
-6.11324
-6.15088
-6.19059
-6.23249
-6.27642
-6.32227
-6.36891
-5.92262
-5.59642
-5.54265
-5.51797
-5.48581
-5.49517
-5.52468
-5.55395
-5.58306
-5.61348
-5.64383
-5.67321
-5.70168
-5.72949
-5.75676
-5.78364
-5.81032
-5.83698
-5.8638
-5.89095
-5.91862
-5.94697
-5.97619
-6.00643
-6.03787
-6.07068
-6.10499
-6.14095
-6.17861
-6.218
-6.25892
-6.30118
-6.34404
-5.81355
-5.60821
-5.56404
-5.5426
-5.51778
-5.52337
-5.54596
-5.57076
-5.5967
-5.62423
-5.65215
-5.67964
-5.7066
-5.73315
-5.75935
-5.7853
-5.81114
-5.83703
-5.86311
-5.88954
-5.91646
-5.94402
-5.97236
-6.00163
-6.03196
-6.06348
-6.09629
-6.13045
-6.16598
-6.20282
-6.2408
-6.27967
-6.31891
-5.74235
-5.61878
-5.58177
-5.56267
-5.54388
-5.54768
-5.56546
-5.58672
-5.60995
-5.63495
-5.66068
-5.68638
-5.71187
-5.73716
-5.76227
-5.78727
-5.81224
-5.8373
-5.86259
-5.88822
-5.91432
-5.941
-5.96839
-5.9966
-6.02573
-6.05587
-6.08706
-6.11935
-6.1527
-6.18702
-6.22212
-6.25777
-6.29355
-5.69775
-5.62512
-5.59448
-5.57825
-5.56479
-5.5681
-5.58273
-5.60131
-5.62229
-5.64514
-5.66893
-5.69299
-5.71709
-5.74117
-5.76521
-5.78924
-5.81331
-5.83753
-5.86199
-5.88677
-5.91199
-5.93774
-5.96411
-5.99118
-6.01903
-6.0477
-6.07723
-6.1076
-6.13875
-6.17057
-6.20288
-6.23545
-6.26793
-5.66972
-5.62813
-5.60392
-5.59084
-5.58173
-5.58513
-5.59768
-5.61426
-5.63339
-5.65443
-5.67652
-5.69911
-5.72192
-5.74486
-5.76786
-5.79093
-5.81412
-5.83747
-5.86106
-5.88497
-5.90927
-5.93403
-5.95932
-5.9852
-6.0117
-6.03886
-6.06667
-6.0951
-6.12406
-6.15344
-6.18305
-6.21269
-6.24204
-5.6528
-5.6298
-5.61156
-5.60144
-5.59565
-5.59935
-5.6105
-5.62553
-5.64314
-5.66262
-5.68325
-5.70451
-5.72613
-5.74798
-5.76999
-5.79213
-5.81442
-5.8369
-5.85961
-5.88261
-5.90595
-5.92968
-5.95385
-5.97849
-6.00361
-6.02923
-6.0553
-6.08179
-6.10859
-6.13559
-6.16261
-6.18946
-6.21587
-5.64346
-5.63128
-5.61809
-5.6106
-5.60731
-5.61134
-5.62148
-5.63527
-5.65158
-5.66971
-5.68902
-5.70907
-5.72958
-5.7504
-5.77144
-5.79267
-5.81407
-5.83567
-5.85748
-5.87955
-5.9019
-5.92457
-5.94758
-5.97095
-5.99466
-6.01871
-6.04305
-6.06762
-6.09231
-6.11701
-6.14156
-6.16577
-6.18941
-5.63915
-5.63305
-5.6239
-5.61867
-5.61725
-5.62157
-5.63095
-5.64368
-5.65883
-5.67574
-5.69386
-5.71278
-5.73223
-5.75206
-5.77216
-5.79247
-5.81298
-5.83368
-5.85458
-5.87569
-5.89703
-5.91861
-5.94044
-5.9625
-5.98479
-6.00728
-6.0299
-6.05258
-6.07523
-6.09772
-6.11992
-6.14165
-6.1627
-5.63811
-5.6353
-5.62925
-5.6259
-5.62588
-5.63042
-5.63916
-5.65097
-5.66505
-5.68083
-5.69783
-5.71567
-5.7341
-5.75295
-5.77211
-5.79151
-5.81111
-5.8309
-5.85086
-5.87099
-5.89129
-5.91176
-5.93238
-5.95314
-5.974
-5.99492
-6.01585
-6.0367
-6.05737
-6.07776
-6.09773
-6.11713
-6.13577
-5.63914
-5.63803
-5.63428
-5.63245
-5.63345
-5.63813
-5.64634
-5.65729
-5.67038
-5.68509
-5.70102
-5.71781
-5.73523
-5.7531
-5.77132
-5.7898
-5.80848
-5.82733
-5.84633
-5.86545
-5.88469
-5.90402
-5.92343
-5.94287
-5.96231
-5.98169
-6.00096
-6.02003
-6.03881
-6.05719
-6.07506
-6.09228
-6.10869
-5.64145
-5.64117
-5.63907
-5.63841
-5.64015
-5.6449
-5.65261
-5.66278
-5.67492
-5.68862
-5.7035
-5.71926
-5.73568
-5.75258
-5.76984
-5.78738
-5.80511
-5.82301
-5.84102
-5.85911
-5.87727
-5.89545
-5.91363
-5.93175
-5.94978
-5.96766
-5.98531
-6.00266
-6.01963
-6.03611
-6.052
-6.06719
-6.08153
-5.64453
-5.64462
-5.64366
-5.64386
-5.64611
-5.65084
-5.65808
-5.66752
-5.67876
-5.69148
-5.70534
-5.72009
-5.73551
-5.75143
-5.76773
-5.7843
-5.80107
-5.81798
-5.83499
-5.85204
-5.86909
-5.88611
-5.90305
-5.91987
-5.93651
-5.9529
-5.96898
-5.98468
-5.99992
-6.0146
-6.02864
-6.04193
-6.05437
-5.64803
-5.64825
-5.64805
-5.64886
-5.6514
-5.65604
-5.66282
-5.67155
-5.68194
-5.69371
-5.70659
-5.72034
-5.73476
-5.7497
-5.76502
-5.78062
-5.79641
-5.81232
-5.8283
-5.84428
-5.86023
-5.87608
-5.89179
-5.90731
-5.92257
-5.93752
-5.95209
-5.96621
-5.97979
-5.99278
-6.00507
-6.0166
-6.02726
-5.65172
-5.65198
-5.65225
-5.65343
-5.6561
-5.66056
-5.66687
-5.67491
-5.68448
-5.69533
-5.70725
-5.72002
-5.73347
-5.74742
-5.76176
-5.77638
-5.79117
-5.80608
-5.82101
-5.83593
-5.85075
-5.86544
-5.87993
-5.89417
-5.90809
-5.92163
-5.93474
-5.94733
-5.95935
-5.97073
-5.98139
-5.99127
-6.0003
-5.65547
-5.65572
-5.65625
-5.65761
-5.66027
-5.66446
-5.67027
-5.67763
-5.68638
-5.69635
-5.70733
-5.71915
-5.73162
-5.74461
-5.75797
-5.7716
-5.7854
-5.79929
-5.81319
-5.82703
-5.84074
-5.85427
-5.86755
-5.88053
-5.89314
-5.90533
-5.91702
-5.92817
-5.9387
-5.94856
-5.95769
-5.96603
-5.97353
-5.65919
-5.65941
-5.66004
-5.66142
-5.66392
-5.66776
-5.67303
-5.6797
-5.68766
-5.69676
-5.70683
-5.71771
-5.72924
-5.74126
-5.75366
-5.76632
-5.77913
-5.79201
-5.80487
-5.81765
-5.83026
-5.84265
-5.85475
-5.8665
-5.87784
-5.88871
-5.89905
-5.90881
-5.91793
-5.92636
-5.93405
-5.94096
-5.94704
-5.66284
-5.66303
-5.66363
-5.66488
-5.6671
-5.6705
-5.67518
-5.68114
-5.68831
-5.69655
-5.70573
-5.7157
-5.7263
-5.73739
-5.74884
-5.76054
-5.77238
-5.78426
-5.79611
-5.80783
-5.81936
-5.83063
-5.84158
-5.85214
-5.86225
-5.87186
-5.88091
-5.88935
-5.89713
-5.90421
-5.91054
-5.91611
-5.92086
-5.66642
-5.66658
-5.66704
-5.66802
-5.66982
-5.67269
-5.67672
-5.68194
-5.6883
-5.6957
-5.70402
-5.71309
-5.72279
-5.73297
-5.74351
-5.75427
-5.76516
-5.77608
-5.78693
-5.79763
-5.80811
-5.81829
-5.82812
-5.83753
-5.84646
-5.85486
-5.86267
-5.86986
-5.87638
-5.88218
-5.88725
-5.89155
-5.89507
-5.66995
-5.67008
-5.67029
-5.67085
-5.67212
-5.67434
-5.67764
-5.68208
-5.68763
-5.69419
-5.70165
-5.70987
-5.7187
-5.728
-5.73765
-5.74752
-5.75749
-5.76747
-5.77736
-5.78708
-5.79654
-5.80568
-5.81444
-5.82274
-5.83054
-5.83779
-5.84443
-5.85043
-5.85575
-5.86036
-5.86423
-5.86735
-5.86971
-5.6735
-5.6736
-5.67346
-5.67343
-5.674
-5.67545
-5.67794
-5.68155
-5.68626
-5.69199
-5.69861
-5.706
-5.714
-5.72247
-5.73127
-5.74028
-5.74938
-5.75847
-5.76744
-5.77622
-5.78471
-5.79286
-5.80059
-5.80784
-5.81457
-5.82072
-5.82625
-5.83113
-5.83533
-5.83881
-5.84155
-5.84357
-5.84483
-5.67719
-5.67726
-5.67661
-5.67579
-5.67547
-5.676
-5.67758
-5.6803
-5.68415
-5.68904
-5.69486
-5.70145
-5.70866
-5.71634
-5.72435
-5.73256
-5.74084
-5.74909
-5.75719
-5.76508
-5.77265
-5.77986
-5.78662
-5.79288
-5.7986
-5.80372
-5.80821
-5.81204
-5.81517
-5.81759
-5.81929
-5.82026
-5.82051
-5.68121
-5.68124
-5.67989
-5.67799
-5.67654
-5.67597
-5.67651
-5.67826
-5.68122
-5.68529
-5.69033
-5.69617
-5.70265
-5.7096
-5.71688
-5.72435
-5.73187
-5.73933
-5.74663
-5.75369
-5.76041
-5.76673
-5.77258
-5.77792
-5.78269
-5.78685
-5.79036
-5.79321
-5.79535
-5.79679
-5.7975
-5.7975
-5.79679
-5.68587
-5.68583
-5.68345
-5.68008
-5.67718
-5.67528
-5.67463
-5.67534
-5.67739
-5.68065
-5.68495
-5.69009
-5.6959
-5.7022
-5.70882
-5.71562
-5.72245
-5.7292
-5.73577
-5.74206
-5.748
-5.7535
-5.75852
-5.763
-5.76689
-5.77016
-5.77277
-5.7747
-5.77593
-5.77645
-5.77625
-5.77535
-5.77375
-5.69163
-5.69147
-5.68753
-5.68211
-5.67734
-5.67382
-5.6718
-5.67139
-5.67252
-5.675
-5.67861
-5.68314
-5.68836
-5.69409
-5.70014
-5.70634
-5.71256
-5.71868
-5.72459
-5.7302
-5.73542
-5.74019
-5.74445
-5.74815
-5.75124
-5.7537
-5.75549
-5.75658
-5.75698
-5.75666
-5.75562
-5.75389
-5.75146
-5.69931
-5.69884
-5.69244
-5.6841
-5.67688
-5.67137
-5.66779
-5.66619
-5.66641
-5.66816
-5.67117
-5.67517
-5.67991
-5.68516
-5.69073
-5.69644
-5.70215
-5.70772
-5.71306
-5.71807
-5.72266
-5.72678
-5.73037
-5.73337
-5.73576
-5.73748
-5.73854
-5.73889
-5.73853
-5.73746
-5.73566
-5.73318
-5.73001
-5.71028
-5.70897
-5.69853
-5.68597
-5.67555
-5.66761
-5.66225
-5.65942
-5.65877
-5.65988
-5.66239
-5.66598
-5.67035
-5.67525
-5.68045
-5.68577
-5.69107
-5.69621
-5.70108
-5.70558
-5.70965
-5.71322
-5.71623
-5.71864
-5.72042
-5.72152
-5.72194
-5.72165
-5.72064
-5.71891
-5.71645
-5.71331
-5.70947
-5.7272
-5.72337
-5.70588
-5.68733
-5.67288
-5.66203
-5.6547
-5.65065
-5.64921
-5.64978
-5.65193
-5.65525
-5.65939
-5.66406
-5.66903
-5.6741
-5.67912
-5.68395
-5.68848
-5.69261
-5.69629
-5.69943
-5.70199
-5.70393
-5.70522
-5.70582
-5.70572
-5.7049
-5.70336
-5.70108
-5.69807
-5.69437
-5.68997
-5.75635
-5.74503
-5.71408
-5.68671
-5.66734
-5.65322
-5.64395
-5.6389
-5.63691
-5.63718
-5.63917
-5.64241
-5.64649
-5.65111
-5.656
-5.66097
-5.66586
-5.67052
-5.67485
-5.67876
-5.68218
-5.68504
-5.6873
-5.68892
-5.68987
-5.69011
-5.68965
-5.68845
-5.68651
-5.68384
-5.68042
-5.67629
-5.67146
-5.81024
-5.7818
-5.72631
-5.68478
-5.65765
-5.63879
-5.62745
-5.62182
-5.6198
-5.62036
-5.62285
-5.62666
-5.63129
-5.63637
-5.64166
-5.64694
-5.65205
-5.65685
-5.66125
-5.66515
-5.66851
-5.67125
-5.67334
-5.67476
-5.67546
-5.67544
-5.67468
-5.67317
-5.6709
-5.66788
-5.6641
-5.65959
-5.65436
-5.89241
-5.8292
-5.7442
-5.68998
-5.6503
-5.62099
-5.60434
-5.59606
-5.59229
-5.59192
-5.59429
-5.5985
-5.60381
-5.60977
-5.61602
-5.62231
-5.6284
-5.63416
-5.63945
-5.64418
-5.64829
-5.65171
-5.65441
-5.65635
-5.65751
-5.65789
-5.65746
-5.65622
-5.65417
-5.65132
-5.64766
-5.64321
-5.63798
-6.04198
-5.80832
-5.67844
-5.6644
-5.64866
-5.62996
-5.62255
-5.62027
-5.61846
-5.61761
-5.61822
-5.61991
-5.62228
-5.62513
-5.62834
-5.63171
-5.63509
-5.63833
-5.64133
-5.64398
-5.64621
-5.64793
-5.6491
-5.64967
-5.64959
-5.64885
-5.64741
-5.64526
-5.64239
-5.63879
-5.63446
-5.62942
-5.62368
-6.99791
-5.77444
-5.18366
-5.10366
-5.11585
-5.1522
-5.20608
-5.26014
-5.3087
-5.35298
-5.39326
-5.42904
-5.46041
-5.48785
-5.51185
-5.53276
-5.55091
-5.56659
-5.58006
-5.59153
-5.60118
-5.60916
-5.6156
-5.62061
-5.62427
-5.62667
-5.62787
-5.62793
-5.6269
-5.62482
-5.62171
-5.6176
-5.6125
-10.7667
-8.56359
-7.53194
-6.89494
-6.46702
-6.21522
-6.05169
-5.9267
-5.83228
-5.76552
-5.71918
-5.68661
-5.66383
-5.64838
-5.63828
-5.63197
-5.62829
-5.62642
-5.62572
-5.62572
-5.62607
-5.62649
-5.62676
-5.62673
-5.62628
-5.62531
-5.62375
-5.62156
-5.61869
-5.61513
-5.61087
-5.6059
-5.60022
3.14717
-0.945264
-3.0686
-3.84033
-4.27785
-4.63997
-4.90456
-5.07897
-5.20083
-5.29415
-5.36678
-5.42253
-5.4657
-5.49994
-5.52757
-5.55003
-5.56836
-5.58337
-5.59566
-5.60565
-5.61367
-5.61996
-5.6247
-5.62803
-5.63008
-5.63092
-5.63064
-5.62929
-5.62693
-5.6236
-5.61935
-5.61419
-5.60822
-6.55961
-6.35625
-6.65955
-6.96266
-7.10039
-7.15483
-7.17259
-7.15713
-7.11279
-7.05035
-6.98084
-6.91436
-6.86063
-6.82836
-6.82414
-6.85147
-6.91046
-6.99796
-7.1083
-7.23416
-7.36762
-7.50089
-7.62697
-7.73987
-7.83475
-7.90781
-7.95608
-7.97716
-7.96893
-7.92922
-7.85566
-7.74537
-7.59495
-7.4004
-7.15726
-6.86093
-6.50721
-6.09309
-5.61776
-5.08396
-4.49991
-3.88184
-3.25653
-2.66225
-2.14101
-1.71705
-1.37979
-1.09363
-0.824479
-0.555377
-0.284607
-0.0179683
0.236986
0.473704
0.687568
0.875977
1.03808
1.17439
1.28636
1.37603
1.44575
1.49791
1.53485
1.55868
1.5713
1.57438
1.56933
1.55737
1.53951
1.51665
1.48953
1.45881
1.42505
1.38871
1.3502
1.30985
1.26791
1.22459
1.18004
1.13439
1.08771
1.04004
0.991426
0.941872
0.891389
0.839969
0.787609
0.734298
0.680032
0.624802
0.568603
0.51145
0.453313
0.394334
0.334255
0.273948
0.21165
0.152265
0.0854045
0.0359236
-6.56103
-6.58921
-6.80062
-6.97522
-7.03824
-7.0547
-7.05565
-7.03699
-6.99827
-6.94687
-6.89097
-6.83818
-6.79629
-6.77276
-6.77351
-6.80198
-6.85857
-6.94078
-7.04367
-7.1607
-7.28454
-7.40794
-7.52418
-7.62746
-7.71297
-7.77685
-7.81601
-7.82791
-7.81026
-7.7608
-7.67704
-7.55616
-7.39487
-7.18945
-6.93588
-6.63011
-6.26857
-5.84883
-5.37059
-4.83722
-4.25754
-3.64788
-3.03418
-2.45288
-1.9433
-1.52764
-1.19607
-0.915966
-0.655533
-0.398163
-0.141282
0.110508
0.350694
0.573458
0.774609
0.951728
1.10397
1.23174
1.33633
1.41959
1.48368
1.53084
1.56326
1.583
1.59188
1.59154
1.58339
1.56863
1.5483
1.52327
1.49431
1.46203
1.42698
1.38961
1.35028
1.3093
1.2669
1.22327
1.17853
1.13278
1.08607
1.03845
0.989935
0.940517
0.890197
0.83896
0.786795
0.733684
0.679618
0.624585
0.568578
0.511611
0.45365
0.394838
0.334923
0.274738
0.212608
0.153125
0.0865485
0.0357632
-6.52307
-6.57148
-6.67947
-6.80852
-6.89344
-6.94066
-6.96465
-6.96449
-6.94099
-6.90137
-6.85425
-6.80766
-6.7694
-6.74672
-6.74531
-6.76854
-6.81704
-6.88882
-6.97966
-7.08373
-7.19441
-7.30492
-7.40887
-7.50059
-7.57526
-7.62893
-7.65833
-7.66074
-7.63371
-7.57484
-7.48162
-7.35126
-7.18064
-6.96629
-6.70453
-6.39177
-6.0249
-5.60211
-5.12382
-4.59397
-4.02157
-3.4225
-2.82165
-2.2536
-1.75525
-1.34704
-1.02008
-0.74477
-0.491715
-0.244772
-0.000584163
0.23738
0.463621
0.673056
0.861946
1.02809
1.17068
1.29005
1.38733
1.46422
1.5227
1.56486
1.59276
1.60837
1.61346
1.60964
1.59831
1.58068
1.55779
1.53051
1.4996
1.46568
1.42926
1.39078
1.35058
1.30893
1.26603
1.22205
1.17709
1.13122
1.08448
1.0369
0.988472
0.939186
0.889028
0.837974
0.786004
0.733095
0.679232
0.6244
0.568587
0.511805
0.454025
0.395376
0.335631
0.275552
0.213607
0.153958
0.0877363
0.0354577
-6.48677
-6.54847
-6.64096
-6.75889
-6.84458
-6.888
-6.90475
-6.90104
-6.87902
-6.84434
-6.80417
-6.76519
-6.73369
-6.71554
-6.71544
-6.73624
-6.77861
-6.84097
-6.91983
-7.01025
-7.10643
-7.20232
-7.29208
-7.37036
-7.43251
-7.47456
-7.49316
-7.48541
-7.44872
-7.38058
-7.27839
-7.13939
-6.96054
-6.73857
-6.47013
-6.15204
-5.7818
-5.35819
-4.88219
-4.35805
-3.79468
-3.20739
-2.61993
-2.06509
-1.57766
-1.17693
-0.85513
-0.585392
-0.340256
-0.103793
0.12815
0.353113
0.56645
0.763681
0.941429
1.09765
1.23157
1.34341
1.43418
1.50539
1.55888
1.59658
1.62044
1.63234
1.634
1.62701
1.61274
1.59243
1.56711
1.53769
1.50491
1.46939
1.43163
1.39206
1.35098
1.30865
1.26525
1.22091
1.17572
1.12972
1.08295
1.03539
0.987046
0.937885
0.887883
0.837004
0.785224
0.732511
0.678845
0.624207
0.568584
0.511984
0.45438
0.395888
0.336309
0.276318
0.21456
0.154688
0.0888482
0.0349488
-6.45548
-6.52097
-6.60081
-6.69368
-6.7647
-6.80415
-6.82253
-6.82473
-6.81144
-6.78634
-6.75527
-6.72409
-6.69838
-6.68338
-6.68334
-6.70091
-6.73685
-6.78996
-6.85733
-6.93468
-7.01691
-7.09859
-7.17434
-7.23917
-7.28861
-7.31875
-7.32622
-7.30807
-7.26159
-7.18419
-7.07325
-6.92603
-6.73961
-6.51096
-6.23706
-5.91517
-5.54328
-5.12065
-4.64865
-4.13169
-3.57853
-3.00386
-2.43018
-1.8884
-1.4113
-1.01743
-0.700443
-0.436153
-0.198823
0.0274384
0.24765
0.460326
0.661596
0.847502
1.01497
1.16209
1.28806
1.39304
1.47789
1.54397
1.59293
1.6266
1.64679
1.65531
1.65382
1.64389
1.62688
1.60403
1.5764
1.54491
1.5103
1.4732
1.43412
1.39345
1.35149
1.30847
1.26455
1.21984
1.17441
1.12827
1.08145
1.03391
0.985644
0.936601
0.886747
0.836039
0.784443
0.731921
0.678448
0.624002
0.568565
0.512143
0.454712
0.396372
0.336956
0.277038
0.215469
0.155326
0.0899018
0.0342639
-6.42516
-6.48835
-6.55793
-6.63373
-6.69608
-6.73526
-6.75565
-6.76081
-6.75197
-6.73239
-6.70712
-6.68133
-6.65989
-6.64728
-6.64714
-6.66179
-6.69191
-6.73655
-6.79322
-6.85825
-6.92716
-6.99508
-7.05713
-7.10866
-7.14542
-7.16363
-7.15994
-7.13136
-7.07514
-6.98866
-6.8693
-6.71438
-6.52114
-6.28676
-6.00853
-5.68411
-5.31188
-4.89154
-4.42473
-3.91602
-3.37396
-2.81259
-2.25309
-1.72437
-1.25717
-0.869473
-0.55662
-0.29712
-0.0669502
0.149771
0.358966
0.56013
0.750137
0.925516
1.08346
1.22217
1.34084
1.43952
1.51895
1.58034
1.62518
1.65517
1.67202
1.67744
1.67305
1.66037
1.64079
1.61554
1.5857
1.5522
1.5158
1.47715
1.43675
1.39497
1.35212
1.3084
1.26395
1.21885
1.17316
1.12687
1.07999
1.03246
0.984255
0.935321
0.885608
0.835065
0.783647
0.731313
0.678029
0.62377
0.568518
0.512271
0.455011
0.396818
0.337563
0.277706
0.216329
0.155871
0.0909051
0.0334157
-6.39519
-6.45393
-6.51542
-6.57914
-6.6334
-6.66998
-6.69024
-6.69698
-6.69171
-6.67708
-6.65716
-6.63631
-6.61867
-6.60809
-6.60769
-6.61949
-6.64413
-6.68084
-6.72752
-6.78099
-6.83731
-6.89214
-6.94103
-6.97968
-7.00408
-7.01058
-6.9959
-6.95707
-6.89134
-6.79609
-6.66873
-6.50667
-6.30729
-6.06799
-5.78637
-5.46041
-5.08889
-4.67185
-4.21121
-3.71161
-3.18138
-2.63389
-2.08895
-1.57341
-1.11592
-0.733937
-0.42456
-0.169043
0.0548572
0.262931
0.461977
0.65248
0.832056
0.997702
1.14687
1.27784
1.38981
1.48274
1.55725
1.61438
1.65551
1.68217
1.696
1.69861
1.69157
1.67638
1.6544
1.62689
1.59495
1.55952
1.52139
1.48122
1.4395
1.39662
1.35287
1.30843
1.26343
1.21793
1.17197
1.12551
1.07855
1.03102
0.98287
0.934036
0.884456
0.83407
0.782825
0.730672
0.677574
0.623498
0.568426
0.512352
0.455261
0.39721
0.338116
0.278306
0.217125
0.156315
0.0918525
0.0324081
-6.36536
-6.419
-6.47351
-6.52783
-6.57474
-6.6081
-6.62782
-6.63573
-6.63324
-6.62251
-6.60683
-6.58986
-6.57517
-6.566
-6.56503
-6.57399
-6.59344
-6.62275
-6.66013
-6.7028
-6.74731
-6.78977
-6.82614
-6.85245
-6.86494
-6.86011
-6.83478
-6.78602
-6.71113
-6.6075
-6.47261
-6.30396
-6.0991
-5.85564
-5.57146
-5.24486
-4.87496
-4.46212
-4.00849
-3.51875
-3.001
-2.46788
-1.93788
-1.43569
-0.987858
-0.611305
-0.304845
-0.0524661
0.166187
0.366657
0.556539
0.737293
0.907286
1.06399
1.20509
1.32899
1.43485
1.52256
1.59262
1.64593
1.68373
1.70744
1.71857
1.71866
1.70924
1.69176
1.6676
1.63799
1.60407
1.56681
1.52701
1.48536
1.44235
1.39838
1.35372
1.30856
1.26299
1.21708
1.17082
1.12419
1.07713
1.02959
0.98148
0.932735
0.88328
0.833043
0.781963
0.729985
0.677066
0.623171
0.568276
0.512369
0.455445
0.397533
0.338596
0.278823
0.217843
0.156648
0.0927366
0.0312452
-6.33559
-6.38405
-6.43229
-6.479
-6.51958
-6.54958
-6.56827
-6.57674
-6.57616
-6.56832
-6.55591
-6.54197
-6.5295
-6.52124
-6.51943
-6.52555
-6.54008
-6.56246
-6.59115
-6.62374
-6.65716
-6.68796
-6.71246
-6.72702
-6.7281
-6.71239
-6.67682
-6.61854
-6.53489
-6.42334
-6.28143
-6.10679
-5.89711
-5.65023
-5.36429
-5.03789
-4.67047
-4.26266
-3.81681
-3.33762
-2.83289
-2.31458
-1.7998
-1.31116
-0.873052
-0.501784
-0.197783
0.052285
0.266784
0.460804
0.642599
0.814569
0.975843
1.12437
1.25812
1.37557
1.47588
1.55888
1.62494
1.67484
1.7097
1.7308
1.73957
1.73745
1.72592
1.70641
1.68026
1.64874
1.61299
1.574
1.53262
1.48953
1.44527
1.40022
1.35466
1.30877
1.26263
1.21629
1.16972
1.12289
1.07573
1.02816
0.980079
0.931412
0.88207
0.831972
0.781049
0.729239
0.676494
0.622772
0.568049
0.512308
0.455546
0.397769
0.338988
0.279244
0.218467
0.156863
0.0935506
0.0299334
-6.30584
-6.34929
-6.39186
-6.43223
-6.46732
-6.49398
-6.51126
-6.51972
-6.52034
-6.51458
-6.5046
-6.49291
-6.482
-6.47416
-6.47125
-6.4745
-6.4843
-6.50016
-6.52072
-6.54387
-6.56691
-6.58673
-6.60002
-6.60342
-6.59363
-6.56754
-6.5222
-6.45485
-6.36292
-6.24394
-6.09556
-5.91553
-5.7017
-5.45214
-5.16521
-4.83983
-4.4757
-4.0737
-3.63634
-3.16827
-2.67705
-2.17389
-1.67456
-1.19965
-0.771385
-0.405379
-0.103496
0.145026
0.356473
0.545262
0.72012
0.884321
1.03775
1.17888
1.30594
1.41754
1.51284
1.5916
1.65409
1.70099
1.73327
1.75212
1.75884
1.75482
1.74146
1.72016
1.69225
1.65901
1.62159
1.58102
1.53815
1.4937
1.44823
1.40213
1.35568
1.30905
1.26234
1.21555
1.16867
1.12163
1.07435
1.02672
0.978661
0.930058
0.880816
0.830847
0.780071
0.728421
0.675842
0.622288
0.567733
0.512153
0.455551
0.397904
0.339277
0.279555
0.218984
0.156954
0.0942879
0.0284803
-6.27608
-6.3148
-6.35224
-6.38718
-6.41748
-6.44089
-6.45649
-6.46454
-6.46576
-6.46136
-6.45307
-6.44292
-6.43297
-6.42509
-6.42083
-6.42117
-6.4264
-6.43609
-6.44902
-6.46334
-6.47665
-6.48617
-6.4889
-6.48175
-6.46167
-6.42572
-6.37111
-6.29519
-6.19547
-6.0696
-5.91532
-5.73052
-5.51323
-5.26171
-4.97457
-4.65098
-4.2909
-3.89542
-3.46716
-3.01076
-2.53342
-2.04565
-1.56194
-1.10087
-0.682608
-0.321938
-0.0219576
0.225682
0.43514
0.619933
0.789052
0.94654
1.09303
1.22753
1.34856
1.45488
1.54567
1.62065
1.67999
1.72425
1.75431
1.77122
1.77622
1.77059
1.75569
1.73286
1.70345
1.6687
1.62979
1.58777
1.54353
1.49781
1.45119
1.40407
1.35675
1.30941
1.26211
1.21487
1.16766
1.12039
1.07297
1.02528
0.977222
0.928667
0.879513
0.82966
0.779021
0.72752
0.675099
0.621707
0.567314
0.511889
0.455442
0.397923
0.339446
0.279743
0.21938
0.156917
0.0949416
0.0268952
-6.24627
-6.28061
-6.3134
-6.3436
-6.36968
-6.39
-6.40377
-6.41104
-6.41238
-6.40873
-6.40148
-6.39224
-6.3827
-6.37437
-6.36851
-6.36588
-6.3667
-6.37053
-6.3763
-6.38235
-6.38656
-6.38642
-6.37922
-6.36214
-6.33236
-6.28712
-6.22377
-6.13981
-6.03285
-5.90065
-5.74107
-5.55214
-5.33206
-5.07928
-4.79267
-4.4716
-4.11628
-3.72796
-3.30937
-2.86504
-2.40188
-1.92966
-1.46162
-1.01448
-0.606372
-0.251191
0.0469832
0.294279
0.502721
0.684733
0.849333
1.0012
1.14168
1.27031
1.38596
1.48755
1.57432
1.64593
1.7025
1.7445
1.77266
1.78797
1.79154
1.78461
1.76844
1.74437
1.71369
1.67766
1.63746
1.59416
1.54869
1.5018
1.45409
1.40602
1.35786
1.30981
1.26193
1.21424
1.16668
1.11917
1.0716
1.02384
0.975757
0.927236
0.878154
0.828403
0.777889
0.726527
0.674255
0.621015
0.566778
0.511503
0.455208
0.397812
0.339483
0.279797
0.219643
0.156748
0.0955049
0.0251889
-6.21644
-6.24672
-6.2753
-6.30131
-6.32362
-6.34103
-6.35288
-6.35912
-6.36016
-6.35675
-6.34996
-6.34109
-6.33147
-6.32233
-6.31464
-6.30899
-6.30552
-6.30378
-6.30281
-6.30113
-6.29683
-6.28766
-6.27118
-6.2448
-6.20592
-6.15197
-6.08046
-5.98901
-5.87537
-5.73742
-5.57314
-5.38072
-5.15852
-4.90519
-4.6198
-4.30194
-3.95202
-3.57145
-3.16298
-2.73107
-2.28226
-1.82564
-1.37325
-0.940056
-0.542257
-0.192772
0.103573
0.35092
0.559206
0.73959
0.900887
1.04824
1.18365
1.3072
1.41813
1.51553
1.59873
1.66739
1.72156
1.76161
1.7882
1.80221
1.80466
1.7967
1.77957
1.75451
1.72283
1.68575
1.64447
1.60008
1.55352
1.50559
1.4569
1.40792
1.35897
1.31024
1.26179
1.21365
1.16574
1.11798
1.07024
1.02238
0.974266
0.925762
0.876737
0.827073
0.776669
0.725434
0.6733
0.620204
0.566114
0.510984
0.454835
0.39756
0.339376
0.279707
0.219762
0.156444
0.0959714
0.0233743
-6.1866
-6.21315
-6.2379
-6.26017
-6.2791
-6.29377
-6.30365
-6.30866
-6.30907
-6.30546
-6.29866
-6.28967
-6.27956
-6.26927
-6.25956
-6.25086
-6.2432
-6.23616
-6.22885
-6.21994
-6.2077
-6.19013
-6.165
-6.12995
-6.08258
-6.02052
-5.94143
-5.84308
-5.72336
-5.58025
-5.41189
-5.21662
-4.99295
-4.73974
-4.45622
-4.14221
-3.79827
-3.42593
-3.02797
-2.60872
-2.17436
-1.7333
-1.29646
-0.877155
-0.48979
-0.146249
0.148137
0.395779
0.604622
0.784442
0.943621
1.08758
1.21889
1.33817
1.44502
1.53878
1.61887
1.68496
1.73707
1.77549
1.80081
1.8138
1.81542
1.80673
1.78889
1.76313
1.7307
1.69283
1.6507
1.60542
1.55794
1.5091
1.45953
1.40974
1.36006
1.31067
1.26168
1.21309
1.16483
1.1168
1.06888
1.02091
0.972749
0.924243
0.875258
0.825665
0.775356
0.724235
0.672226
0.619265
0.565314
0.510321
0.454313
0.397155
0.339112
0.279464
0.219729
0.156007
0.0963351
0.021466
-6.15678
-6.1799
-6.20119
-6.22009
-6.23594
-6.24804
-6.25595
-6.25957
-6.25908
-6.25491
-6.24768
-6.23818
-6.22721
-6.2155
-6.2036
-6.19182
-6.1801
-6.16801
-6.15474
-6.13907
-6.11945
-6.09407
-6.06091
-6.01781
-5.96259
-5.89303
-5.80697
-5.70233
-5.57711
-5.42945
-5.25764
-5.06013
-4.83564
-4.58317
-4.30215
-3.99256
-3.65511
-3.29141
-2.90426
-2.49781
-2.07789
-1.65228
-1.2308
-0.825287
-0.448457
-0.11114
0.181058
0.429089
0.63904
0.819236
0.977424
1.11911
1.24731
1.36313
1.46658
1.55725
1.63467
1.69857
1.74895
1.78605
1.81037
1.82262
1.82367
1.81452
1.79626
1.77007
1.73716
1.69875
1.65601
1.61004
1.56184
1.51224
1.46193
1.41142
1.36107
1.31108
1.26157
1.21254
1.16394
1.11565
1.06753
1.01944
0.971206
0.922682
0.873717
0.824178
0.773948
0.722926
0.67103
0.618191
0.56437
0.509506
0.453632
0.396589
0.338683
0.279062
0.219536
0.155438
0.0965905
0.0194802
-6.12704
-6.14701
-6.16513
-6.18097
-6.19401
-6.20368
-6.20964
-6.21176
-6.21016
-6.20513
-6.19715
-6.1868
-6.17467
-6.1613
-6.1471
-6.13222
-6.11655
-6.09967
-6.0808
-6.05882
-6.03236
-5.99975
-5.95917
-5.90866
-5.8462
-5.76976
-5.67735
-5.56701
-5.4369
-5.28531
-5.11064
-4.91153
-4.68682
-4.43569
-4.15773
-3.85308
-3.52255
-3.16784
-2.79169
-2.3981
-1.99256
-1.58218
-1.17582
-0.783942
-0.417718
-0.0869213
0.202772
0.451132
0.662565
0.84393
1.00217
1.14268
1.26877
1.38199
1.48274
1.57086
1.64608
1.70817
1.75714
1.7932
1.8168
1.82857
1.82931
1.81996
1.80154
1.77519
1.74206
1.70336
1.66025
1.61383
1.5651
1.51492
1.46401
1.41289
1.36196
1.31144
1.26145
1.21201
1.16306
1.1145
1.06619
1.01795
0.969639
0.921078
0.872116
0.822613
0.772445
0.721504
0.669707
0.616978
0.563275
0.508534
0.452786
0.395855
0.338083
0.278496
0.219178
0.154739
0.0967333
0.0174354
-6.09742
-6.11449
-6.12973
-6.14277
-6.15321
-6.16059
-6.16461
-6.16516
-6.16227
-6.15616
-6.14716
-6.13568
-6.12215
-6.10695
-6.09034
-6.07238
-6.0529
-6.03146
-6.00734
-5.97951
-5.9467
-5.90743
-5.86003
-5.80271
-5.73365
-5.65095
-5.55279
-5.43737
-5.30299
-5.14806
-4.97114
-4.77101
-4.54666
-4.29742
-4.02304
-3.72377
-3.40054
-3.05506
-2.69005
-2.30931
-1.91798
-1.52257
-1.13103
-0.752587
-0.397012
-0.0730393
0.213759
0.462244
0.675347
0.858501
1.01772
1.15809
1.28308
1.39458
1.49335
1.57954
1.65302
1.71369
1.76158
1.79689
1.82002
1.83156
1.83224
1.82292
1.8046
1.77834
1.74526
1.70653
1.6633
1.61666
1.56761
1.51704
1.46568
1.41409
1.36267
1.31169
1.26127
1.21145
1.16219
1.11336
1.06484
1.01646
0.968049
0.919434
0.870456
0.82097
0.770845
0.71997
0.668256
0.615623
0.562027
0.507398
0.45177
0.394948
0.337305
0.277764
0.218651
0.153917
0.09676
0.0153516
-6.06798
-6.08237
-6.09496
-6.10543
-6.11346
-6.11867
-6.12079
-6.1197
-6.1154
-6.10803
-6.09778
-6.08496
-6.06985
-6.05268
-6.03361
-6.0126
-5.98945
-5.96371
-5.93467
-5.90141
-5.86276
-5.81737
-5.76373
-5.70022
-5.62515
-5.53681
-5.43352
-5.31362
-5.17555
-5.01787
-4.83929
-4.6387
-4.41525
-4.16842
-3.89807
-3.60458
-3.28894
-2.95289
-2.59907
-2.2311
-1.85375
-1.47299
-1.09592
-0.730673
-0.385757
-0.0689107
0.214543
0.462813
0.677587
0.862958
1.02394
1.16514
1.29001
1.40069
1.49827
1.58314
1.6554
1.71506
1.7622
1.79705
1.81997
1.83151
1.83236
1.82333
1.80534
1.77941
1.74664
1.70813
1.66502
1.6184
1.56926
1.5185
1.46686
1.41493
1.36315
1.31179
1.26101
1.21086
1.1613
1.11222
1.0635
1.01496
0.966437
0.917751
0.86874
0.819251
0.769151
0.718324
0.666676
0.614125
0.560623
0.506096
0.45058
0.393864
0.336347
0.276864
0.217955
0.152979
0.0966685
0.0132505
-6.03877
-6.0507
-6.06083
-6.06893
-6.0747
-6.07783
-6.07809
-6.07534
-6.06954
-6.06076
-6.04912
-6.03479
-6.01795
-5.99873
-5.97717
-5.95318
-5.9265
-5.89669
-5.86307
-5.82479
-5.78078
-5.7298
-5.67048
-5.60136
-5.52089
-5.42751
-5.31968
-5.1959
-5.05473
-4.89488
-4.71518
-4.51467
-4.29264
-4.04868
-3.78277
-3.49538
-3.18756
-2.86106
-2.51841
-2.16305
-1.79942
-1.43293
-1.06996
-0.717635
-0.383358
-0.0739259
0.205691
0.453288
0.669547
0.857355
1.0207
1.16359
1.28929
1.40008
1.49725
1.58149
1.65308
1.71217
1.75894
1.79362
1.8166
1.82839
1.82963
1.8211
1.80367
1.77832
1.74609
1.70805
1.66532
1.61894
1.56994
1.51919
1.46745
1.41535
1.36332
1.31169
1.26063
1.21019
1.16037
1.11106
1.06214
1.01344
0.9648
0.91603
0.866968
0.817458
0.767365
0.716567
0.664968
0.612484
0.559063
0.504628
0.449215
0.392603
0.335208
0.275799
0.21709
0.151932
0.096458
0.0111552
-6.00985
-6.01949
-6.02735
-6.03323
-6.03689
-6.03804
-6.03647
-6.03203
-6.02467
-6.01439
-6.00123
-5.98528
-5.96661
-5.94528
-5.92124
-5.89435
-5.86431
-5.83068
-5.79281
-5.74991
-5.70099
-5.64493
-5.58048
-5.50631
-5.42102
-5.32319
-5.21141
-5.08431
-4.94061
-4.77914
-4.59885
-4.39893
-4.17877
-3.93809
-3.67697
-3.39596
-3.09614
-2.77924
-2.44769
-2.10475
-1.7545
-1.40189
-1.0526
-0.712896
-0.3892
-0.0874467
0.187821
0.434187
0.65157
0.841818
1.00793
1.15322
1.28064
1.39242
1.49003
1.57436
1.64589
1.70491
1.7517
1.78655
1.80986
1.82214
1.824
1.81619
1.79955
1.77499
1.74353
1.7062
1.66407
1.61819
1.56953
1.519
1.46737
1.41525
1.36312
1.31133
1.26007
1.20941
1.15937
1.10986
1.06076
1.01191
0.963135
0.91427
0.865141
0.815593
0.765487
0.7147
0.663133
0.6107
0.557346
0.502993
0.447674
0.391164
0.333889
0.27457
0.216059
0.150787
0.0961292
0.0090904
-5.98128
-5.98878
-5.99451
-5.99833
-5.99999
-5.99924
-5.99588
-5.98976
-5.9808
-5.96894
-5.95418
-5.93653