/*--------------------------------*- C++ -*----------------------------------*\
| =========                 |                                                 |
| \\      /  F ield         | OpenFOAM: The Open Source CFD Toolbox           |
|  \\    /   O peration     | Version:  4.1                                   |
|   \\  /    A nd           | Web:      www.OpenFOAM.org                      |
|    \\/     M anipulation  |                                                 |
\*---------------------------------------------------------------------------*/
FoamFile
{
    version     2.0;
    format      ascii;
    class       surfaceScalarField;
    location    "300";
    object      phi;
}
// * * * * * * * * * * * * * * * * * * * * * * * * * * * * * * * * * * * * * //

dimensions      [0 3 -1 0 0 0 0];

internalField   nonuniform List<scalar> 
13452
(
6.28704e-05
-2.60197e-06
6.37407e-05
-8.70312e-07
6.46299e-05
-8.89127e-07
6.41078e-05
5.22043e-07
6.28947e-05
1.21313e-06
6.15523e-05
1.34241e-06
6.02838e-05
1.26846e-06
5.91296e-05
1.15422e-06
5.80896e-05
1.04001e-06
5.71555e-05
9.34084e-07
5.6316e-05
8.39498e-07
5.55592e-05
7.56868e-07
5.48742e-05
6.84952e-07
5.42523e-05
6.21941e-07
5.3686e-05
5.66266e-07
5.31693e-05
5.16705e-07
5.2697e-05
4.72267e-07
5.22649e-05
4.32128e-07
5.18693e-05
3.95602e-07
5.15072e-05
3.62117e-07
5.1176e-05
3.31187e-07
5.08736e-05
3.02385e-07
5.05983e-05
2.75327e-07
5.03486e-05
2.49655e-07
5.01236e-05
2.2502e-07
4.99225e-05
2.01063e-07
4.97451e-05
1.77397e-07
4.95916e-05
1.53533e-07
4.94626e-05
1.29006e-07
4.93602e-05
1.02393e-07
4.9286e-05
7.42221e-08
4.92553e-05
3.07365e-08
-9.90283e-09
4.92652e-05
6.30683e-05
-3.67988e-06
6.27998e-05
-6.01891e-07
6.21242e-05
-2.13501e-07
6.23373e-05
3.08922e-07
6.27957e-05
7.54732e-07
6.31962e-05
9.41939e-07
6.34658e-05
9.98806e-07
6.36123e-05
1.00774e-06
6.36614e-05
9.90959e-07
6.36388e-05
9.56624e-07
6.35655e-05
9.12796e-07
6.34569e-05
8.65546e-07
6.33239e-05
8.17923e-07
6.31746e-05
7.71194e-07
6.30149e-05
7.25978e-07
6.2849e-05
6.82612e-07
6.26801e-05
6.41212e-07
6.25105e-05
6.0174e-07
6.2342e-05
5.64077e-07
6.2176e-05
5.28065e-07
6.20137e-05
4.93518e-07
6.18559e-05
4.60232e-07
6.17032e-05
4.27981e-07
6.15563e-05
3.9652e-07
6.14158e-05
3.65577e-07
6.1282e-05
3.34831e-07
6.11555e-05
3.03913e-07
6.10368e-05
2.72276e-07
6.09264e-05
2.39392e-07
6.08253e-05
2.03472e-07
6.07351e-05
1.64373e-07
6.06549e-05
1.10965e-07
6.34107e-08
6.05816e-05
6.23307e-05
-2.24914e-06
6.26624e-05
-9.33626e-07
6.28112e-05
-3.62265e-07
6.30975e-05
2.25505e-08
6.34279e-05
4.24331e-07
6.37175e-05
6.52352e-07
6.39585e-05
7.57813e-07
6.41543e-05
8.11933e-07
6.43083e-05
8.36955e-07
6.44258e-05
8.39144e-07
6.45129e-05
8.25695e-07
6.45753e-05
8.03194e-07
6.46176e-05
7.75568e-07
6.46439e-05
7.44901e-07
6.46574e-05
7.12515e-07
6.46607e-05
6.79332e-07
6.46559e-05
6.45939e-07
6.4645e-05
6.12667e-07
6.46294e-05
5.7969e-07
6.46104e-05
5.47077e-07
6.45891e-05
5.14819e-07
6.45665e-05
4.82848e-07
6.45434e-05
4.5104e-07
6.45207e-05
4.19222e-07
6.44991e-05
3.8717e-07
6.44793e-05
3.54586e-07
6.44622e-05
3.21096e-07
6.44483e-05
2.8614e-07
6.44386e-05
2.49085e-07
6.44337e-05
2.08425e-07
6.44346e-05
1.63474e-07
6.44366e-05
1.08969e-07
5.47618e-08
6.44452e-05
6.47768e-05
-1.44283e-06
6.47353e-05
-8.92207e-07
6.47861e-05
-4.13037e-07
6.48954e-05
-8.67186e-08
6.50607e-05
2.59054e-07
6.5227e-05
4.86061e-07
6.53803e-05
6.04421e-07
6.55198e-05
6.72475e-07
6.56441e-05
7.12656e-07
6.57528e-05
7.30404e-07
6.58469e-05
7.31623e-07
6.59278e-05
7.2226e-07
6.59973e-05
7.06102e-07
6.60569e-05
6.85294e-07
6.61082e-05
6.61279e-07
6.61524e-05
6.3512e-07
6.61908e-05
6.07545e-07
6.62244e-05
5.79021e-07
6.62543e-05
5.49837e-07
6.62812e-05
5.20159e-07
6.63059e-05
4.9006e-07
6.63293e-05
4.59534e-07
6.63518e-05
4.28506e-07
6.63742e-05
3.96838e-07
6.6397e-05
3.64327e-07
6.64209e-05
3.30688e-07
6.64465e-05
2.95547e-07
6.64742e-05
2.58367e-07
6.65048e-05
2.18505e-07
6.65384e-05
1.74815e-07
6.65753e-05
1.26619e-07
6.66129e-05
7.13905e-08
1.32984e-08
6.66543e-05
6.7008e-05
-9.94041e-07
6.68594e-05
-7.43625e-07
6.68327e-05
-3.86303e-07
6.68601e-05
-1.14193e-07
6.6946e-05
1.7319e-07
6.70515e-05
3.8062e-07
6.7156e-05
4.99873e-07
6.72559e-05
5.72604e-07
6.73498e-05
6.18683e-07
6.74368e-05
6.43469e-07
6.75163e-05
6.52086e-07
6.75888e-05
6.49772e-07
6.76549e-05
6.40024e-07
6.77153e-05
6.24921e-07
6.77706e-05
6.05899e-07
6.78217e-05
5.8403e-07
6.78692e-05
5.60073e-07
6.79137e-05
5.34533e-07
6.79558e-05
5.0774e-07
6.7996e-05
4.79897e-07
6.8035e-05
4.51106e-07
6.80731e-05
4.21386e-07
6.8111e-05
3.90682e-07
6.81489e-05
3.58871e-07
6.81875e-05
3.2576e-07
6.82271e-05
2.91073e-07
6.82682e-05
2.54449e-07
6.83112e-05
2.15397e-07
6.83564e-05
1.7333e-07
6.84038e-05
1.27403e-07
6.84534e-05
7.70286e-08
6.85038e-05
2.09149e-08
-3.93872e-08
6.85565e-05
6.90835e-05
-6.93468e-07
6.89339e-05
-5.94062e-07
6.88876e-05
-3.40001e-07
6.88889e-05
-1.15552e-07
6.8938e-05
1.24155e-07
6.90098e-05
3.08833e-07
6.90854e-05
4.24247e-07
6.916e-05
4.97992e-07
6.92325e-05
5.46194e-07
6.93018e-05
5.74215e-07
6.93671e-05
5.86713e-07
6.94286e-05
5.88301e-07
6.94864e-05
5.82181e-07
6.9541e-05
5.70361e-07
6.95927e-05
5.54247e-07
6.96418e-05
5.34888e-07
6.96888e-05
5.13035e-07
6.97342e-05
4.89199e-07
6.97782e-05
4.63723e-07
6.98213e-05
4.36819e-07
6.98638e-05
4.08601e-07
6.99061e-05
3.79095e-07
6.99485e-05
3.48255e-07
6.99914e-05
3.15964e-07
7.00351e-05
2.82038e-07
7.008e-05
2.46216e-07
7.01263e-05
2.08163e-07
7.01742e-05
1.67445e-07
7.0224e-05
1.2356e-07
7.02755e-05
7.58852e-08
7.03286e-05
2.39387e-08
7.03825e-05
-3.3008e-08
-9.44808e-08
7.04376e-05
7.1151e-05
-4.78109e-07
7.10208e-05
-4.6392e-07
7.09689e-05
-2.88099e-07
7.09584e-05
-1.05027e-07
7.09872e-05
9.53332e-08
7.10383e-05
2.5772e-07
7.1096e-05
3.66558e-07
7.1155e-05
4.39062e-07
7.12137e-05
4.87471e-07
7.12711e-05
5.16847e-07
7.13263e-05
5.31444e-07
7.13793e-05
5.35306e-07
7.14301e-05
5.3135e-07
7.1479e-05
5.21499e-07
7.15261e-05
5.07123e-07
7.15718e-05
4.89241e-07
7.16162e-05
4.68586e-07
7.16598e-05
4.45668e-07
7.17026e-05
4.2083e-07
7.17452e-05
3.94288e-07
7.17876e-05
3.6616e-07
7.18302e-05
3.36476e-07
7.18733e-05
3.05197e-07
7.1917e-05
2.72212e-07
7.19617e-05
2.37351e-07
7.20076e-05
2.00375e-07
7.20548e-05
1.60983e-07
7.21034e-05
1.18808e-07
7.21535e-05
7.34378e-08
7.2205e-05
2.44104e-08
7.22576e-05
-2.86477e-08
7.23107e-05
-8.61744e-08
-1.48045e-07
7.23643e-05
7.3251e-05
-3.23799e-07
7.31399e-05
-3.52806e-07
7.3086e-05
-2.34233e-07
7.30684e-05
-8.74322e-08
7.30847e-05
7.90642e-08
7.31221e-05
2.20323e-07
7.31678e-05
3.20847e-07
7.32164e-05
3.90432e-07
7.32661e-05
4.37811e-07
7.33155e-05
4.67429e-07
7.33638e-05
4.83077e-07
7.34109e-05
4.88273e-07
7.34566e-05
4.85648e-07
7.35011e-05
4.77023e-07
7.35445e-05
4.6372e-07
7.3587e-05
4.4672e-07
7.36288e-05
4.26741e-07
7.36702e-05
4.04282e-07
7.37114e-05
3.79687e-07
7.37525e-05
3.53173e-07
7.37938e-05
3.24861e-07
7.38355e-05
2.94787e-07
7.38777e-05
2.62918e-07
7.39208e-05
2.29157e-07
7.39648e-05
1.93351e-07
7.40099e-05
1.55289e-07
7.40561e-05
1.14715e-07
7.41036e-05
7.13251e-08
7.41523e-05
2.4795e-08
7.42019e-05
-2.5212e-08
7.42522e-05
-7.89674e-08
7.43028e-05
-1.36728e-07
-1.98417e-07
7.43531e-05
7.53932e-05
-2.14577e-07
7.52998e-05
-2.59393e-07
7.52468e-05
-1.81168e-07
7.52249e-05
-6.5573e-08
7.52326e-05
7.13444e-08
7.52601e-05
1.92801e-07
7.52971e-05
2.83919e-07
7.53382e-05
3.49273e-07
7.53814e-05
3.94655e-07
7.54251e-05
4.2369e-07
7.54686e-05
4.39639e-07
7.55113e-05
4.4552e-07
7.55533e-05
4.43675e-07
7.55945e-05
4.358e-07
7.56351e-05
4.23152e-07
7.56751e-05
4.06673e-07
7.57148e-05
3.87054e-07
7.57543e-05
3.64787e-07
7.57938e-05
3.4021e-07
7.58334e-05
3.13545e-07
7.58734e-05
2.84913e-07
7.59138e-05
2.5436e-07
7.59549e-05
2.21863e-07
7.59967e-05
1.87341e-07
7.60394e-05
1.50662e-07
7.6083e-05
1.11652e-07
7.61276e-05
7.00972e-08
7.61732e-05
2.57602e-08
7.62196e-05
-2.16045e-08
7.62666e-05
-7.22318e-08
7.63139e-05
-1.26299e-07
7.63611e-05
-1.83931e-07
-2.44985e-07
7.64077e-05
7.75833e-05
-1.38292e-07
7.75068e-05
-1.82867e-07
7.74571e-05
-1.31452e-07
7.74331e-05
-4.1613e-08
7.74348e-05
6.96847e-08
7.74548e-05
1.72795e-07
7.74848e-05
2.53897e-07
7.752e-05
3.14016e-07
7.75581e-05
3.56589e-07
7.75974e-05
3.84349e-07
7.76371e-05
3.99982e-07
7.76766e-05
4.06028e-07
7.77157e-05
4.04538e-07
7.77545e-05
3.9706e-07
7.77928e-05
3.84773e-07
7.7831e-05
3.68568e-07
7.78689e-05
3.49106e-07
7.79068e-05
3.26867e-07
7.79448e-05
3.02185e-07
7.79831e-05
2.75279e-07
7.80217e-05
2.46277e-07
7.80609e-05
2.15234e-07
7.81006e-05
1.82139e-07
7.8141e-05
1.46931e-07
7.81822e-05
1.09506e-07
7.82241e-05
6.97223e-08
7.82668e-05
2.74155e-08
7.83101e-05
-1.75927e-08
7.8354e-05
-6.54759e-08
7.83981e-05
-1.16384e-07
7.84423e-05
-1.7041e-07
7.84859e-05
-2.27573e-07
-2.87628e-07
7.85285e-05
7.98258e-05
-8.58206e-08
7.9765e-05
-1.21991e-07
7.97206e-05
-8.70617e-08
7.96964e-05
-1.74648e-08
7.9694e-05
7.21401e-08
7.97082e-05
1.58566e-07
7.97326e-05
2.2948e-07
7.9763e-05
2.83664e-07
7.97968e-05
3.22761e-07
7.98325e-05
3.48648e-07
7.98691e-05
3.63431e-07
7.99059e-05
3.69193e-07
7.99427e-05
3.67695e-07
7.99795e-05
3.60325e-07
8.00161e-05
3.48165e-07
8.00526e-05
3.32048e-07
8.00891e-05
3.12601e-07
8.01257e-05
2.90284e-07
8.01624e-05
2.65425e-07
8.01995e-05
2.38243e-07
8.02369e-05
2.08871e-07
8.02747e-05
1.77372e-07
8.03131e-05
1.43752e-07
8.03521e-05
1.07971e-07
8.03916e-05
6.99522e-08
8.04318e-05
2.95909e-08
8.04724e-05
-1.32324e-08
8.05135e-05
-5.86407e-08
8.05547e-05
-1.06744e-07
8.0596e-05
-1.5762e-07
8.06369e-05
-2.11291e-07
8.0677e-05
-2.67684e-07
-3.26447e-07
8.07158e-05
8.2125e-05
-5.03457e-08
8.2078e-05
-7.4985e-08
8.20401e-05
-4.92231e-08
8.20174e-05
5.21096e-09
8.20126e-05
7.69918e-08
8.20225e-05
1.48627e-07
8.20424e-05
2.09596e-07
8.20686e-05
2.57456e-07
8.20988e-05
2.92578e-07
8.21314e-05
3.16093e-07
8.21652e-05
3.29562e-07
8.21998e-05
3.34645e-07
8.22347e-05
3.32819e-07
8.22697e-05
3.25303e-07
8.23048e-05
3.13071e-07
8.23399e-05
2.9689e-07
8.23752e-05
2.77348e-07
8.24106e-05
2.54883e-07
8.24462e-05
2.2981e-07
8.24821e-05
2.02347e-07
8.25183e-05
1.72633e-07
8.2555e-05
1.40741e-07
8.2592e-05
1.06694e-07
8.26295e-05
7.04711e-08
8.26675e-05
3.20251e-08
8.27058e-05
-8.71294e-09
8.27443e-05
-5.18204e-08
8.27831e-05
-9.73706e-08
8.28217e-05
-1.45418e-07
8.28601e-05
-1.95983e-07
8.28978e-05
-2.49022e-07
8.29345e-05
-3.04387e-07
-3.6163e-07
8.29697e-05
8.44842e-05
-2.68026e-08
8.4449e-05
-3.97635e-08
8.44182e-05
-1.84053e-08
8.43983e-05
2.51409e-08
8.43925e-05
8.27292e-08
8.43995e-05
1.41628e-07
8.44159e-05
1.93261e-07
8.44386e-05
2.34712e-07
8.44656e-05
2.65548e-07
8.44954e-05
2.86309e-07
8.45269e-05
2.98081e-07
8.45594e-05
3.02143e-07
8.45925e-05
2.99707e-07
8.4626e-05
2.91818e-07
8.46597e-05
2.7934e-07
8.46936e-05
2.62968e-07
8.47278e-05
2.43243e-07
8.47621e-05
2.20577e-07
8.47966e-05
1.95274e-07
8.48314e-05
1.67547e-07
8.48665e-05
1.37539e-07
8.49019e-05
1.05333e-07
8.49376e-05
7.0967e-08
8.49737e-05
3.44438e-08
8.50099e-05
-4.25826e-09
8.50464e-05
-4.51746e-08
8.50829e-05
-8.83439e-08
8.51193e-05
-1.33796e-07
8.51555e-05
-1.81539e-07
8.5191e-05
-2.31542e-07
8.52257e-05
-2.83711e-07
8.52592e-05
-3.37832e-07
-3.93377e-07
8.52909e-05
8.69069e-05
-1.14915e-08
8.68813e-05
-1.41899e-08
8.68573e-05
5.56023e-09
8.68409e-05
4.15303e-08
8.68355e-05
8.81247e-08
8.68408e-05
1.36362e-07
8.68545e-05
1.7954e-07
8.68745e-05
2.14777e-07
8.68988e-05
2.41211e-07
8.69261e-05
2.58967e-07
8.69555e-05
2.68748e-07
8.69861e-05
2.71508e-07
8.70176e-05
2.68221e-07
8.70496e-05
2.59764e-07
8.70821e-05
2.46889e-07
8.71148e-05
2.30215e-07
8.71479e-05
2.10236e-07
8.71811e-05
1.87335e-07
8.72146e-05
1.61799e-07
8.72483e-05
1.33838e-07
8.72822e-05
1.03595e-07
8.73164e-05
7.11635e-08
8.73508e-05
3.65963e-08
8.73853e-05
-8.37513e-11
8.74199e-05
-3.88727e-08
8.74545e-05
-7.97761e-08
8.7489e-05
-1.22798e-07
8.75231e-05
-1.67932e-07
8.75567e-05
-2.15146e-07
8.75895e-05
-2.6437e-07
8.76213e-05
-3.15466e-07
8.76516e-05
-3.68166e-07
-4.21879e-07
8.76801e-05
8.93958e-05
-1.76943e-09
8.93779e-05
3.74263e-09
8.93602e-05
2.32923e-08
8.93476e-05
5.40596e-08
8.93434e-05
9.22989e-08
8.9348e-05
1.31823e-07
8.93599e-05
1.67582e-07
8.93777e-05
1.97014e-07
8.93998e-05
2.19112e-07
8.9425e-05
2.33748e-07
8.94524e-05
2.41343e-07
8.94813e-05
2.42592e-07
8.95113e-05
2.38258e-07
8.9542e-05
2.2907e-07
8.95732e-05
2.15671e-07
8.96048e-05
1.98606e-07
8.96367e-05
1.78318e-07
8.96689e-05
1.5516e-07
8.97013e-05
1.29402e-07
8.97339e-05
1.01245e-07
8.97667e-05
7.08355e-08
8.97996e-05
3.82735e-08
8.98325e-05
3.62499e-09
8.98655e-05
-3.30683e-08
8.98984e-05
-7.17799e-08
8.99311e-05
-1.12489e-07
8.99635e-05
-1.5517e-07
8.99954e-05
-1.99785e-07
9.00265e-05
-2.46272e-07
9.00566e-05
-2.94526e-07
9.00856e-05
-3.44376e-07
9.01129e-05
-3.95511e-07
-4.47295e-07
9.01383e-05
9.19539e-05
4.21305e-09
9.19418e-05
1.58007e-08
9.19294e-05
3.56648e-08
9.19207e-05
6.28067e-08
9.19183e-05
9.47373e-08
9.19228e-05
1.27255e-07
9.19337e-05
1.56661e-07
9.19499e-05
1.80838e-07
9.19702e-05
1.98814e-07
9.19936e-05
2.10341e-07
9.20193e-05
2.15654e-07
9.20467e-05
2.15252e-07
9.20752e-05
2.09731e-07
9.21046e-05
1.99687e-07
9.21346e-05
1.85666e-07
9.2165e-05
1.6814e-07
9.21959e-05
1.47506e-07
9.22269e-05
1.24083e-07
9.22582e-05
9.81234e-08
9.22896e-05
6.98198e-08
9.23212e-05
3.93176e-08
9.23527e-05
6.7233e-09
9.23842e-05
-2.78855e-08
9.24156e-05
-6.44513e-08
9.24467e-05
-1.02928e-07
9.24775e-05
-1.43271e-07
9.25078e-05
-1.85432e-07
9.25374e-05
-2.29349e-07
9.2566e-05
-2.74932e-07
9.25935e-05
-3.22053e-07
9.26197e-05
-3.70512e-07
9.26441e-05
-4.19967e-07
-4.69753e-07
9.26666e-05
9.45836e-05
7.72695e-09
9.4576e-05
2.34651e-08
9.4568e-05
4.3645e-08
9.45627e-05
6.81332e-08
9.45622e-05
9.52567e-08
9.45672e-05
1.22171e-07
9.45777e-05
1.46224e-07
9.45928e-05
1.65754e-07
9.46117e-05
1.79919e-07
9.46335e-05
1.8845e-07
9.46577e-05
1.91475e-07
9.46836e-05
1.89357e-07
9.47108e-05
1.82563e-07
9.47389e-05
1.71579e-07
9.47677e-05
1.56868e-07
9.4797e-05
1.38837e-07
9.48267e-05
1.17836e-07
9.48566e-05
9.41543e-08
9.48867e-05
6.80245e-08
9.49169e-05
3.96305e-08
9.49471e-05
9.11536e-09
9.49772e-05
-2.34101e-08
9.50072e-05
-5.78589e-08
9.50369e-05
-9.41602e-08
9.50662e-05
-1.32251e-07
9.5095e-05
-1.7207e-07
9.51231e-05
-2.13548e-07
9.51504e-05
-2.56603e-07
9.51766e-05
-3.01128e-07
9.52015e-05
-3.46974e-07
9.52249e-05
-3.93921e-07
9.52466e-05
-4.41606e-07
-4.8935e-07
9.52662e-05
9.72876e-05
9.63425e-09
9.72831e-05
2.79328e-08
9.72786e-05
4.81824e-08
9.72762e-05
7.05704e-08
9.72775e-05
9.39381e-08
9.72833e-05
1.16346e-07
9.72936e-05
1.35915e-07
9.7308e-05
1.51393e-07
9.73258e-05
1.62108e-07
9.73464e-05
1.67826e-07
9.73693e-05
1.68627e-07
9.73938e-05
1.6479e-07
9.74197e-05
1.56687e-07
9.74466e-05
1.44722e-07
9.74742e-05
1.29284e-07
9.75023e-05
1.10727e-07
9.75307e-05
8.93584e-08
9.75595e-05
6.54387e-08
9.75883e-05
3.91818e-08
9.76172e-05
1.07614e-08
9.7646e-05
-1.96825e-08
9.76746e-05
-5.20364e-08
9.77029e-05
-8.62065e-08
9.77309e-05
-1.22111e-07
9.77583e-05
-1.59675e-07
9.77851e-05
-1.98822e-07
9.7811e-05
-2.39468e-07
9.78359e-05
-2.81516e-07
9.78596e-05
-3.24846e-07
9.78819e-05
-3.69296e-07
9.79026e-05
-4.14633e-07
9.79215e-05
-4.60479e-07
-5.06152e-07
9.79383e-05
0.000100068
1.05147e-08
0.000100066
3.0147e-08
0.000100064
5.0145e-08
0.000100064
7.07264e-08
0.000100067
9.10499e-08
0.000100073
1.09771e-07
0.000100084
1.2557e-07
0.000100098
1.37532e-07
0.000100114
1.45159e-07
0.000100134
1.48282e-07
0.000100156
1.46973e-07
0.000100179
1.41462e-07
0.000100204
1.3206e-07
0.000100229
1.19108e-07
0.000100256
1.02938e-07
0.000100282
8.38574e-08
0.00010031
6.2139e-08
0.000100337
3.80159e-08
0.000100365
1.16847e-08
0.000100392
-1.66912e-08
0.000100419
-4.69759e-08
0.000100446
-7.90551e-08
0.000100473
-1.1283e-07
0.000100499
-1.48212e-07
0.000100525
-1.85116e-07
0.000100549
-2.23454e-07
0.000100573
-2.63133e-07
0.000100595
-3.04046e-07
0.000100617
-3.46062e-07
0.000100636
-3.89014e-07
0.000100654
-4.32659e-07
0.00010067
-4.76615e-07
-5.20203e-07
0.000100685
0.000102928
1.07585e-08
0.000102927
3.08417e-08
0.000102927
5.02944e-08
0.000102928
6.92229e-08
0.000102933
8.69782e-08
0.00010294
1.02609e-07
0.00010295
1.15195e-07
0.000102964
1.24094e-07
0.00010298
1.28967e-07
0.000102998
1.29717e-07
0.000103019
1.26435e-07
0.000103041
1.19329e-07
0.000103064
1.0867e-07
0.000103089
9.47543e-08
0.000103114
7.78716e-08
0.000103139
5.82921e-08
0.000103165
3.62576e-08
0.000103191
1.19783e-08
0.000103217
-1.43656e-08
0.000103243
-4.26206e-08
0.000103269
-7.2656e-08
0.000103294
-1.04358e-07
0.000103319
-1.37626e-07
0.000103343
-1.72365e-07
0.000103367
-2.08484e-07
0.000103389
-2.4589e-07
0.00010341
-2.84481e-07
0.00010343
-3.24144e-07
0.000103449
-3.64745e-07
0.000103466
-4.06111e-07
0.000103482
-4.48e-07
0.000103495
-4.90029e-07
-5.3153e-07
0.000103506
0.000105869
1.06318e-08
0.000105869
3.05879e-08
0.00010587
4.92865e-08
0.000105873
6.66603e-08
0.000105877
8.2175e-08
0.000105885
9.51461e-08
0.000105895
1.04943e-07
0.000105908
1.11142e-07
0.000105924
1.13543e-07
0.000105941
1.12127e-07
0.000105961
1.07012e-07
0.000105982
9.84022e-08
0.000106004
8.65472e-08
0.000106027
7.17117e-08
0.00010605
5.4154e-08
0.000106075
3.41148e-08
0.000106099
1.18105e-08
0.000106124
-1.25688e-08
0.000106148
-3.88576e-08
0.000106172
-6.69125e-08
0.000106196
-9.66081e-08
0.00010622
-1.27833e-07
0.000106243
-1.60486e-07
0.000106265
-1.94471e-07
0.000106286
-2.29692e-07
0.000106306
-2.66052e-07
0.000106325
-3.03448e-07
0.000106343
-3.41762e-07
0.000106359
-3.8086e-07
0.000106373
-4.2057e-07
0.000106386
-4.60652e-07
0.000106397
-5.00728e-07
-5.40147e-07
0.000106405
0.000108894
1.0323e-08
0.000108894
2.98404e-08
0.000108896
4.76907e-08
0.000108899
6.36088e-08
0.000108904
7.71281e-08
0.000108912
8.77548e-08
0.000108921
9.50794e-08
0.000108934
9.88575e-08
0.000108948
9.9013e-08
0.000108965
9.56034e-08
0.000108983
8.87815e-08
0.000109003
7.87582e-08
0.000109023
6.57729e-08
0.000109045
5.00697e-08
0.000109067
3.18837e-08
0.00010909
1.14323e-08
0.000109113
-1.10894e-08
0.000109136
-3.55082e-08
0.000109159
-6.16724e-08
0.000109181
-8.94482e-08
0.000109203
-1.18717e-07
0.000109225
-1.49371e-07
0.000109246
-1.81309e-07
0.000109266
-2.14436e-07
0.000109285
-2.48656e-07
0.000109302
-2.83871e-07
0.000109319
-3.19976e-07
0.000109334
-3.56857e-07
0.000109348
-3.94379e-07
0.000109359
-4.32375e-07
0.000109369
-4.70611e-07
0.000109377
-5.0872e-07
-5.46071e-07
0.000109383
0.000112005
9.9747e-09
0.000112006
2.89795e-08
0.000112007
4.60188e-08
0.00011201
6.06187e-08
0.000112015
7.23526e-08
0.000112022
8.08769e-08
0.000112031
8.59637e-08
0.000112042
8.75267e-08
0.000112056
8.56059e-08
0.000112071
8.0334e-08
0.000112088
7.1904e-08
0.000112106
6.05414e-08
0.000112126
4.64828e-08
0.000112146
2.99599e-08
0.000112166
1.11905e-08
0.000112187
-9.62703e-09
0.000112209
-3.23147e-08
0.00011223
-5.67151e-08
0.000112251
-8.26889e-08
0.000112272
-1.10112e-07
0.000112292
-1.38873e-07
0.000112311
-1.68869e-07
0.00011233
-2.00003e-07
0.000112348
-2.32182e-07
0.000112364
-2.6531e-07
0.00011238
-2.99293e-07
0.000112394
-3.34027e-07
0.000112406
-3.69402e-07
0.000112417
-4.05289e-07
0.000112426
-4.41526e-07
0.000112434
-4.77888e-07
0.000112439
-5.14023e-07
-5.49324e-07
0.000112442
0.000115205
9.70819e-09
0.000115205
2.83534e-08
0.000115207
4.47653e-08
0.000115209
5.8248e-08
0.000115213
6.84031e-08
0.000115219
7.50223e-08
0.000115227
7.80441e-08
0.000115237
7.75336e-08
0.000115249
7.36472e-08
0.000115262
6.65959e-08
0.000115278
5.66184e-08
0.000115294
4.39612e-08
0.000115312
2.88643e-08
0.00011533
1.15524e-08
0.000115349
-7.76975e-09
0.000115369
-2.89187e-08
0.000115388
-5.1732e-08
0.000115407
-7.60661e-08
0.000115426
-1.01794e-07
0.000115445
-1.28802e-07
0.000115463
-1.56986e-07
0.000115481
-1.8625e-07
0.000115497
-2.16502e-07
0.000115513
-2.47654e-07
0.000115527
-2.79614e-07
0.00011554
-3.12291e-07
0.000115551
-3.45588e-07
0.000115561
-3.794e-07
0.00011557
-4.13603e-07
0.000115576
-4.48047e-07
0.000115581
-4.82517e-07
0.000115584
-5.16679e-07
-5.49952e-07
0.000115584
0.000118496
9.64342e-09
0.000118496
2.83211e-08
0.000118496
4.44563e-08
0.000118497
5.71069e-08
0.0001185
6.59059e-08
0.000118504
7.07884e-08
0.00011851
7.18649e-08
0.000118518
6.93602e-08
0.000118529
6.35561e-08
0.00011854
5.47504e-08
0.000118554
4.32349e-08
0.000118568
2.92837e-08
0.000118584
1.31459e-08
0.000118601
-4.95618e-09
0.000118618
-2.48273e-08
0.000118635
-4.62968e-08
0.000118653
-6.92161e-08
0.00011867
-9.34552e-08
0.000118687
-1.18899e-07
0.000118704
-1.45445e-07
0.00011872
-1.72999e-07
0.000118735
-2.01473e-07
0.000118749
-2.30782e-07
0.000118762
-2.60844e-07
0.000118774
-2.91574e-07
0.000118785
-3.22887e-07
0.000118794
-3.54693e-07
0.000118802
-3.86894e-07
0.000118807
-4.19378e-07
0.000118811
-4.52004e-07
0.000118813
-4.84572e-07
0.000118814
-5.16766e-07
-5.48035e-07
0.000118812
0.000121881
9.9209e-09
0.00012188
2.93079e-08
0.000121879
4.57188e-08
0.000121878
5.79244e-08
0.000121878
6.56145e-08
0.00012188
6.89003e-08
0.000121884
6.80919e-08
0.00012189
6.35985e-08
0.000121897
5.58466e-08
0.000121907
4.52354e-08
0.000121918
3.21211e-08
0.00012193
1.68132e-08
0.000121944
-4.23533e-10
0.000121958
-1.93655e-08
0.000121973
-3.98239e-08
0.000121989
-6.16396e-08
0.000122004
-8.46771e-08
0.00012202
-1.0882e-07
0.000122035
-1.33967e-07
0.000122049
-1.60028e-07
0.000122063
-1.86919e-07
0.000122076
-2.14563e-07
0.000122088
-2.42884e-07
0.000122099
-2.71808e-07
0.000122109
-3.0126e-07
0.000122117
-3.31163e-07
0.000122124
-3.61436e-07
0.000122129
-3.91992e-07
0.000122133
-4.22728e-07
0.000122134
-4.53518e-07
0.000122134
-4.84178e-07
0.000122131
-5.14412e-07
-5.43702e-07
0.000122127
0.000125363
1.07307e-08
0.00012536
3.18831e-08
0.000125356
4.93786e-08
0.000125353
6.16458e-08
0.00012535
6.84921e-08
0.000125348
7.02722e-08
0.000125349
6.75511e-08
0.000125352
6.09675e-08
0.000125356
5.11262e-08
0.000125363
3.85503e-08
0.000125371
2.36761e-08
0.000125381
6.85953e-09
0.000125393
-1.1613e-08
0.000125405
-3.15121e-08
0.000125418
-5.26539e-08
0.000125431
-7.48901e-08
0.000125444
-9.80994e-08
0.000125458
-1.22181e-07
0.000125471
-1.47048e-07
0.000125483
-1.72625e-07
0.000125495
-1.98842e-07
0.000125506
-2.25635e-07
0.000125516
-2.5294e-07
0.000125525
-2.80694e-07
0.000125533
-3.08833e-07
0.000125539
-3.37291e-07
0.000125543
-3.65999e-07
0.000125546
-3.9488e-07
0.000125548
-4.23847e-07
0.000125547
-4.52785e-07
0.000125544
-4.81531e-07
0.00012554
-5.09814e-07
-5.37146e-07
0.000125533
0.000128943
1.23619e-08
0.000128938
3.68867e-08
0.000128931
5.66145e-08
0.000128923
6.95771e-08
0.000128916
7.58295e-08
0.00012891
7.60891e-08
0.000128906
7.12726e-08
0.000128905
6.23242e-08
0.000128906
5.00793e-08
0.000128909
3.52188e-08
0.000128915
1.82798e-08
0.000128922
-3.22478e-10
0.000128931
-2.02729e-08
0.000128941
-4.13342e-08
0.000128951
-6.33274e-08
0.000128962
-8.61171e-08
0.000128974
-1.09599e-07
0.000128985
-1.33691e-07
0.000128997
-1.58325e-07
0.000129008
-1.83445e-07
0.000129018
-2.08998e-07
0.000129027
-2.34935e-07
0.000129035
-2.61208e-07
0.000129042
-2.87769e-07
0.000129048
-3.14568e-07
0.000129052
-3.41552e-07
0.000129055
-3.68666e-07
0.000129056
-3.95846e-07
0.000129055
-4.23019e-07
0.000129052
-4.5009e-07
0.000129048
-4.76913e-07
0.000129041
-5.03244e-07
-5.28632e-07
0.000129033
0.000132626
1.52947e-08
0.000132617
4.56484e-08
0.000132605
6.9203e-08
0.000132591
8.35988e-08
0.000132577
8.94012e-08
0.000132565
8.78975e-08
0.000132556
8.05192e-08
0.00013255
6.86413e-08
0.000132546
5.34084e-08
0.000132546
3.57049e-08
0.000132548
1.61952e-08
0.000132552
-4.63429e-09
0.000132559
-2.64363e-08
0.000132566
-4.89676e-08
0.000132575
-7.20595e-08
0.000132584
-9.55957e-08
0.000132594
-1.19496e-07
0.000132604
-1.43703e-07
0.000132614
-1.68177e-07
0.000132624
-1.92882e-07
0.000132632
-2.1779e-07
0.00013264
-2.42874e-07
0.000132647
-2.68105e-07
0.000132653
-2.93452e-07
0.000132657
-3.18883e-07
0.00013266
-3.44361e-07
0.000132661
-3.69846e-07
0.000132661
-3.95292e-07
0.000132658
-4.20642e-07
0.000132654
-4.45818e-07
0.000132648
-4.70698e-07
0.00013264
-4.95067e-07
-5.18511e-07
0.00013263
0.000136413
2.03856e-08
0.000136398
6.03849e-08
0.000136378
8.99178e-08
0.000136355
1.06471e-07
0.000136333
1.11651e-07
0.000136313
1.07669e-07
0.000136297
9.67515e-08
0.000136284
8.0903e-08
0.000136276
6.16885e-08
0.000136272
4.02499e-08
0.00013627
1.74019e-08
0.000136272
-6.29362e-09
0.000136276
-3.04654e-08
0.000136282
-5.48774e-08
0.000136289
-7.93857e-08
0.000136298
-1.03908e-07
0.000136306
-1.284e-07
0.000136316
-1.52843e-07
0.000136325
-1.77232e-07
0.000136333
-2.01565e-07
0.000136341
-2.25844e-07
0.000136349
-2.50068e-07
0.000136355
-2.74234e-07
0.00013636
-2.98334e-07
0.000136363
-3.22356e-07
0.000136365
-3.46282e-07
0.000136365
-3.70091e-07
0.000136364
-3.93754e-07
0.00013636
-4.17232e-07
0.000136355
-4.40469e-07
0.000136348
-4.63367e-07
0.000136338
-4.85743e-07
-5.07223e-07
0.000136327
0.000140307
2.92551e-08
0.000140282
8.49337e-08
0.000140249
1.23166e-07
0.000140213
1.42239e-07
0.000140179
1.4585e-07
0.000140149
1.37751e-07
0.000140124
1.21435e-07
0.000140105
9.98392e-08
0.000140092
7.50778e-08
0.000140084
4.85898e-08
0.00014008
2.13395e-08
0.00014008
-6.05891e-09
0.000140082
-3.32429e-08
0.000140087
-6.00174e-08
0.000140094
-8.62938e-08
0.000140102
-1.12049e-07
0.000140111
-1.373e-07
0.000140121
-1.62081e-07
0.00014013
-1.86436e-07
0.000140139
-2.1041e-07
0.000140147
-2.34044e-07
0.000140154
-2.57372e-07
0.00014016
-2.8042e-07
0.000140165
-3.0321e-07
0.000140169
-3.25752e-07
0.00014017
-3.48052e-07
0.00014017
-3.70108e-07
0.000140169
-3.91911e-07
0.000140165
-4.13443e-07
0.000140159
-4.34669e-07
0.000140151
-4.55517e-07
0.000140141
-4.75841e-07
-4.95311e-07
0.000140129
0.000144309
4.51536e-08
0.000144268
1.26102e-07
0.000144215
1.7594e-07
0.00014416
1.96653e-07
0.00014411
1.96069e-07
0.000144067
1.8052e-07
0.000144033
1.55543e-07
0.000144008
1.25399e-07
0.00014399
9.28313e-08
0.000143979
5.95375e-08
0.000143974
2.65627e-08
0.000143973
-5.50564e-09
0.000143976
-3.63908e-08
0.000143982
-6.60036e-08
0.00014399
-9.43623e-08
0.000144
-1.21544e-07
0.00014401
-1.47653e-07
0.000144021
-1.72805e-07
0.000144032
-1.97111e-07
0.000144042
-2.20674e-07
0.000144051
-2.43584e-07
0.00014406
-2.65919e-07
0.000144067
-2.87743e-07
0.000144073
-3.09106e-07
0.000144078
-3.3005e-07
0.00014408
-3.50603e-07
0.000144081
-3.70787e-07
0.000144079
-3.90614e-07
0.000144076
-4.10086e-07
0.000144071
-4.2919e-07
0.000144063
-4.47885e-07
0.000144053
-4.66059e-07
-4.83436e-07
0.000144041
0.000148418
7.50171e-08
0.000148348
1.96092e-07
0.000148265
2.59017e-07
0.000148184
2.77308e-07
0.000148114
2.66605e-07
0.000148057
2.37453e-07
0.000148014
1.98577e-07
0.000147983
1.55898e-07
0.000147964
1.12619e-07
0.000147953
7.04574e-08
0.000147949
3.0344e-08
0.000147951
-7.32876e-09
0.000147957
-4.25047e-08
0.000147966
-7.53011e-08
0.000147978
-1.05914e-07
0.000147991
-1.34571e-07
0.000148005
-1.61504e-07
0.000148019
-1.86931e-07
0.000148033
-2.11052e-07
0.000148046
-2.34042e-07
0.000148058
-2.5605e-07
0.00014807
-2.77204e-07
0.00014808
-2.9761e-07
0.000148088
-3.17355e-07
0.000148094
-3.36511e-07
0.000148099
-3.55133e-07
0.000148101
-3.73267e-07
0.000148102
-3.90945e-07
0.0001481
-4.0819e-07
0.000148096
-4.25012e-07
0.000148089
-4.41396e-07
0.00014808
-4.57276e-07
-4.72426e-07
0.000148069
0.00015263
1.33917e-07
0.000152509
3.17007e-07
0.00015238
3.8824e-07
0.000152265
3.92772e-07
0.000152171
3.60184e-07
0.000152101
3.07204e-07
0.000152053
2.46978e-07
0.000152022
1.86847e-07
0.000152005
1.29688e-07
0.000151999
7.66626e-08
0.000152001
2.82203e-08
0.000152009
-1.57029e-08
0.000152022
-5.54598e-08
0.000152038
-9.14983e-08
0.000152057
-1.24272e-07
0.000152076
-1.54213e-07
0.000152097
-1.81713e-07
0.000152117
-2.07124e-07
0.000152136
-2.30746e-07
0.000152155
-2.52838e-07
0.000152173
-2.73618e-07
0.000152189
-2.9327e-07
0.000152203
-3.11946e-07
0.000152216
-3.2977e-07
0.000152226
-3.46848e-07
0.000152234
-3.63262e-07
0.00015224
-3.7908e-07
0.000152243
-3.94357e-07
0.000152244
-4.09136e-07
0.000152243
-4.23446e-07
0.000152239
-4.37299e-07
0.000152232
-4.5067e-07
-4.63395e-07
0.000152223
0.000156933
2.52392e-07
0.00015672
5.29543e-07
0.000156523
5.86058e-07
0.000156365
5.50292e-07
0.000156251
4.74489e-07
0.000156176
3.82434e-07
0.000156131
2.91791e-07
0.000156108
2.09313e-07
0.000156102
1.35629e-07
0.000156109
7.03923e-08
0.000156124
1.30951e-08
0.000156145
-3.71068e-08
0.000156171
-8.11867e-08
0.000156199
-1.20044e-07
0.00015623
-1.54461e-07
0.000156261
-1.85114e-07
0.000156291
-2.1259e-07
0.000156322
-2.37385e-07
0.000156351
-2.59919e-07
0.000156379
-2.8054e-07
0.000156404
-2.99541e-07
0.000156428
-3.17163e-07
0.00015645
-3.33606e-07
0.000156469
-3.49035e-07
0.000156486
-3.63586e-07
0.0001565
-3.77368e-07
0.000156512
-3.90474e-07
0.00015652
-4.02976e-07
0.000156526
-4.14936e-07
0.000156529
-4.264e-07
0.000156529
-4.37402e-07
0.000156526
-4.47953e-07
-4.57962e-07
0.000156521
0.00016129
5.00969e-07
0.000160917
9.02835e-07
0.000160626
8.7645e-07
0.000160426
7.50468e-07
0.000160303
5.97535e-07
0.000160239
4.46039e-07
0.000160215
3.15896e-07
0.000160217
2.07588e-07
0.000160237
1.16038e-07
0.000160269
3.83496e-08
0.000160309
-2.73194e-08
0.000160355
-8.29067e-08
0.000160404
-1.30217e-07
0.000160455
-1.70707e-07
0.000160506
-2.05541e-07
0.000160556
-2.35678e-07
0.000160605
-2.61923e-07
0.000160653
-2.8494e-07
0.000160698
-3.05273e-07
0.000160741
-3.23369e-07
0.000160781
-3.39595e-07
0.000160818
-3.54251e-07
0.000160852
-3.67586e-07
0.000160883
-3.79801e-07
0.000160911
-3.91062e-07
0.000160935
-4.01502e-07
0.000160955
-4.11234e-07
0.000160973
-4.20346e-07
0.000160987
-4.28911e-07
0.000160997
-4.3699e-07
0.000161005
-4.44628e-07
0.000161009
-4.51861e-07
-4.58661e-07
0.000161009
0.000165509
1.14588e-06
0.000164894
1.51776e-06
0.000164542
1.2278e-06
0.000164342
9.50648e-07
0.000164256
6.83895e-07
0.000164245
4.56698e-07
0.000164276
2.851e-07
0.000164331
1.52502e-07
0.000164402
4.47904e-08
0.000164484
-4.34668e-08
0.000164572
-1.1538e-07
0.000164663
-1.74071e-07
0.000164755
-2.22251e-07
0.000164847
-2.61968e-07
0.000164936
-2.94796e-07
0.000165022