/*--------------------------------*- C++ -*----------------------------------*\
| =========                 |                                                 |
| \\      /  F ield         | OpenFOAM: The Open Source CFD Toolbox           |
|  \\    /   O peration     | Version:  4.1                                   |
|   \\  /    A nd           | Web:      www.OpenFOAM.org                      |
|    \\/     M anipulation  |                                                 |
\*---------------------------------------------------------------------------*/
FoamFile
{
    version     2.0;
    format      ascii;
    class       volVectorField;
    location    "300";
    object      U;
}
// * * * * * * * * * * * * * * * * * * * * * * * * * * * * * * * * * * * * * //

dimensions      [0 1 -1 0 0 0 0];

internalField   nonuniform List<vector> 
6820
(
(7.12051 -2.89958 0)
(7.72186 -2.2784 0)
(7.93538 -1.28315 0)
(7.87984 -0.658598 0)
(7.73277 -0.320764 0)
(7.57049 -0.148452 0)
(7.41125 -0.0618014 0)
(7.26265 -0.0178021 0)
(7.12848 0.00463778 0)
(7.00858 0.0158165 0)
(6.90109 0.0209909 0)
(6.80426 0.0229446 0)
(6.71675 0.0231714 0)
(6.63744 0.0224813 0)
(6.56532 0.0213224 0)
(6.49957 0.0199471 0)
(6.43951 0.018497 0)
(6.38458 0.0170493 0)
(6.3343 0.0156436 0)
(6.28827 0.0142978 0)
(6.24614 0.0130169 0)
(6.20763 0.0117978 0)
(6.17251 0.0106329 0)
(6.14059 0.00951093 0)
(6.11172 0.00841808 0)
(6.08578 0.00733773 0)
(6.06273 0.00625054 0)
(6.04253 0.00512901 0)
(6.02527 0.00395438 0)
(6.0109 0.0026315 0)
(6.00012 0.00128096 0)
(5.99093 -0.000669475 0)
(5.99334 -0.00343083 0)
(7.59884 0.654122 0)
(7.43307 0.777586 0)
(7.3612 0.527703 0)
(7.34946 0.342695 0)
(7.39555 0.234271 0)
(7.45331 0.166512 0)
(7.4956 0.123159 0)
(7.51952 0.095756 0)
(7.52999 0.0780844 0)
(7.53097 0.0661306 0)
(7.52493 0.057676 0)
(7.51383 0.0514872 0)
(7.49926 0.0467999 0)
(7.48238 0.0431135 0)
(7.46397 0.0401048 0)
(7.44461 0.0375666 0)
(7.42473 0.0353622 0)
(7.40464 0.0333974 0)
(7.3846 0.0316056 0)
(7.36478 0.0299388 0)
(7.34533 0.0283606 0)
(7.32637 0.0268418 0)
(7.30798 0.0253574 0)
(7.29024 0.0238846 0)
(7.27321 0.0224005 0)
(7.25696 0.0208802 0)
(7.24154 0.0192958 0)
(7.22698 0.017609 0)
(7.21339 0.0157842 0)
(7.20071 0.0137115 0)
(7.18941 0.0114922 0)
(7.17883 0.00826982 0)
(7.17183 0.00694281 0)
(7.25567 -0.0497395 0)
(7.1646 -0.0746581 0)
(7.2014 -0.0872444 0)
(7.24056 -0.0572964 0)
(7.27508 -0.0218013 0)
(7.31135 0.00174725 0)
(7.34323 0.0163514 0)
(7.36833 0.0260989 0)
(7.38805 0.0325236 0)
(7.40349 0.0364042 0)
(7.41516 0.0385064 0)
(7.42363 0.0394597 0)
(7.42952 0.0396687 0)
(7.43337 0.0393787 0)
(7.43558 0.0387514 0)
(7.43648 0.037899 0)
(7.43634 0.0368959 0)
(7.4354 0.0357895 0)
(7.43383 0.034609 0)
(7.43181 0.0333718 0)
(7.42946 0.0320863 0)
(7.42691 0.0307543 0)
(7.42426 0.0293722 0)
(7.4216 0.0279311 0)
(7.41903 0.0264176 0)
(7.41662 0.024812 0)
(7.41447 0.0230893 0)
(7.41264 0.0212104 0)
(7.41125 0.0191362 0)
(7.41034 0.0167617 0)
(7.41014 0.0140762 0)
(7.41043 0.0105805 0)
(7.412 0.00681209 0)
(7.29107 -0.0915208 0)
(7.22277 -0.0639844 0)
(7.23482 -0.0295699 0)
(7.25101 -0.00407674 0)
(7.26473 0.0153931 0)
(7.28323 0.0267143 0)
(7.30212 0.0325485 0)
(7.31864 0.0359121 0)
(7.33322 0.0379304 0)
(7.34622 0.0389346 0)
(7.35757 0.0392283 0)
(7.36733 0.0390853 0)
(7.37568 0.0386666 0)
(7.38286 0.0380539 0)
(7.38902 0.0372984 0)
(7.39433 0.0364368 0)
(7.39892 0.0354929 0)
(7.40292 0.0344799 0)
(7.40644 0.033404 0)
(7.4096 0.0322666 0)
(7.41246 0.0310652 0)
(7.41513 0.0297936 0)
(7.41768 0.0284418 0)
(7.42017 0.0269959 0)
(7.42268 0.0254375 0)
(7.42527 0.0237422 0)
(7.42801 0.0218788 0)
(7.43097 0.0198034 0)
(7.43421 0.0174644 0)
(7.43779 0.0147626 0)
(7.44182 0.0116355 0)
(7.44616 0.00774132 0)
(7.45111 0.00333159 0)
(7.31214 -0.0522732 0)
(7.26648 -0.0335409 0)
(7.26334 -0.0149705 0)
(7.26641 -0.0028472 0)
(7.27172 0.00985312 0)
(7.28247 0.0191999 0)
(7.29467 0.0247919 0)
(7.30592 0.028466 0)
(7.31637 0.031075 0)
(7.32621 0.0327929 0)
(7.33529 0.0337989 0)
(7.34355 0.0343034 0)
(7.35106 0.0344489 0)
(7.35792 0.0343171 0)
(7.36419 0.033965 0)
(7.36996 0.0334363 0)
(7.37531 0.0327623 0)
(7.38029 0.0319631 0)
(7.38498 0.0310508 0)
(7.38944 0.0300316 0)
(7.39373 0.0289062 0)
(7.39791 0.0276708 0)
(7.40203 0.0263168 0)
(7.40613 0.0248308 0)
(7.41028 0.0231942 0)
(7.41451 0.0213816 0)
(7.41889 0.0193602 0)
(7.42345 0.0170854 0)
(7.42824 0.0145027 0)
(7.43329 0.0115266 0)
(7.43866 0.008081 0)
(7.44425 0.00396736 0)
(7.45015 -0.000745791 0)
(7.32016 -0.0320728 0)
(7.28761 -0.0253298 0)
(7.28077 -0.0142556 0)
(7.27993 -0.0048023 0)
(7.28225 0.0061592 0)
(7.28905 0.0148866 0)
(7.29738 0.0205432 0)
(7.30543 0.0244228 0)
(7.31317 0.0272327 0)
(7.32068 0.0291523 0)
(7.32782 0.0303563 0)
(7.33453 0.0310418 0)
(7.34082 0.0313464 0)
(7.34675 0.0313528 0)
(7.35236 0.031119 0)
(7.35767 0.0306884 0)
(7.36274 0.030092 0)
(7.36762 0.0293496 0)
(7.37233 0.028473 0)
(7.37692 0.0274677 0)
(7.38143 0.0263337 0)
(7.3859 0.0250661 0)
(7.39037 0.0236553 0)
(7.39487 0.0220863 0)
(7.39944 0.0203391 0)
(7.40411 0.0183869 0)
(7.40892 0.0161957 0)
(7.41391 0.0137213 0)
(7.41908 0.0109101 0)
(7.42447 0.00768887 0)
(7.43007 0.00398511 0)
(7.43584 -0.000326412 0)
(7.44177 -0.00525097 0)
(7.32441 -0.0221985 0)
(7.30057 -0.020946 0)
(7.2932 -0.0130255 0)
(7.2909 -0.00482835 0)
(7.29171 0.00454718 0)
(7.29617 0.0123154 0)
(7.30215 0.0176817 0)
(7.30823 0.0214811 0)
(7.31428 0.0242583 0)
(7.32026 0.026195 0)
(7.32607 0.0274552 0)
(7.33164 0.0282105 0)
(7.33697 0.0285838 0)
(7.34208 0.028653 0)
(7.34701 0.0284729 0)
(7.35177 0.0280843 0)
(7.35639 0.027516 0)
(7.3609 0.0267863 0)
(7.36534 0.0259059 0)
(7.36972 0.0248793 0)
(7.37408 0.0237055 0)
(7.37844 0.0223787 0)
(7.38283 0.0208882 0)
(7.38729 0.0192181 0)
(7.39183 0.0173475 0)
(7.39647 0.0152494 0)
(7.40125 0.0128899 0)
(7.40618 0.010227 0)
(7.41127 0.00721078 0)
(7.41653 0.00377954 0)
(7.42194 -0.000129785 0)
(7.42745 -0.00460105 0)
(7.43304 -0.00966037 0)
(7.32735 -0.0154321 0)
(7.30979 -0.0163917 0)
(7.30255 -0.0108442 0)
(7.29953 -0.00413012 0)
(7.29943 0.0036825 0)
(7.3024 0.010456 0)
(7.30684 0.0154244 0)
(7.31164 0.0190603 0)
(7.31657 0.0217516 0)
(7.32154 0.0236617 0)
(7.32645 0.024936 0)
(7.33122 0.0257202 0)
(7.33585 0.0261231 0)
(7.34035 0.0262172 0)
(7.34473 0.0260545 0)
(7.34902 0.0256735 0)
(7.35323 0.025101 0)
(7.35738 0.0243542 0)
(7.3615 0.023443 0)
(7.3656 0.0223711 0)
(7.36971 0.0211367 0)
(7.37385 0.0197332 0)
(7.37804 0.0181493 0)
(7.3823 0.0163688 0)
(7.38665 0.0143706 0)
(7.3911 0.012128 0)
(7.39566 0.00960874 0)
(7.40036 0.00677397 0)
(7.40518 0.00357898 0)
(7.41012 -2.77813e-05 0)
(7.41516 -0.0040985 0)
(7.42025 -0.00869156 0)
(7.42536 -0.0138331 0)
(7.32939 -0.0103653 0)
(7.31656 -0.0122213 0)
(7.3098 -0.00855936 0)
(7.30646 -0.0032481 0)
(7.30578 0.00320048 0)
(7.30773 0.00905656 0)
(7.31109 0.0135884 0)
(7.31496 0.0170135 0)
(7.31909 0.0195854 0)
(7.32333 0.0214377 0)
(7.32758 0.0226942 0)
(7.33178 0.0234778 0)
(7.33589 0.0238833 0)
(7.33993 0.0239778 0)
(7.3439 0.0238101 0)
(7.34781 0.023416 0)
(7.35168 0.0228207 0)
(7.35552 0.0220405 0)
(7.35935 0.0210842 0)
(7.36319 0.0199549 0)
(7.36705 0.0186503 0)
(7.37095 0.0171634 0)
(7.3749 0.0154826 0)
(7.37892 0.0135917 0)
(7.38303 0.01147 0)
(7.38722 0.0090922 0)
(7.39151 0.00642818 0)
(7.39591 0.00344303 0)
(7.40039 9.77859e-05 0)
(7.40495 -0.00365002 0)
(7.40957 -0.00784212 0)
(7.4142 -0.0125198 0)
(7.41881 -0.0177011 0)
(7.33074 -0.00675341 0)
(7.32153 -0.0087682 0)
(7.31554 -0.00640472 0)
(7.31218 -0.00226141 0)
(7.31115 0.00301559 0)
(7.31235 0.00802594 0)
(7.31489 0.0120938 0)
(7.31805 0.0152647 0)
(7.32155 0.0176832 0)
(7.32523 0.0194478 0)
(7.32898 0.020659 0)
(7.33273 0.021418 0)
(7.33644 0.0218062 0)
(7.34012 0.0218841 0)
(7.34376 0.0216965 0)
(7.34737 0.0212766 0)
(7.35095 0.0206477 0)
(7.35453 0.0198249 0)
(7.35811 0.0188164 0)
(7.36171 0.0176245 0)
(7.36534 0.0162466 0)
(7.36901 0.0146755 0)
(7.37273 0.0128998 0)
(7.37651 0.0109038 0)
(7.38037 0.00866771 0)
(7.38429 0.00616807 0)
(7.38829 0.00337751 0)
(7.39237 0.000265309 0)
(7.3965 -0.00320168 0)
(7.40068 -0.00705785 0)
(7.40488 -0.0113357 0)
(7.40905 -0.0160637 0)
(7.41316 -0.0212495 0)
(7.33161 -0.00426314 0)
(7.32513 -0.00600556 0)
(7.32009 -0.00444502 0)
(7.31694 -0.00122763 0)
(7.31573 0.00304992 0)
(7.3164 0.00728569 0)
(7.31831 0.0108773 0)
(7.3209 0.0137604 0)
(7.32388 0.0159957 0)
(7.3271 0.0176462 0)
(7.33044 0.0187883 0)
(7.33382 0.0195023 0)
(7.3372 0.0198567 0)
(7.34058 0.0199045 0)
(7.34395 0.0196859 0)
(7.3473 0.0192312 0)
(7.35065 0.0185617 0)
(7.35401 0.017691 0)
(7.35737 0.0166267 0)
(7.36076 0.0153707 0)
(7.36417 0.01392 0)
(7.36762 0.0122676 0)
(7.37112 0.0104024 0)
(7.37468 0.00830964 0)
(7.37828 0.00597095 0)
(7.38194 0.00336493 0)
(7.38566 0.000467287 0)
(7.38942 -0.00274844 0)
(7.39321 -0.00630985 0)
(7.39702 -0.0102443 0)
(7.40081 -0.0145762 0)
(7.40455 -0.0193241 0)
(7.4082 -0.0244843 0)
(7.33217 -0.00257147 0)
(7.32769 -0.00384601 0)
(7.32365 -0.0027361 0)
(7.32088 -0.000221851 0)
(7.31964 0.00322431 0)
(7.31995 0.00676625 0)
(7.32139 0.00988779 0)
(7.32351 0.0124626 0)
(7.32607 0.0144915 0)
(7.32889 0.0160054 0)
(7.33188 0.0170572 0)
(7.33494 0.0177083 0)
(7.33804 0.0180142 0)
(7.34117 0.0180201 0)
(7.3443 0.0177613 0)
(7.34743 0.0172647 0)
(7.35057 0.0165494 0)
(7.35372 0.0156277 0)
(7.35689 0.0145063 0)
(7.36008 0.0131867 0)
(7.3633 0.0116659 0)
(7.36655 0.00993704 0)
(7.36984 0.00798973 0)
(7.37317 0.00581026 0)
(7.37654 0.00338201 0)
(7.37995 0.000685862 0)
(7.38338 -0.0022993 0)
(7.38684 -0.00559583 0)
(7.39031 -0.00922623 0)
(7.39377 -0.0132117 0)
(7.39718 -0.0175699 0)
(7.40052 -0.0223107 0)
(7.40375 -0.0274203 0)
(7.33251 -0.00143938 0)
(7.32949 -0.00220502 0)
(7.32638 -0.00131424 0)
(7.32409 0.000690351 0)
(7.32294 0.00346732 0)
(7.32305 0.00640517 0)
(7.32414 0.00907987 0)
(7.32588 0.0113396 0)
(7.32808 0.0131467 0)
(7.33057 0.0145059 0)
(7.33325 0.0154496 0)
(7.33604 0.0160219 0)
(7.33889 0.0162662 0)
(7.34178 0.0162197 0)
(7.3447 0.0159126 0)
(7.34764 0.0153681 0)
(7.35059 0.0146032 0)
(7.35355 0.0136286 0)
(7.35654 0.01245 0)
(7.35955 0.0110687 0)
(7.36258 0.00948162 0)
(7.36564 0.00768242 0)
(7.36873 0.00566144 0)
(7.37184 0.00340623 0)
(7.37499 0.000902006 0)
(7.37815 -0.00186795 0)
(7.38132 -0.00492165 0)
(7.3845 -0.00827757 0)
(7.38765 -0.0119537 0)
(7.39078 -0.0159659 0)
(7.39384 -0.0203259 0)
(7.39681 -0.0250364 0)
(7.39966 -0.0300746 0)
(7.33272 -0.000696108 0)
(7.33073 -0.000996487 0)
(7.32844 -0.00018532 0)
(7.32664 0.00146416 0)
(7.32568 0.00371872 0)
(7.3257 0.00614559 0)
(7.32655 0.00841041 0)
(7.32801 0.0103612 0)
(7.32991 0.0119394 0)
(7.33211 0.0131316 0)
(7.33452 0.0139531 0)
(7.33706 0.0144333 0)
(7.33969 0.0146045 0)
(7.34238 0.0144964 0)
(7.3451 0.0141339 0)
(7.34785 0.0135367 0)
(7.35063 0.0127191 0)
(7.35342 0.0116904 0)
(7.35624 0.0104556 0)
(7.35907 0.00901533 0)
(7.36192 0.00736684 0)
(7.3648 0.00550414 0)
(7.36769 0.00341852 0)
(7.3706 0.0010989 0)
(7.37352 -0.00146766 0)
(7.37645 -0.00429548 0)
(7.37937 -0.0073996 0)
(7.38227 -0.010795 0)
(7.38514 -0.0144956 0)
(7.38795 -0.018513 0)
(7.39069 -0.0228535 0)
(7.39332 -0.0275139 0)
(7.39582 -0.0324636 0)
(7.33285 -0.000218879 0)
(7.33157 -0.000135615 0)
(7.32995 0.000668993 0)
(7.32862 0.00207652 0)
(7.32789 0.00393239 0)
(7.32792 0.00593793 0)
(7.32863 0.00783865 0)
(7.32988 0.0094973 0)
(7.33154 0.0108484 0)
(7.3335 0.0118673 0)
(7.33567 0.0125568 0)
(7.33799 0.0129346 0)
(7.34041 0.0130235 0)
(7.34291 0.0128461 0)
(7.34545 0.0124223 0)
(7.34803 0.0117682 0)
(7.35063 0.0108957 0)
(7.35326 0.00981279 0)
(7.35591 0.00852325 0)
(7.35858 0.00702755 0)
(7.36126 0.00532299 0)
(7.36395 0.00340415 0)
(7.36666 0.00126326 0)
(7.36937 -0.00110935 0)
(7.37207 -0.0037248 0)
(7.37477 -0.00659511 0)
(7.37744 -0.0097326 0)
(7.38009 -0.0131491 0)
(7.38268 -0.0168552 0)
(7.3852 -0.0208583 0)
(7.38763 -0.0251608 0)
(7.38995 -0.029754 0)
(7.39213 -0.0346015 0)
(7.33292 7.92419e-05 0)
(7.33212 0.000454664 0)
(7.33104 0.00128163 0)
(7.33012 0.00252345 0)
(7.32964 0.00407824 0)
(7.32972 0.00574273 0)
(7.33036 0.00732838 0)
(7.33146 0.00871936 0)
(7.33293 0.00985226 0)
(7.33469 0.0106977 0)
(7.33667 0.0112502 0)
(7.33879 0.0115187 0)
(7.34103 0.0115184 0)
(7.34334 0.0112657 0)
(7.34571 0.010776 0)
(7.34812 0.0100621 0)
(7.35057 0.00913359 0)
(7.35304 0.00799682 0)
(7.35553 0.00665484 0)
(7.35803 0.00510776 0)
(7.36054 0.00335301 0)
(7.36306 0.00138574 0)
(7.36557 -0.000800853 0)
(7.36809 -0.00321508 0)
(7.37058 -0.0058663 0)
(7.37306 -0.00876442 0)
(7.3755 -0.0119193 0)
(7.37789 -0.0153401 0)
(7.38022 -0.0190341 0)
(7.38247 -0.023006 0)
(7.38462 -0.0272542 0)
(7.38664 -0.0317657 0)
(7.38852 -0.0364999 0)
(7.33296 0.000258485 0)
(7.33249 0.000840201 0)
(7.33181 0.00169217 0)
(7.33123 0.00281555 0)
(7.33098 0.00414176 0)
(7.33114 0.00553248 0)
(7.33176 0.00685034 0)
(7.33276 0.00800197 0)
(7.33409 0.00893104 0)
(7.33569 0.00960793 0)
(7.33748 0.0100229 0)
(7.33943 0.0101788 0)
(7.3415 0.010085 0)
(7.34365 0.0097531 0)
(7.34586 0.00919449 0)
(7.34811 0.00841904 0)
(7.3504 0.00743423 0)
(7.35271 0.00624496 0)
(7.35504 0.0048535 0)
(7.35738 0.00325966 0)
(7.35972 0.00146104 0)
(7.36206 -0.00054667 0)
(7.3644 -0.00276932 0)
(7.36671 -0.00521391 0)
(7.36901 -0.00788819 0)
(7.37127 -0.0108001 0)
(7.37348 -0.0139575 0)
(7.37563 -0.0173669 0)
(7.37771 -0.0210334 0)
(7.3797 -0.0249586 0)
(7.38158 -0.0291383 0)
(7.38333 -0.0335559 0)
(7.38494 -0.0381677 0)
(7.33298 0.000359872 0)
(7.33272 0.00107493 0)
(7.33233 0.0019412 0)
(7.33203 0.00297291 0)
(7.33196 0.00412158 0)
(7.33222 0.00529175 0)
(7.33283 0.00638387 0)
(7.33377 0.00732487 0)
(7.33499 0.00806746 0)
(7.33645 0.00858466 0)
(7.3381 0.00886521 0)
(7.3399 0.00890846 0)
(7.3418 0.00871969 0)
(7.3438 0.00830675 0)
(7.34585 0.00767791 0)
(7.34796 0.00684051 0)
(7.35009 0.00580019 0)
(7.35225 0.00456062 0)
(7.35442 0.00312335 0)
(7.3566 0.00148794 0)
(7.35877 -0.000347846 0)
(7.36094 -0.00238776 0)
(7.36309 -0.00463676 0)
(7.36522 -0.00710066 0)
(7.36731 -0.00978573 0)
(7.36935 -0.0126982 0)
(7.37135 -0.015844 0)
(7.37327 -0.0192278 0)
(7.37511 -0.0228524 0)
(7.37685 -0.0267174 0)
(7.37847 -0.030816 0)
(7.37997 -0.0351293 0)
(7.38132 -0.0396112 0)
(7.333 0.000411046 0)
(7.33287 0.00120173 0)
(7.33269 0.00206679 0)
(7.33258 0.0030205 0)
(7.33266 0.00402614 0)
(7.333 0.0050159 0)
(7.33362 0.00591735 0)
(7.33451 0.00667426 0)
(7.33565 0.00724849 0)
(7.33699 0.00761705 0)
(7.33851 0.0077691 0)
(7.34016 0.00770232 0)
(7.34193 0.00741947 0)
(7.34377 0.00692575 0)
(7.34568 0.00622703 0)
(7.34763 0.00532865 0)
(7.34962 0.00423478 0)
(7.35162 0.00294801 0)
(7.35364 0.00146931 0)
(7.35565 -0.000201933 0)
(7.35766 -0.00206778 0)
(7.35966 -0.00413146 0)
(7.36163 -0.00639712 0)
(7.36356 -0.00886948 0)
(7.36545 -0.0115535 0)
(7.36729 -0.014454 0)
(7.36907 -0.0175752 0)
(7.37077 -0.0209202 0)
(7.37237 -0.02449 0)
(7.37388 -0.0282825 0)
(7.37527 -0.0322891 0)
(7.37652 -0.0364889 0)
(7.37764 -0.0408349 0)
(7.333 0.000430565 0)
(7.33296 0.00125407 0)
(7.33291 0.00210279 0)
(7.33294 0.00298488 0)
(7.33312 0.00387028 0)
(7.33351 0.00470896 0)
(7.33414 0.00544758 0)
(7.33499 0.00604334 0)
(7.33605 0.00646635 0)
(7.33729 0.00669805 0)
(7.33869 0.00672913 0)
(7.34022 0.0065569 0)
(7.34185 0.00618277 0)
(7.34355 0.00561026 0)
(7.34532 0.00484354 0)
(7.34712 0.00388648 0)
(7.34896 0.00274206 0)
(7.35081 0.00141208 0)
(7.35267 -0.000102958 0)
(7.35453 -0.0018038 0)
(7.35637 -0.00369228 0)
(7.35819 -0.00577117 0)
(7.35997 -0.00804384 0)
(7.36172 -0.0105141 0)
(7.36342 -0.0131857 0)
(7.36505 -0.0160623 0)
(7.36662 -0.0191467 0)
(7.3681 -0.0224407 0)
(7.36949 -0.025944 0)
(7.37077 -0.0296529 0)
(7.37193 -0.0335578 0)
(7.37295 -0.0376364 0)
(7.37384 -0.0418413 0)
(7.333 0.000430973 0)
(7.33301 0.00125788 0)
(7.33304 0.00207842 0)
(7.33315 0.00289217 0)
(7.3334 0.00367261 0)
(7.33381 0.00438133 0)
(7.33443 0.00497854 0)
(7.33523 0.00543197 0)
(7.33622 0.00571886 0)
(7.33737 0.00582503 0)
(7.33865 0.00574322 0)
(7.34006 0.00547122 0)
(7.34155 0.00500996 0)
(7.34312 0.00436199 0)
(7.34474 0.0035304 0)
(7.34641 0.00251803 0)
(7.34809 0.00132701 0)
(7.34979 -4.14493e-05 0)
(7.35149 -0.00158718 0)
(7.35319 -0.00331096 0)
(7.35486 -0.00521443 0)
(7.35651 -0.00729989 0)
(7.35812 -0.00957008 0)
(7.35968 -0.0120279 0)
(7.36118 -0.0146763 0)
(7.36262 -0.0175178 0)
(7.36398 -0.0205541 0)
(7.36525 -0.0237859 0)
(7.36642 -0.0272119 0)
(7.36748 -0.0308275 0)
(7.36843 -0.034622 0)
(7.36924 -0.0385726 0)
(7.36991 -0.0426319 0)
(7.33301 0.000420955 0)
(7.33304 0.00123349 0)
(7.33311 0.00201881 0)
(7.33325 0.00276714 0)
(7.33352 0.00345369 0)
(7.33393 0.00404793 0)
(7.33451 0.00451998 0)
(7.33525 0.004846 0)
(7.33616 0.00500941 0)
(7.33721 0.00500013 0)
(7.33838 0.00481323 0)
(7.33966 0.00444746 0)
(7.34103 0.00390386 0)
(7.34246 0.00318459 0)
(7.34394 0.00229209 0)
(7.34546 0.00122854 0)
(7.347 -4.46404e-06 0)
(7.34855 -0.00140614 0)
(7.35009 -0.00297651 0)
(7.35162 -0.00471635 0)
(7.35313 -0.00662707 0)
(7.3546 -0.00871056 0)
(7.35603 -0.010969 0)
(7.35741 -0.0134046 0)
(7.35872 -0.0160195 0)
(7.35996 -0.0188153 0)
(7.36112 -0.021793 0)
(7.36219 -0.0249523 0)
(7.36316 -0.0282913 0)
(7.36402 -0.0318047 0)
(7.36475 -0.0354812 0)
(7.36536 -0.0392978 0)
(7.36583 -0.0432078 0)
(7.33301 0.000406844 0)
(7.33304 0.00119743 0)
(7.33312 0.00194599 0)
(7.33326 0.00263333 0)
(7.33351 0.00323523 0)
(7.33388 0.00372691 0)
(7.33441 0.00408624 0)
(7.33508 0.00429644 0)
(7.33589 0.00434648 0)
(7.33683 0.00423018 0)
(7.33789 0.00394507 0)
(7.33904 0.0034912 0)
(7.34027 0.00287009 0)
(7.34156 0.00208388 0)
(7.3429 0.00113476 0)
(7.34427 2.45384e-05 0)
(7.34566 -0.00124555 0)
(7.34705 -0.00267496 0)
(7.34844 -0.0042638 0)
(7.34981 -0.0060128 0)
(7.35115 -0.00792315 0)
(7.35245 -0.0099964 0)
(7.3537 -0.0122342 0)
(7.3549 -0.0146383 0)
(7.35603 -0.01721 0)
(7.35708 -0.0199505 0)
(7.35805 -0.0228598 0)
(7.35892 -0.0259374 0)
(7.35969 -0.0291806 0)
(7.36035 -0.0325837 0)
(7.36089 -0.0361355 0)
(7.36131 -0.0398129 0)
(7.36159 -0.0435703 0)
(7.333 0.000393701 0)
(7.33303 0.00116405 0)
(7.33308 0.0018804 0)
(7.33319 0.00251384 0)
(7.33338 0.00304015 0)
(7.33369 0.00343924 0)
(7.33413 0.0036956 0)
(7.3347 0.00379886 0)
(7.3354 0.00374326 0)
(7.33622 0.00352649 0)
(7.33715 0.00314869 0)
(7.33816 0.00261144 0)
(7.33926 0.00191704 0)
(7.34041 0.00106792 0)
(7.3416 6.6233e-05 0)
(7.34282 -0.00108635 0)
(7.34406 -0.00238876 0)
(7.34529 -0.00384059 0)
(7.34652 -0.00544198 0)
(7.34773 -0.00719356 0)
(7.3489 -0.00909635 0)
(7.35003 -0.0111516 0)
(7.35112 -0.0133605 0)
(7.35214 -0.0157244 0)
(7.35309 -0.0182442 0)
(7.35396 -0.0209203 0)
(7.35474 -0.0237526 0)
(7.35543 -0.02674 0)
(7.35602 -0.0298795 0)
(7.35649 -0.0331654 0)
(7.35685 -0.0365863 0)
(7.35708 -0.0401199 0)
(7.35719 -0.0437219 0)
(7.333 0.000386155 0)
(7.33301 0.00114728 0)
(7.33301 0.00184261 0)
(7.33304 0.00243288 0)
(7.33315 0.00289357 0)
(7.33335 0.00320912 0)
(7.33367 0.00337033 0)
(7.33411 0.00337321 0)
(7.33468 0.00321736 0)
(7.33536 0.00290457 0)
(7.33615 0.00243776 0)
(7.33702 0.00182034 0)
(7.33796 0.00105563 0)
(7.33896 0.000146569 0)
(7.34001 -0.000904491 0)
(7.34107 -0.00209587 0)
(7.34216 -0.00342656 0)
(7.34324 -0.00489617 0)
(7.34431 -0.00650484 0)
(7.34536 -0.00825313 0)
(7.34637 -0.0101419 0)
(7.34734 -0.0121721 0)
(7.34826 -0.0143447 0)
(7.34911 -0.0166607 0)
(7.34989 -0.0191205 0)
(7.35059 -0.0217244 0)
(7.3512 -0.0244719 0)
(7.35172 -0.0273615 0)
(7.35213 -0.0303904 0)
(7.35244 -0.0335528 0)
(7.35263 -0.0368376 0)
(7.35269 -0.0402233 0)
(7.35264 -0.0436672 0)
(7.333 0.000389197 0)
(7.33296 0.00116244 0)
(7.33289 0.00185576 0)
(7.33281 0.00241801 0)
(7.33279 0.00282468 0)
(7.33285 0.00306529 0)
(7.33301 0.00313747 0)
(7.3333 0.00304415 0)
(7.3337 0.00279084 0)
(7.33422 0.00238383 0)
(7.33485 0.00182923 0)
(7.33556 0.00113258 0)
(7.33635 0.000298511 0)
(7.33719 -0.000669312 0)
(7.33808 -0.00176817 0)
(7.339 -0.00299623 0)
(7.33993 -0.00435245 0)
(7.34086 -0.00583642 0)
(7.34178 -0.00744827 0)
(7.34267 -0.00918848 0)
(7.34353 -0.0110578 0)
(7.34435 -0.013057 0)
(7.34511 -0.0151869 0)
(7.34581 -0.0174482 0)
(7.34643 -0.0198412 0)
(7.34698 -0.0223659 0)
(7.34743 -0.0250217 0)
(7.34779 -0.0278071 0)
(7.34804 -0.0307192 0)
(7.34819 -0.0337526 0)
(7.34823 -0.0368966 0)
(7.34815 -0.0401308 0)
(7.34794 -0.0434144 0)
(7.333 0.00040912 0)
(7.3329 0.00122887 0)
(7.33271 0.00194881 0)
(7.33248 0.00250355 0)
(7.33227 0.00286963 0)
(7.33214 0.00304325 0)
(7.33211 0.00303027 0)
(7.3322 0.0028418 0)
(7.33241 0.00249025 0)
(7.33275 0.00198717 0)
(7.33319 0.00134246 0)
(7.33374 0.000564199 0)
(7.33436 -0.00034134 0)
(7.33505 -0.00136951 0)
(7.33578 -0.00251705 0)
(7.33655 -0.00378188 0)
(7.33733 -0.00516285 0)
(7.33812 -0.00665953 0)
(7.33889 -0.00827204 0)
(7.33965 -0.0100009 0)
(7.34037 -0.0118467 0)
(7.34104 -0.0138102 0)
(7.34167 -0.0158923 0)
(7.34222 -0.0180933 0)
(7.34271 -0.0204137 0)
(7.34311 -0.0228532 0)
(7.34342 -0.0254114 0)
(7.34365 -0.0280869 0)
(7.34376 -0.0308768 0)
(7.34378 -0.0337763 0)
(7.34368 -0.0367754 0)
(7.34347 -0.0398549 0)
(7.34314 -0.042976 0)
(7.33299 0.000454977 0)
(7.33281 0.00137372 0)
(7.33245 0.00216151 0)
(7.33199 0.00273543 0)
(7.33154 0.00307582 0)
(7.33115 0.00318852 0)
(7.33088 0.00309026 0)
(7.33073 0.00280258 0)
(7.33072 0.00234648 0)
(7.33085 0.00173994 0)
(7.3311 0.000997482 0)
(7.33146 0.000130354 0)
(7.33191 -0.000853131 0)
(7.33244 -0.00194709 0)
(7.33303 -0.00314759 0)
(7.33366 -0.00445221 0)
(7.33431 -0.00585971 0)
(7.33497 -0.00736968 0)
(7.33562 -0.0089823 0)
(7.33625 -0.0106981 0)
(7.33685 -0.012518 0)
(7.3374 -0.0144426 0)
(7.33791 -0.0164728 0)
(7.33835 -0.0186092 0)
(7.33871 -0.0208521 0)
(7.339 -0.0232015 0)
(7.3392 -0.025657 0)
(7.33931 -0.0282175 0)
(7.33931 -0.0308805 0)
(7.33921 -0.0336416 0)
(7.33901 -0.0364919 0)
(7.33869 -0.0394135 0)
(7.33826 -0.0423701 0)
(7.33298 0.000541146 0)
(7.33267 0.00163853 0)
(7.33206 0.00255216 0)
(7.33128 0.0031786 0)
(7.3305 0.00350779 0)
(7.32978 0.0035606 0)
(7.32919 0.00336919 0)
(7.32875 0.00296934 0)
(7.32849 0.00239331 0)
(7.32838 0.0016673 0)
(7.32843 0.000811641 0)
(7.32861 -0.000158514 0)
(7.32891 -0.00123237 0)
(7.32929 -0.00240261 0)
(7.32975 -0.00366456 0)
(7.33026 -0.00501553 0)
(7.3308 -0.00645427 0)
(7.33135 -0.00798053 0)
(7.33191 -0.00959474 0)
(7.33244 -0.0112977 0)
(7.33295 -0.0130905 0)
(7.33342 -0.0149741 0)
(7.33383 -0.0169496 0)
(7.33418 -0.0190178 0)
(7.33446 -0.0211792 0)
(7.33466 -0.0234342 0)
(7.33477 -0.0257825 0)
(7.33479 -0.0282233 0)
(7.33471 -0.0307548 0)
(7.33453 -0.0333733 0)
(7.33424 -0.0360708 0)
(7.33384 -0.0388313 0)
(7.33333 -0.041621 0)
(7.33297 0.000692263 0)
(7.33245 0.00209055 0)
(7.33145 0.00321031 0)
(7.33023 0.00392786 0)
(7.32898 0.00425497 0)
(7.32783 0.004237 0)
(7.32685 0.0039296 0)
(7.32608 0.00338913 0)
(7.32553 0.00266321 0)
(7.32519 0.00178874 0)
(7.32504 0.000793337 0)
(7.32506 -0.000303161 0)
(7.32521 -0.00148722 0)
(7.32549 -0.00275011 0)
(7.32585 -0.00408663 0)
(7.32628 -0.00549407 0)
(7.32674 -0.00697152 0)
(7.32723 -0.0085192 0)
(7.32773 -0.0101381 0)
(7.32821 -0.0118296 0)
(7.32866 -0.0135952 0)
(7.32907 -0.0154365 0)
(7.32943 -0.017355 0)
(7.32973 -0.0193519 0)
(7.32996 -0.0214281 0)
(7.33011 -0.0235844 0)
(7.33017 -0.025821 0)
(7.33014 -0.0281376 0)
(7.33 -0.030533 0)
(7.32977 -0.0330042 0)
(7.32943 -0.0355447 0)
(7.32898 -0.0381402 0)
(7.32842 -0.04076 0)
(7.33294 0.000953372 0)
(7.33208 0.00284324 0)
(7.33049 0.0042766 0)
(7.3286 0.00512279 0)
(7.32672 0.00544013 0)
(7.32502 0.00531513 0)
(7.32358 0.00484119 0)
(7.32243 0.0041058 0)
(7.32159 0.00317778 0)
(7.32103 0.00210765 0)
(7.32072 0.00093167 0)
(7.32062 -0.000325323 0)
(7.32069 -0.00164739 0)
(7.32091 -0.00302504 0)
(7.32123 -0.00445322 0)
(7.32163 -0.00592998 0)
(7.32208 -0.00745536 0)
(7.32256 -0.00903066 0)
(7.32304 -0.0106579 0)
(7.32352 -0.0123395 0)
(7.32397 -0.0140779 0)
(7.32438 -0.0158754 0)
(7.32473 -0.0177343 0)
(7.32503 -0.0196565 0)
(7.32524 -0.0216434 0)
(7.32538 -0.0236965 0)
(7.32543 -0.0258164 0)
(7.32539 -0.0280036 0)
(7.32524 -0.0302574 0)
(7.32499 -0.032576 0)
(7.32463 -0.0349543 0)
(7.32417 -0.0373803 0)
(7.3236 -0.0398261 0)
(7.33289 0.00141394 0)
(7.33142 0.00409583 0)
(7.32889 0.00597352 0)
(7.32603 0.00696453 0)
(7.32331 0.00722293 0)
(7.32092 0.00690502 0)
(7.31896 0.00616674 0)
(7.31745 0.00514284 0)
(7.31636 0.00393012 0)
(7.31564 0.00259481 0)
(7.31524 0.00118182 0)
(7.31511 -0.000280193 0)
(7.31518 -0.00177459 0)
(7.31543 -0.00329283 0)
(7.31579 -0.00483164 0)
(7.31625 -0.00639109 0)
(7.31676 -0.00797331 0)
(7.3173 -0.00958158 0)
(7.31785 -0.0112197 0)
(7.31838 -0.0128916 0)
(7.31889 -0.0146013 0)
(7.31935 -0.0163521 0)
(7.31976 -0.0181474 0)
(7.3201 -0.01999 0)
(7.32036 -0.0218823 0)
(7.32054 -0.0238262 0)
(7.32062 -0.0258233 0)
(7.32061 -0.0278746 0)
(7.32049 -0.0299804 0)
(7.32027 -0.0321398 0)
(7.31993 -0.0343494 0)
(7.31949 -0.0365996 0)
(7.31894 -0.0388661 0)
(7.33277 0.0022634 0)
(7.33019 0.00621664 0)
(7.32614 0.00866201 0)
(7.3219 0.00973551 0)
(7.3181 0.00978877 0)
(7.31493 0.00909894 0)
(7.31246 0.00792431 0)
(7.31067 0.00646616 0)
(7.30945 0.00485209 0)
(7.30871 0.00316134 0)
(7.30836 0.00144352 0)
(7.30833 -0.000273223 0)
(7.30854 -0.00197561 0)
(7.30893 -0.00365941 0)
(7.30946 -0.00532565 0)
(7.31007 -0.00697839 0)
(7.31075 -0.00862333 0)
(7.31144 -0.0102668 0)
(7.31214 -0.0119154 0)
(7.31282 -0.0135751 0)
(7.31346 -0.0152518 0)
(7.31405 -0.0169505 0)
(7.31458 -0.0186759 0)
(7.31503 -0.020432 0)
(7.31539 -0.022222 0)
(7.31567 -0.0240489 0)
(7.31584 -0.025915 0)
(7.31591 -0.027822 0)
(7.31588 -0.0297713 0)
(7.31573 -0.0317629 0)
(7.31547 -0.033795 0)
(7.31509 -0.0358609 0)
(7.31459 -0.0379402 0)
(7.33248 0.00386641 0)
(7.32779 0.00986325 0)
(7.32128 0.0129362 0)
(7.31516 0.0138502 0)
(7.3101 0.0133515 0)
(7.30618 0.011942 0)
(7.30338 0.0100474 0)
(7.30152 0.00794652 0)
(7.3004 0.00578306 0)
(7.29988 0.00363454 0)
(7.2998 0.00154389 0)
(7.30008 -0.000470825 0)
(7.30061 -0.00240718 0)
(7.30132 -0.00427057 0)
(7.30216 -0.00606999 0)
(7.30308 -0.00781607 0)
(7.30405 -0.00951989 0)
(7.30502 -0.0111922 0)
(7.30599 -0.0128429 0)
(7.30692 -0.0144812 0)
(7.30779 -0.016115 0)
(7.30861 -0.0177515 0)
(7.30934 -0.0193967 0)
(7.30998 -0.0210559 0)
(7.31053 -0.0227337 0)
(7.31098 -0.0244337 0)
(7.31131 -0.0261592 0)
(7.31154 -0.0279127 0)
(7.31164 -0.0296962 0)
(7.31163 -0.0315109 0)
(7.31149 -0.0333567 0)
(7.31124 -0.0352294 0)
(7.31085 -0.0371133 0)
(7.33191 0.00684454 0)
(7.32307 0.0158923 0)
(7.31263 0.019391 0)
(7.3041 0.019652 0)
(7.29781 0.0180152 0)
(7.29347 0.0153425 0)
(7.29075 0.0123259 0)
(7.28926 0.00930963 0)
(7.28866 0.00640967 0)
(7.28871 0.00367393 0)
(7.28924 0.00112343 0)
(7.29012 -0.00124502 0)
(7.29124 -0.00344866 0)
(7.29252 -0.00550867 0)
(7.2939 -0.00744617 0)
(7.29534 -0.00928136 0)
(7.29679 -0.011033 0)
(7.29822 -0.0127179 0)
(7.29961 -0.0143509 0)
(7.30095 -0.015945 0)
(7.3022 -0.0175115 0)
(7.30337 -0.0190599 0)
(7.30444 -0.0205985 0)
(7.30539 -0.0221342 0)
(7.30624 -0.023673 0)
(7.30696 -0.0252198 0)
(7.30755 -0.0267788 0)
(7.30802 -0.0283533 0)
(7.30836 -0.0299463 0)
(7.30857 -0.03156 0)
(7.30864 -0.0331955 0)
(7.30858 -0.0348519 0)
(7.30838 -0.0365185 0)
(7.33066 0.0137553 0)
(7.31334 0.0261519 0)
(7.29706 0.0281101 0)
(7.28604 0.0265675 0)
(7.279 0.0232227 0)
(7.27493 0.0190163 0)
(7.2731 0.0148261 0)
(7.27272 0.0109517 0)
(7.27328 0.00739404 0)
(7.2745 0.00413506 0)
(7.27618 0.00116324 0)
(7.27817 -0.00154761 0)
(7.28034 -0.00403067 0)
(7.28262 -0.00631738 0)
(7.28494 -0.00843561 0)
(7.28726 -0.0104106 0)
(7.28954 -0.0122654 0)
(7.29174 -0.0140202 0)
(7.29385 -0.0156928 0)
(7.29586 -0.0172987 0)
(7.29774 -0.0188513 0)
(7.2995 -0.0203621 0)
(7.30111 -0.021841 0)
(7.30258 -0.0232966 0)
(7.30391 -0.0247361 0)
(7.30508 -0.0261656 0)
(7.3061 -0.0275904 0)
(7.30697 -0.0290148 0)
(7.30768 -0.0304426 0)
(7.30824 -0.0318769 0)
(7.30864 -0.0333199 0)
(7.30889 -0.0347729 0)
(7.30899 -0.0362301 0)
(7.32446 0.0352099 0)
(7.28901 0.048271 0)
(7.26639 0.0393292 0)
(7.25578 0.0288156 0)
(7.25037 0.0193609 0)
(7.24841 0.0113729 0)
(7.24904 0.00509328 0)
(7.25112 0.000181908 0)
(7.25399 -0.00376507 0)
(7.25741 -0.00698157 0)
(7.26119 -0.00962552 0)
(7.26518 -0.0118378 0)
(7.26924 -0.013732 0)
(7.2733 -0.0153893 0)
(7.2773 -0.0168683 0)
(7.28118 -0.0182129 0)
(7.28492 -0.0194576 0)
(7.28849 -0.0206284 0)
(7.29188 -0.0217456 0)
(7.29507 -0.0228249 0)
(7.29805 -0.0238786 0)
(7.30083 -0.0249162 0)
(7.3034 -0.0259454 0)
(7.30576 -0.0269722 0)
(7.30791 -0.0280012 0)
(7.30985 -0.0290362 0)
(7.31159 -0.0300801 0)
(7.31313 -0.0311353 0)
(7.31448 -0.0322036 0)
(7.31563 -0.0332866 0)
(7.31659 -0.0343856 0)
(7.31737 -0.0355026 0)
(7.31797 -0.0366368 0)
(7.29541 0.0831136 0)
(7.2183 0.127944 0)
(7.18698 0.128822 0)
(7.18614 0.113688 0)
(7.19264 0.0937677 0)
(7.20146 0.0756322 0)
(7.21165 0.0604976 0)
(7.22209 0.047458 0)
(7.23236 0.036002 0)
(7.24242 0.0260291 0)
(7.25216 0.0174468 0)
(7.26145 0.0100973 0)
(7.27023 0.00381026 0)
(7.27849 -0.00156648 0)
(7.28622 -0.00616868 0)
(7.29344 -0.0101187 0)
(7.30015 -0.0135239 0)
(7.30639 -0.016476 0)
(7.31216 -0.0190522 0)
(7.3175 -0.0213171 0)
(7.32243 -0.0233249 0)
(7.32695 -0.0251209 0)
(7.33111 -0.0267425 0)
(7.3349 -0.028221 0)
(7.33836 -0.0295824 0)
(7.34149 -0.0308483 0)
(7.34432 -0.0320365 0)
(7.34685 -0.0331619 0)
(7.34911 -0.0342368 0)
(7.3511 -0.0352713 0)
(7.35283 -0.0362738 0)
(7.35431 -0.0372506 0)
(7.35555 -0.0382099 0)
(7.32717 -0.156829 0)
(7.19689 -0.284154 0)
(7.13353 -0.280767 0)
(7.11298 -0.247355 0)
(7.1148 -0.214836 0)
(7.13521 -0.184638 0)
(7.16525 -0.157521 0)
(7.19758 -0.134623 0)
(7.22943 -0.115913 0)
(7.25968 -0.100702 0)
(7.28758 -0.0883262 0)
(7.31281 -0.0782871 0)
(7.33536 -0.0701761 0)
(7.35541 -0.0636356 0)
(7.37318 -0.0583644 0)
(7.38887 -0.0541197 0)
(7.40271 -0.0507078 0)
(7.41489 -0.0479731 0)
(7.42559 -0.0457902 0)
(7.43499 -0.0440584 0)
(7.44321 -0.0426969 0)
(7.4504 -0.0416406 0)
(7.45666 -0.040837 0)
(7.46209 -0.0402438 0)
(7.46677 -0.0398264 0)
(7.47078 -0.0395568 0)
(7.47418 -0.0394121 0)
(7.47704 -0.0393733 0)
(7.4794 -0.0394245 0)
(7.48131 -0.0395525 0)