/*--------------------------------*- C++ -*----------------------------------*\
| =========                 |                                                 |
| \\      /  F ield         | OpenFOAM: The Open Source CFD Toolbox           |
|  \\    /   O peration     | Version:  4.1                                   |
|   \\  /    A nd           | Web:      www.OpenFOAM.org                      |
|    \\/     M anipulation  |                                                 |
\*---------------------------------------------------------------------------*/
FoamFile
{
    version     2.0;
    format      ascii;
    class       volScalarField;
    location    "1700";
    object      p;
}
// * * * * * * * * * * * * * * * * * * * * * * * * * * * * * * * * * * * * * //

dimensions      [0 2 -2 0 0 0 0];

internalField   nonuniform List<scalar> 
26785
(
437.015
429.623
426.339
423.265
420.081
416.099
411.361
405.857
399.724
393.078
386.038
378.695
371.124
363.393
355.59
347.854
340.394
333.478
327.379
322.283
318.208
314.988
312.336
309.934
307.493
304.773
301.582
297.78
293.311
288.237
282.782
277.357
272.574
269.243
268.354
271.032
278.458
291.767
311.962
339.772
375.304
418.053
467.312
522.059
580.973
642.624
705.611
768.713
830.977
891.738
950.569
1007.2
1061.45
1113.18
1162.27
1208.6
1252.1
1292.69
1330.32
1364.98
1396.64
1425.32
1451.04
1473.83
1493.74
1510.81
1525.1
1536.64
1545.5
1551.74
1555.37
1556.45
1555.39
1552.03
1546.18
1537.94
1527.13
1513.53
1497
1477.43
1454.67
1428.56
1398.94
1365.62
1328.43
1287.13
1241.48
1191.2
1136
1075.52
1009.38
937.174
858.329
772.538
678.5
577.208
463.148
347.725
196.464
105.087
436.94
429.592
426.332
423.267
420.087
416.107
411.368
405.864
399.729
393.081
386.038
378.694
371.12
363.386
355.579
347.838
340.372
333.45
327.347
322.25
318.178
314.964
312.319
309.924
307.49
304.777
301.59
297.791
293.321
288.242
282.774
277.328
272.515
269.144
268.208
270.83
278.196
291.443
311.581
339.344
374.85
417.585
466.845
521.606
580.546
642.229
705.247
768.376
830.658
891.429
950.263
1006.9
1061.15
1112.87
1161.95
1208.29
1251.78
1292.37
1330.01
1364.66
1396.33
1425.01
1450.73
1473.52
1493.42
1510.49
1524.78
1536.33
1545.18
1551.42
1555.07
1556.19
1555.12
1551.78
1545.95
1537.68
1526.84
1513.22
1496.67
1477.08
1454.31
1428.18
1398.54
1365.21
1328
1286.69
1241.03
1190.74
1135.52
1075.04
1008.89
936.685
857.84
772.063
678.031
576.8
462.723
347.533
196.101
105.328
436.815
429.528
426.317
423.271
420.101
416.123
411.385
405.878
399.74
393.088
386.042
378.694
371.116
363.377
355.563
347.812
340.334
333.4
327.287
322.187
318.12
314.917
312.286
309.906
307.486
304.785
301.608
297.815
293.342
288.248
282.752
277.26
272.381
268.925
267.885
270.39
277.629
290.751
310.773
338.451
373.913
416.624
465.883
520.673
579.665
641.413
704.496
767.677
829.996
890.786
949.625
1006.26
1060.5
1112.22
1161.3
1207.63
1251.12
1291.71
1329.34
1363.99
1395.66
1424.34
1450.06
1472.85
1492.76
1509.83
1524.11
1535.67
1544.53
1550.78
1554.45
1555.62
1554.57
1551.24
1545.42
1537.11
1526.22
1512.56
1495.98
1476.36
1453.55
1427.39
1397.72
1364.37
1327.13
1285.79
1240.11
1189.8
1134.56
1074.06
1007.9
935.701
856.862
771.117
677.106
575.992
461.915
347.115
195.466
105.64
436.634
429.433
426.294
423.275
420.121
416.146
411.407
405.896
399.753
393.095
386.043
378.689
371.106
363.359
355.534
347.769
340.273
333.32
327.194
322.091
318.032
314.846
312.238
309.88
307.482
304.799
301.638
297.854
293.379
288.266
282.729
277.169
272.195
268.616
267.424
269.755
276.806
289.738
309.583
337.124
372.51
415.181
464.439
519.273
578.344
640.189
703.369
766.631
829.005
889.821
948.667
1005.29
1059.53
1111.24
1160.3
1206.63
1250.11
1290.7
1328.33
1362.98
1394.64
1423.32
1449.04
1471.83
1491.74
1508.81
1523.1
1534.65
1543.53
1549.79
1553.49
1554.72
1553.69
1550.37
1544.54
1536.19
1525.26
1511.55
1494.92
1475.25
1452.39
1426.19
1396.48
1363.08
1325.81
1284.44
1238.72
1188.38
1133.12
1072.6
1006.43
934.236
855.411
769.721
675.753
574.809
460.761
346.475
194.618
105.971
436.408
429.306
426.264
423.28
420.146
416.176
411.436
405.92
399.77
393.104
386.044
378.682
371.09
363.333
355.494
347.71
340.191
333.216
327.072
321.964
317.916
314.753
312.172
309.844
307.473
304.816
301.675
297.903
293.424
288.285
282.692
277.043
271.941
268.195
266.8
268.899
275.7
288.38
307.992
335.35
370.631
413.246
462.503
517.398
576.575
638.55
701.861
765.231
827.676
888.528
947.382
1004
1058.22
1109.91
1158.97
1205.28
1248.75
1289.33
1326.95
1361.6
1393.26
1421.94
1447.66
1470.45
1490.36
1507.43
1521.72
1533.28
1542.16
1548.45
1552.18
1553.45
1552.46
1549.15
1543.32
1534.92
1523.93
1510.16
1493.47
1473.73
1450.81
1424.56
1394.79
1361.35
1324.03
1282.61
1236.85
1186.48
1131.19
1070.66
1004.48
932.298
853.502
767.89
673.991
573.268
459.288
345.618
193.595
106.283
436.122
429.146
426.225
423.286
420.176
416.212
411.471
405.947
399.787
393.111
386.04
378.668
371.066
363.296
355.441
347.635
340.089
333.086
326.923
321.81
317.775
314.639
312.093
309.8
307.463
304.838
301.725
297.968
293.487
288.317
282.657
276.897
271.637
267.684
266.037
267.845
274.335
286.699
306.017
333.143
368.287
410.83
460.086
515.056
574.367
636.508
699.984
763.49
826.025
886.919
945.78
1002.38
1056.58
1108.26
1157.3
1203.59
1247.05
1287.62
1325.23
1359.87
1391.52
1420.19
1445.91
1468.7
1488.61
1505.68
1519.97
1531.53
1540.43
1546.73
1550.5
1551.82
1550.86
1547.56
1541.71
1533.27
1522.21
1508.37
1491.61
1471.8
1448.82
1422.49
1392.67
1359.17
1321.79
1280.32
1234.52
1184.11
1128.79
1068.23
1002.06
929.903
851.151
765.644
671.845
571.394
457.525
344.558
192.427
106.561
435.747
428.958
426.177
423.292
420.211
416.253
411.509
405.976
399.805
393.115
386.032
378.647
371.033
363.248
355.374
347.544
339.968
332.934
326.749
321.63
317.609
314.503
311.996
309.745
307.45
304.863
301.783
298.046
293.563
288.356
282.616
276.724
271.276
267.076
265.127
266.59
272.705
284.692
303.659
330.504
365.477
407.93
457.184
512.247
571.721
634.064
697.74
761.409
824.052
884.997
943.865
1000.45
1054.63
1106.28
1155.29
1201.56
1245.01
1285.56
1323.16
1357.78
1389.43
1418.09
1443.8
1466.58
1486.49
1503.55
1517.84
1529.41
1538.32
1544.64
1548.44
1549.8
1548.86
1545.57
1539.71
1531.22
1520.09
1506.17
1489.33
1469.45
1446.38
1419.98
1390.09
1356.52
1319.09
1277.56
1231.71
1181.26
1125.91
1065.35
999.177
927.063
848.375
763.002
669.334
569.205
455.495
343.306
191.136
106.793
435.321
428.738
426.122
423.297
420.249
416.298
411.551
406.007
399.821
393.115
386.016
378.618
370.988
363.188
355.294
347.437
339.829
332.762
326.551
321.426
317.42
314.348
311.885
309.681
307.433
304.892
301.852
298.141
293.656
288.41
282.578
276.534
270.867
266.381
264.082
265.142
270.823
282.37
300.926
327.44
362.208
404.553
453.805
508.977
568.645
631.227
695.139
759.002
821.77
882.772
941.647
998.214
1052.36
1103.97
1152.96
1199.2
1242.63
1283.15
1320.74
1355.35
1386.98
1415.63
1441.33
1464.1
1484
1501.06
1515.34
1526.91
1535.83
1542.17
1546
1547.38
1546.47
1543.18
1537.3
1528.76
1517.55
1503.55
1486.63
1466.66
1443.51
1417.03
1387.06
1353.42
1315.92
1274.33
1228.43
1177.94
1122.56
1062
995.851
923.795
845.192
759.982
666.48
566.722
453.218
341.875
189.738
106.975
434.84
428.488
426.058
423.302
420.291
416.346
411.595
406.037
399.834
393.11
385.993
378.577
370.933
363.116
355.2
347.315
339.673
332.57
326.333
321.2
317.21
314.173
311.757
309.605
307.411
304.924
301.932
298.252
293.768
288.477
282.542
276.327
270.413
265.602
262.905
263.506
268.691
279.736
297.823
323.955
358.48
400.697
449.948
505.248
565.142
628.001
692.187
756.274
819.188
880.254
939.133
995.674
1049.78
1101.36
1150.31
1196.52
1239.92
1280.42
1317.98
1352.57
1384.18
1412.81
1438.49
1461.25
1481.14
1498.19
1512.47
1524.03
1532.95
1539.3
1543.15
1544.56
1543.66
1540.38
1534.47
1525.88
1514.6
1500.51
1483.49
1463.43
1440.19
1413.63
1383.58
1349.86
1312.29
1270.64
1224.68
1174.16
1118.77
1058.21
992.091
920.112
841.618
756.604
663.302
563.961
450.714
340.277
188.248
107.106
434.313
428.21
425.986
423.307
420.335
416.397
411.641
406.067
399.844
393.098
385.96
378.526
370.864
363.029
355.092
347.179
339.501
332.362
326.095
320.953
316.977
313.977
311.612
309.518
307.385
304.96
302.023
298.38
293.9
288.561
282.513
276.107
269.917
264.743
261.601
261.688
266.317
276.798
294.357
320.056
354.298
396.367
445.617
501.063
561.216
624.393
688.895
753.238
816.316
877.453
936.334
992.843
1046.91
1098.44
1147.34
1193.52
1236.88
1277.35
1314.88
1349.44
1381.03
1409.64
1435.3
1458.04
1477.9
1494.94
1509.21
1520.77
1529.68
1536.04
1539.9
1541.33
1540.44
1537.16
1531.22
1522.56
1511.2
1497.02
1479.91
1459.76
1436.42
1409.77
1379.63
1345.84
1308.2
1266.49
1220.48
1169.92
1114.52
1053.98
987.913
916.031
837.67
752.883
659.818
560.941
447.999
338.524
186.677
107.185
433.738
427.901
425.907
423.31
420.382
416.45
411.686
406.094
399.848
393.077
385.916
378.462
370.781
362.928
354.97
347.028
339.315
332.137
325.84
320.686
316.724
313.762
311.449
309.419
307.354
305
302.127
298.528
294.053
288.665
282.494
275.879
269.386
263.811
260.176
259.695
263.706
273.562
290.533
315.745
349.662
391.561
440.81
496.423
556.869
620.407
685.267
749.902
813.165
874.378
933.259
989.727
1043.74
1095.22
1144.07
1190.21
1233.52
1273.95
1311.45
1345.98
1377.53
1406.11
1431.75
1454.46
1474.3
1491.32
1505.57
1517.11
1526.02
1532.38
1536.25
1537.68
1536.8
1533.5
1527.53
1518.82
1507.37
1493.1
1475.89
1455.64
1432.21
1405.46
1375.24
1341.36
1303.65
1261.88
1215.83
1165.25
1109.84
1049.33
983.329
911.566
833.365
748.836
656.045
557.675
445.088
336.624
185.034
107.213
433.059
427.57
425.821
423.313
420.43
416.505
411.732
406.119
399.846
393.048
385.861
378.383
370.683
362.812
354.833
346.864
339.115
331.899
325.569
320.4
316.451
313.525
311.269
309.306
307.318
305.043
302.244
298.697
294.232
288.79
282.487
275.645
268.822
262.81
258.637
257.532
260.866
270.033
286.356
311.024
344.572
386.275
435.523
491.323
552.101
616.047
681.312
746.274
809.743
871.04
929.914
986.334
1040.28
1091.7
1140.5
1186.58
1229.85
1270.23
1307.68
1342.17
1373.69
1402.24
1427.84
1450.52
1470.33
1487.32
1501.54
1513.07
1521.97
1528.31
1532.18
1533.62
1532.72
1529.41
1523.4
1514.63
1503.1
1488.73
1471.42
1451.06
1427.54
1400.7
1370.38
1336.43
1298.64
1256.82
1210.73
1160.13
1104.74
1044.27
978.354
906.733
828.718
744.48
651.999
554.178
441.996
334.587
183.327
107.189
432.334
427.212
425.728
423.316
420.48
416.56
411.777
406.139
399.837
393.008
385.792
378.29
370.57
362.68
354.68
346.685
338.903
331.647
325.283
320.098
316.158
313.268
311.069
309.18
307.276
305.091
302.375
298.887
294.436
288.941
282.496
275.411
268.231
261.746
256.989
255.207
257.803
266.216
281.826
305.892
339.023
380.504
429.75
485.759
546.908
611.313
677.032
742.363
806.062
867.446
926.308
982.668
1036.55
1087.9
1136.63
1182.65
1225.86
1266.19
1303.59
1338.03
1369.5
1398.01
1423.57
1446.22
1466
1482.95
1497.14
1508.64
1517.51
1523.85
1527.7
1529.13
1528.22
1524.89
1518.83
1509.99
1498.38
1483.91
1466.5
1446.04
1422.42
1395.48
1365.08
1331.05
1293.2
1251.32
1205.2
1154.59
1099.22
1038.82
973.002
901.545
823.744
739.829
647.695
550.463
438.735
332.419
181.567
107.111
431.562
426.831
425.631
423.317
420.531
416.615
411.819
406.155
399.821
392.957
385.709
378.181
370.439
362.531
354.513
346.493
338.679
331.385
324.984
319.779
315.844
312.99
310.85
309.039
307.229
305.144
302.521
299.102
294.669
289.118
282.524
275.179
267.618
260.625
255.239
252.725
254.519
262.112
276.943
300.342
333.004
374.235
423.479
479.721
541.285
606.202
672.432
738.175
802.128
863.605
922.446
978.736
1032.53
1083.8
1132.46
1178.41
1221.56
1261.83
1299.17
1333.56
1364.98
1393.44
1418.96
1441.56
1461.3
1478.21
1492.36
1503.82
1512.67
1518.97
1522.81
1524.22
1523.29
1519.93
1513.82
1504.91
1493.21
1478.64
1461.13
1440.57
1416.85
1389.82
1359.33
1325.22
1287.31
1245.39
1199.24
1148.64
1093.3
1032.98
967.286
896.017
818.457
734.897
643.147
546.542
435.316
330.125
179.76
106.974
430.751
426.43
425.528
423.319
420.582
416.67
411.86
406.165
399.795
392.894
385.611
378.054
370.29
362.364
354.329
346.288
338.443
331.111
324.674
319.444
315.512
312.69
310.611
308.884
307.176
305.202
302.684
299.341
294.931
289.326
282.575
274.956
266.988
259.453
253.392
250.09
251.019
257.72
271.699
294.363
326.502
367.456
416.695
473.197
535.222
600.713
667.514
733.717
797.951
859.524
918.335
974.541
1028.24
1079.42
1128
1173.88
1216.95
1257.15
1294.43
1328.75
1360.12
1388.53
1413.99
1436.55
1456.23
1473.09
1487.2
1498.62
1507.42
1513.7
1517.5
1518.89
1517.93
1514.52
1508.36
1499.38
1487.59
1472.93
1455.31
1434.66
1410.83
1383.71
1353.14
1318.96
1280.99
1239.03
1192.87
1142.28
1086.99
1026.77
961.219
890.163
812.872
729.698
638.366
542.424
431.75
327.709
177.915
106.771
429.909
426.006
425.423
423.32
420.634
416.725
411.897
406.169
399.759
392.817
385.497
377.909
370.122
362.179
354.129
346.069
338.197
330.828
324.352
319.095
315.16
312.368
310.351
308.714
307.117
305.266
302.864
299.607
295.227
289.566
282.653
274.744
266.347
258.236
251.455
247.308
247.302
253.034
266.084
287.939
319.498
360.146
409.382
466.17
528.71
594.84
662.279
728.996
793.541
855.214
913.981
970.088
1023.68
1074.76
1123.25
1169.04
1212.03
1252.15
1289.36
1323.62
1354.92
1383.27
1408.68
1431.18
1450.8
1467.61
1481.66
1493.03
1501.79
1508.01
1511.79
1513.13
1512.13
1508.68
1502.46
1493.4
1481.52
1466.76
1449.05
1428.29
1404.37
1377.16
1346.51
1312.26
1274.24
1232.25
1186.09
1135.53
1080.31
1020.2
954.815
883.996
807.002
724.242
633.366
538.119
428.047
325.175
176.04
106.492
428.956
425.569
425.315
423.322
420.687
416.778
411.93
406.166
399.713
392.726
385.366
377.745
369.934
361.975
353.912
345.836
337.94
330.537
324.021
318.732
314.79
312.024
310.069
308.527
307.052
305.336
303.063
299.902
295.557
289.842
282.761
274.549
265.7
256.978
249.43
244.378
243.365
248.048
260.083
281.052
311.97
352.286
401.518
458.624
521.735
588.578
656.729
724.019
788.905
850.681
909.391
965.382
1018.86
1069.83
1118.22
1163.91
1206.81
1246.84
1283.97
1318.16
1349.39
1377.67
1403.02
1425.45
1445.02
1461.76
1475.75
1487.06
1495.76
1501.93
1505.65
1506.96
1505.91
1502.41
1496.12
1486.98
1475.01
1460.15
1442.34
1421.49
1397.48
1370.18
1339.45
1305.15
1267.08
1225.07
1178.92
1128.4
1073.26
1013.28
948.086
877.529
800.858
718.543
628.157
533.634
424.214
322.525
174.145
106.125
427.964
425.117
425.206
423.324
420.739
416.829
411.96
406.155
399.655
392.62
385.216
377.56
369.725
361.751
353.677
345.589
337.673
330.237
323.68
318.356
314.401
311.658
309.766
308.325
306.982
305.413
303.28
300.226
295.923
290.157
282.903
274.376
265.052
255.685
247.322
241.301
239.203
242.75
253.682
273.681
303.896
343.853
393.08
450.539
514.283
581.919
650.865
718.793
784.056
845.937
904.572
960.428
1013.77
1064.62
1112.89
1158.48
1201.28
1241.22
1278.26
1312.37
1343.52
1371.73
1397.01
1419.38
1438.88
1455.55
1469.47
1480.7
1489.34
1495.45
1499.11
1500.36
1499.26
1495.7
1489.34
1480.11
1468.06
1453.1
1435.2
1414.25
1390.15
1362.77
1331.98
1297.62
1259.52
1217.5
1171.36
1120.9
1065.86
1006.03
941.046
870.773
794.453
712.61
622.749
528.979
420.26
319.759
172.238
105.659
426.94
424.654
425.097
423.326
420.792
416.878
411.984
406.136
399.586
392.499
385.048
377.355
369.494
361.505
353.424
345.328
337.395
329.93
323.332
317.968
313.994
311.27
309.441
308.107
306.905
305.496
303.518
300.582
296.328
290.513
283.083
274.229
264.407
254.36
245.132
238.075
234.811
237.128
246.861
265.805
295.252
334.822
384.044
441.892
506.338
574.856
644.686
713.326
779.004
840.99
899.53
955.231
1008.42
1059.14
1107.29
1152.77
1195.45
1235.29
1272.23
1306.25
1337.33
1365.46
1390.67
1412.96
1432.38
1448.98
1462.82
1473.97
1482.53
1488.57
1492.17
1493.35
1492.19
1488.56
1482.12
1472.81
1460.66
1445.62
1427.62
1406.58
1382.4
1354.94
1324.09
1289.68
1251.56
1209.54
1163.43
1113.04
1058.12
998.465
933.706
863.74
787.798
706.455
617.151
524.16
416.191
316.881
170.324
105.083
425.886
424.183
424.99
423.33
420.844
416.925
412.004
406.109
399.504
392.361
384.86
377.127
369.24
361.239
353.152
345.052
337.107
329.615
322.977
317.57
313.57
310.859
309.093
307.871
306.822
305.588
303.777
300.97
296.775
290.913
283.304
274.112
263.77
253.006
242.86
234.696
230.179
231.17
239.605
257.403
286.014
325.165
374.381
432.659
497.881
567.376
638.191
707.624
773.761
835.854
894.273
949.795
1002.82
1053.39
1101.41
1146.76
1189.32
1229.05
1265.89
1299.81
1330.8
1358.86
1383.98
1406.2
1425.54
1442.05
1455.8
1466.87
1475.34
1481.29
1484.82
1485.93
1484.7
1481
1474.47
1465.08
1452.84
1437.7
1419.61
1398.49
1374.23
1346.71
1315.8
1281.35
1243.21
1201.21
1155.15
1104.84
1050.06
990.586
926.077
856.443
780.903
700.086
611.372
519.183
412.014
313.89
168.411
104.389
424.817
423.704
424.887
423.336
420.896
416.968
412.018
406.072
399.409
392.206
384.651
376.877
368.963
360.949
352.86
344.76
336.808
329.294
322.615
317.161
313.13
310.426
308.722
307.618
306.733
305.686
304.057
301.392
297.264
291.361
283.571
274.029
263.145
251.626
240.506
231.162
225.301
224.863
231.895
248.454
276.159
314.853
364.061
422.81
488.889
559.467
631.379
701.696
768.341
830.539
888.81
944.125
996.97
1047.38
1095.26
1140.47
1182.9
1222.5
1259.23
1293.05
1323.95
1351.92
1376.96
1399.09
1418.34
1434.77
1448.42
1459.39
1467.76
1473.63
1477.07
1478.1
1476.79
1473.01
1466.4
1456.92
1444.59
1429.36
1411.19
1389.98
1365.65
1338.07
1307.11
1272.64
1234.49
1192.51
1146.51
1096.31
1041.67
982.41
918.173
848.891
773.78
693.513
605.421
514.054
407.735
310.789
166.503
103.571
423.622
423.226
424.789
423.344
420.948
417.009
412.026
406.025
399.3
392.033
384.422
376.604
368.663
360.637
352.548
344.452
336.498
328.965
322.248
316.743
312.673
309.972
308.328
307.347
306.637
305.793
304.36
301.849
297.798
291.859
283.887
273.984
262.534
250.221
238.069
227.468
220.169
218.196
223.716
238.934
265.657
303.852
353.046
412.312
479.335
551.112
624.245
695.549
762.757
825.058
883.146
938.226
990.87
1041.1
1088.84
1133.9
1176.18
1215.65
1252.25
1285.97
1316.77
1344.65
1369.6
1391.64
1410.81
1427.13
1440.69
1451.55
1459.82
1465.58
1468.92
1469.87
1468.48
1464.61
1457.91
1448.33
1435.91
1420.6
1402.35
1381.07
1356.67
1329.04
1298.04
1263.55
1225.41
1183.47
1137.54
1087.45
1032.98
973.948
910.002
841.096
766.438
686.744
599.305
508.781
403.357
307.58
164.601
102.627
422.4
422.751
424.696
423.354
420.999
417.047
412.027
405.968
399.176
391.842
384.171
376.307
368.337
360.3
352.214
344.127
336.176
328.629
321.874
316.316
312.202
309.496
307.911
307.058
306.534
305.907
304.685
302.343
298.379
292.411
284.254
273.981
261.941
248.793
235.549
223.611
214.776
211.156
215.048
228.821
254.477
292.127
341.299
401.127
469.188
542.293
616.784
689.192
757.024
819.426
877.291
932.101
984.524
1034.57
1082.14
1127.04
1169.16
1208.49
1244.96
1278.57
1309.27
1337.05
1361.92
1383.87
1402.93
1419.16
1432.6
1443.35
1451.5
1457.15
1460.39
1461.24
1459.77
1455.81
1449
1439.33
1426.83
1411.44
1393.11
1371.76
1347.31
1319.63
1288.6
1254.1
1215.98
1174.08
1128.24
1078.29
1024
965.211
901.578
833.068
758.887
679.789
593.033
503.368
398.886
304.267
162.708
101.558
421.153
422.281
424.613
423.367
421.049
417.08
412.021
405.901
399.038
391.633
383.897
375.985
367.986
359.939
351.859
343.785
335.842
328.286
321.495
315.882
311.717
308.999
307.47
306.749
306.423
306.028
305.034
302.875
299.01
293.017
284.677
274.022
261.367
247.342
232.944
219.587
209.115
203.732
205.876
218.09
242.586
279.635
328.773
389.213
458.414
532.985
608.989
682.632
751.162
813.659
871.252
925.754
977.936
1027.78
1075.18
1119.9
1161.85
1201.02
1237.36
1270.84
1301.44
1329.13
1353.9
1375.76
1394.72
1410.84
1424.17
1434.79
1442.82
1448.35
1451.48
1452.22
1450.66
1446.6
1439.69
1429.93
1417.34
1401.87
1383.47
1362.07
1337.56
1309.84
1278.8
1244.3
1206.2
1164.37
1118.63
1068.82
1014.74
956.211
892.909
824.817
751.137
672.657
586.611
497.824
394.326
300.854
160.821
100.369
419.871
421.824
424.539
423.383
421.097
417.11
412.009
405.822
398.885
391.404
383.602
375.639
367.609
359.554
351.481
343.424
335.495
327.934
321.111
315.44
311.218
308.482
307.006
306.422
306.304
306.157
305.407
303.445
299.69
293.681
285.157
274.109
260.814
245.869
230.253
215.393
203.18
195.915
196.181
206.711
229.947
266.332
315.421
376.523
446.973
523.165
600.853
675.881
745.191
807.776
865.041
919.191
971.109
1020.74
1067.95
1112.49
1154.25
1193.25
1229.44
1262.8
1293.3
1320.89
1345.56
1367.32
1386.18
1402.19
1415.39
1425.89
1433.79
1439.18
1442.19
1442.82
1441.17
1437
1429.98
1420.13
1407.45
1391.91
1373.45
1351.99
1327.44
1299.7
1268.64
1234.15
1196.1
1154.34
1108.72
1059.07
1005.2
946.958
884.008
816.353
743.196
665.355
580.047
492.153
389.682
297.345
158.94
99.0685
418.55
421.379
424.478
423.404
421.145
417.135
411.989
405.733
398.717
391.156
383.283
375.267
367.206
359.143
351.081
343.045
335.134
327.574
320.722
314.993
310.708
307.946
306.518
306.074
306.176
306.293
305.804
304.055
300.423
294.406
285.697
274.246
260.285
244.375
227.478
211.029
196.969
187.693
185.942
194.656
216.519
252.169
301.188
363.006
434.824
512.804
592.367
668.948
739.134
801.799
858.668
912.417
964.048
1013.45
1060.47
1104.79
1146.35
1185.17
1221.21
1254.45
1284.84
1312.33
1336.91
1358.57
1377.32
1393.21
1406.29
1416.65
1424.4
1429.66
1432.53
1433.05
1431.29
1427.01
1419.88
1409.94
1397.18
1381.57
1363.06
1341.55
1316.97
1289.2
1258.14
1223.68
1185.68
1144
1098.51
1049.04
995.406
937.463
874.884
807.687
735.074
657.893
573.349
486.362
384.957
293.745
157.061
97.6652
417.16
420.957
424.43
423.428
421.192
417.155
411.961
405.631
398.533
390.888
382.941
374.87
366.777
358.706
350.657
342.646
334.758
327.204
320.326
314.54
310.187
307.391
306.007
305.705
306.038
306.435
306.225
304.704
301.209
295.191
286.299
274.434
259.781
242.862
224.619
206.495
190.477
179.056
175.14
181.893
202.261
237.097
286.021
348.613
421.928
501.878
583.526
661.85
733.02
795.753
852.146
905.44
956.757
1005.92
1052.73
1096.83
1138.17
1176.8
1212.68
1245.78
1276.06
1303.46
1327.94
1349.5
1368.15
1383.91
1396.86
1407.08
1414.68
1419.79
1422.52
1422.91
1421.04
1416.64
1409.4
1399.37
1386.54
1370.86
1352.3
1330.75
1306.14
1278.36
1247.32
1212.89
1174.95
1133.38
1088.02
1038.75
985.364
927.738
865.549
798.828
726.782
650.28
566.524
480.46
380.156
290.061
155.181
96.1705
415.732
420.565
424.398
423.457
421.237
417.17
411.925
405.518
398.332
390.6
382.576
374.447
366.321
358.243
350.209
342.226
334.367
326.823
319.924
314.081
309.656
306.819
305.473
305.315
305.888
306.582
306.669
305.395
302.05
296.04
286.965
274.675
259.304
241.332
221.678
201.791
183.701
169.995
163.754
168.392
187.131
221.066
269.868
333.298
408.251
490.371
574.334
654.61
726.886
789.673
845.493
898.269
949.245
998.145
1044.74
1088.6
1129.7
1168.13
1203.83
1236.81
1266.98
1294.28
1318.67
1340.13
1358.67
1374.31
1387.12
1397.19
1404.63
1409.58
1412.16
1412.42
1410.43
1405.91
1398.55
1388.43
1375.52
1359.79
1341.18
1319.61
1294.98
1267.2
1236.17
1201.79
1163.93
1122.47
1077.27
1028.21
975.085
917.793
856.012
789.787
718.327
642.523
559.579
474.451
375.283
286.297
153.296
94.5959
414.28
420.206
424.383
423.489
421.28
417.179
411.881
405.392
398.116
390.292
382.187
373.998
365.838
357.754
349.737
341.786
333.959
326.432
319.516
313.617
309.117
306.23
304.917
304.904
305.728
306.734
307.137
306.126
302.945
296.953
287.697
274.972
258.856
239.787
218.657
196.919
176.64
160.498
151.765
154.124
171.091
204.026
252.68
317.022
393.769
478.277
564.807
647.267
720.784
783.599
838.731
890.918
941.522
990.147
1036.51
1080.11
1120.96
1159.16
1194.69
1227.54
1257.6
1284.8
1309.11
1330.47
1348.89
1364.41
1377.08
1386.99
1394.27
1399.05
1401.47
1401.59
1399.48
1394.82
1387.35
1377.13
1364.16
1348.37
1329.73
1308.13
1283.49
1255.72
1224.73
1190.4
1152.62
1111.29
1066.26
1017.42
964.581
907.64
846.286
780.575
709.721
634.633
552.523
468.345
370.343
282.46
151.403
92.9527
412.83
419.908
424.384
423.526
421.322
417.183
411.827
405.253
397.882
389.963
381.774
373.523
365.328
357.239
349.241
341.325
333.534
326.028
319.1
313.147
308.57
305.627
304.338
304.47
305.554
306.89
307.628
306.898
303.896
297.931
288.496
275.325
258.441
238.231
215.561
191.882
169.292
150.559
139.153
139.061
154.1
185.92
234.387
299.724
378.442
465.584
554.964
639.871
714.784
777.591
831.89
883.406
933.604
981.936
1028.06
1071.37
1111.94
1149.92
1185.26
1217.97
1247.92
1275.04
1299.26
1320.52
1338.84
1354.23
1366.75
1376.5
1383.61
1388.21
1390.46
1390.43
1388.19
1383.39
1375.8
1365.49
1352.44
1336.62
1317.94
1296.33
1271.69
1243.94
1212.98
1178.72
1141.04
1099.85
1055.01
1006.4
953.864
897.291
836.38
771.201
700.973
626.618
545.363
462.147
365.339
278.557
149.5
91.2519
411.574
419.649
424.407
423.565
421.361
417.181
411.765
405.102
397.632
389.613
381.336
373.021
364.792
356.697
348.721
340.843
333.092
325.611
318.675
312.672
308.015
305.009
303.737
304.013
305.366
307.048
308.14
307.711
304.903
298.975
289.363
275.738
258.06
236.668
212.394
186.683
161.657
140.168
125.898
123.169
136.099
166.653
214.865
281.274
362.151
452.21
544.779
632.458
708.969
771.729
825.019
875.762
925.513
973.532
1019.4
1062.4
1102.67
1140.4
1175.55
1208.13
1237.97
1265
1289.14
1310.31
1328.52
1343.78
1356.15
1365.73
1372.65
1377.08
1379.15
1378.96
1376.57
1371.62
1363.91
1353.51
1340.4
1324.54
1305.83
1284.22
1259.59
1231.87
1200.96
1166.77
1129.21
1088.16
1043.52
995.171
942.944
886.756
826.306
761.676
692.092
618.487
538.107
455.866
360.277
274.593
147.584
89.5034
410.012
419.484
424.451
423.606
421.396
417.173
411.693
404.937
397.365
389.242
380.875
372.493
364.228
356.13
348.177
340.339
332.632
325.179
318.24
312.191
307.454
304.378
303.116
303.532
305.162
307.207
308.673
308.563
305.965
300.085
290.299
276.212
257.718
235.102
209.163
181.328
153.735
129.314
111.966
106.381
116.975
146.047
193.871
261.394
344.617
437.918
534.096
624.98
703.4
766.111
818.183
868.031
917.277
964.961
1010.56
1053.22
1093.16
1130.62
1165.58
1198.02
1227.76
1254.71
1278.77
1299.85
1317.95
1333.08
1345.3
1354.7
1361.44
1365.66
1367.54
1367.19
1364.65
1359.54
1351.7
1341.21
1328.04
1312.14
1293.42
1271.8
1247.2
1219.51
1188.67
1154.57
1117.13
1076.25
1031.82
983.731
931.835
876.046
816.075
752.012
683.089
610.25
530.764
449.508
355.162
270.575
145.654
87.7167
408.749
419.391
424.521
423.647
421.428
417.159
411.612
404.759
397.08
388.85
380.389
371.94
363.639
355.537
347.609
339.814
332.153
324.733
317.795
311.703
306.886
303.736
302.474
303.028
304.942
307.366
309.225
309.453
307.083
301.262
291.307
276.75
257.418
233.54
205.872
175.819
145.523
117.973
97.2926
88.5699
96.5289
123.81
171.019
239.627
325.344
422.244
522.554
617.227
698.056
760.824
811.466
860.28
908.938
956.252
1001.56
1043.83
1083.42
1120.6
1155.35
1187.65
1217.3
1244.17
1268.15
1289.15
1307.15
1322.15
1334.21
1343.43
1349.97
1353.99
1355.67
1355.14
1352.44
1347.15
1339.18
1328.6
1315.37
1299.44
1280.72
1259.11
1234.53
1206.89
1176.11
1142.12
1104.81
1064.11
1019.9
972.099
920.547
865.175
805.698
742.217
673.972
601.915
523.339
443.082
349.998
266.509
143.707
85.9
408.043
419.347
424.628
423.688
421.454
417.137
411.521
404.568
396.778
388.437
379.879
371.36
363.022
354.919
347.018
339.267
331.656
324.271
317.337
311.206
306.313
303.084
301.813
302.5
304.703
307.522
309.795
310.381
308.254
302.507
292.386
277.354
257.166
231.988
202.528
170.16
137.008
106.099
81.7621
69.5202
74.445
99.5318
145.803
215.375
303.657
404.506
509.569
608.785
692.771
755.92
804.947
852.594
900.545
947.44
992.435
1034.27
1073.47
1110.34
1144.88
1177.05
1206.61
1233.41
1257.33
1278.24
1296.14
1311.01
1322.91
1331.94
1338.27
1342.08
1343.55
1342.84
1339.95
1334.48
1326.37
1315.69
1302.41
1286.46
1267.73
1246.14
1221.59
1194.01
1163.32
1129.43
1092.27
1051.76
1007.79
960.285
909.093
854.152
795.186
732.303
664.753
593.491
515.842
436.593
344.789
262.4
141.744
84.0612
407.95
419.332
424.775
423.728
421.473
417.108
411.42
404.362
396.458
388.003
379.345
370.754
362.38
354.276
346.403
338.7
331.139
323.793
316.866
310.701
305.732
302.422
301.134
301.947
304.445
307.673
310.379
311.345
309.48
303.817
293.538
278.028
256.966
230.451
199.137
164.348
128.167
93.6153
65.1966
48.9161
50.2973
72.7185
117.68
188.005
278.819
383.904
494.396
599.068
687.204
751.386
798.679
845.068
892.157
938.558
983.21
1024.56
1063.33
1099.87
1134.19
1166.24
1195.71
1222.44
1246.3
1267.14
1284.94
1299.68
1311.41
1320.25
1326.37
1329.95
1331.2
1330.3
1327.2
1321.53
1313.27
1302.5
1289.17
1273.2
1254.47
1232.91
1208.41
1180.89
1150.29
1116.52
1079.52
1039.21
995.498
948.301
897.484
842.99
784.55
722.28
655.44
584.987
508.281
430.049
339.542
258.254
139.765
82.207
408.893
419.288
424.952
423.77
421.485
417.071
411.309
404.142
396.12
387.546
378.786
370.123
361.712
353.609
345.767
338.113
330.605
323.297
316.381
310.185
305.144
301.751
300.439
301.371
304.166
307.817
310.977
312.342
310.757
305.194
294.765
278.774
256.823
228.937
195.704
158.377
118.96
80.4084
47.3567
26.3605
23.5806
42.8609
86.1715
156.971
250.182
359.67
476.234
587.388
680.858
747.118
792.685
837.777
883.835
929.629
973.905
1014.72
1053.01
1089.2
1123.29
1155.22
1184.61
1211.29
1235.1
1255.87
1273.57
1288.18
1299.75
1308.39
1314.28
1317.63
1318.65
1317.54
1314.22
1308.32
1299.91
1289.05
1275.67
1259.67
1240.96
1219.43
1194.98
1167.55
1137.04
1103.41
1066.58
1026.48
983.034
936.162
885.733
831.701
773.8
712.159
646.043
576.413
500.661
423.456
334.26
254.076
137.768
80.3439
409.131
419.185
425.126
423.82
421.487
417.023
411.188
403.908
395.763
387.069
378.203
369.466
361.02
352.919
345.11
337.507
330.052
322.784
315.88
309.656
304.548
301.071
299.727
300.77
303.864
307.952
311.585
313.37
312.085
306.637
296.067
279.597
256.742
227.452
192.229
152.232
109.331
66.334
27.9584
1.41188
-6.23549
9.4997
50.9335
121.906
217.3
331.208
454.353
573.04
673.144
742.893
786.983
830.754
875.631
920.667
964.528
1004.75
1042.53
1078.34
1112.19
1144
1173.34
1199.97
1223.74
1244.44
1262.05
1276.54
1287.95
1296.38
1302.04
1305.15
1305.92
1304.59
1301.01
1294.86
1286.3
1275.34
1261.91
1245.91
1227.21
1205.72
1181.34
1153.98
1123.59
1090.1
1053.45
1013.58
970.412
923.877
873.851
820.295
762.949
701.949
636.571
567.775
492.992
416.822
328.948
249.873
135.755