/*--------------------------------*- C++ -*----------------------------------*\
| =========                 |                                                 |
| \\      /  F ield         | OpenFOAM: The Open Source CFD Toolbox           |
|  \\    /   O peration     | Version:  4.1                                   |
|   \\  /    A nd           | Web:      www.OpenFOAM.org                      |
|    \\/     M anipulation  |                                                 |
\*---------------------------------------------------------------------------*/
FoamFile
{
    version     2.0;
    format      ascii;
    class       surfaceScalarField;
    location    "1700";
    object      phi;
}
// * * * * * * * * * * * * * * * * * * * * * * * * * * * * * * * * * * * * * //

dimensions      [0 3 -1 0 0 0 0];

internalField   nonuniform List<scalar> 
52920
(
-6284.06
289.38
-6562.83
278.762
-6838.17
275.344
-7115.66
277.493
-7396.88
281.221
-7683.17
286.295
-7975.05
291.884
-8273
297.955
-8577.36
304.358
-8888.44
311.089
-9206.53
318.084
-9531.74
325.222
-9863.98
332.237
-10202.6
338.66
-10546.4
343.769
-10893
346.62
-11239.2
346.218
-11581.1
341.9
-11915
333.843
-12238.4
323.41
-12551.3
312.918
-12856
304.682
-13155.9
299.912
-13454.2
298.339
-13753
298.774
-14053
299.992
-14354.2
301.235
-14656.4
302.154
-14958.8
302.469
-15260.5
301.704
-15559.6
299.105
-15853.3
293.698
-16137.7
284.35
-16407.5
269.814
-16656.3
248.799
-16876.4
220.091
-17059.1
182.764
-17195.6
136.438
-17277.1
81.4894
-17296.4
19.289
-17249.1
-47.3024
-17133.9
-115.134
-16951.6
-182.281
-16705.4
-246.263
-16400.8
-304.578
-16045.2
-355.573
-15646.6
-398.607
-15212.4
-434.163
-14748.8
-463.641
-14259.9
-488.877
-13748.3
-511.583
-13215.4
-532.921
-12662
-553.425
-12088.8
-573.18
-11496.8
-592.047
-10886.9
-609.823
-10260.6
-626.345
-9619.08
-641.518
-8963.77
-655.308
-8296.05
-667.722
-7617.26
-678.787
-6928.72
-688.534
-6231.72
-697
-5527.48
-704.239
-4817.17
-710.318
-4101.94
-715.226
-3383.17
-718.768
-2662.8
-720.376
-1944.51
-718.287
-1234.41
-710.095
-519.312
-715.099
221.711
-741.023
951.17
-729.457
1688.15
-736.979
2460.03
-771.882
3268.15
-808.113
4109.32
-841.171
4983.65
-874.326
5891.45
-907.806
6832.77
-941.314
7807.69
-974.924
8816.67
-1008.98
9860.51
-1043.83
10940.3
-1079.75
12057.2
-1116.95
13212.8
-1155.63
14408.8
-1195.92
15646.7
-1237.98
16928.6
-1281.86
18256.3
-1327.73
19631.8
-1375.52
21057.5
-1425.67
22535.2
-1477.68
24068.5
-1533.3
25658.3
-1589.85
27313
-1654.64
29027.4
-1714.4
30828.8
-1801.4
32679.2
-1850.45
-2023.64
-6275.94
579.315
-6555.78
558.606
-6832.73
552.293
-7112.38
557.144
-7396.44
565.286
-7686.35
576.206
-7982.74
588.284
-8286.24
601.453
-8597.31
615.428
-8916.41
630.199
-9243.96
645.637
-9580.21
661.47
-9925.09
677.122
-10278
691.564
-10637.4
703.221
-11000.8
710.021
-11364.4
709.772
-11723.5
700.974
-12073.5
683.933
-12411.7
661.547
-12737.6
638.839
-13053.8
620.918
-13364.5
610.569
-13673.5
607.344
-13983.4
608.698
-14295.3
611.902
-14609.3
615.196
-14924.8
617.723
-15241.2
618.848
-15557.1
617.572
-15870.3
612.364
-16177.9
601.266
-16475.6
582.022
-16757.9
552.18
-17018.4
509.216
-17249
450.77
-17441.3
375.05
-17586.2
281.348
-17675.2
170.448
-17701
45.1497
-17659.7
-88.6371
-17550.3
-224.572
-17373.3
-359.236
-17131.7
-487.838
-16831.1
-605.266
-16478.4
-708.179
-16081.8
-795.224
-15648.7
-867.317
-15185.1
-927.233
-14695.3
-978.651
-14181.9
-1025.01
-13646.1
-1068.66
-13088.9
-1110.66
-12510.9
-1151.14
-11913.2
-1189.79
-11296.8
-1226.17
-10663.3
-1259.92
-10013.9
-1290.86
-9350.29
-1318.93
-8673.82
-1344.19
-7985.88
-1366.73
-7287.78
-1386.63
-6580.81
-1403.97
-5866.28
-1418.77
-5145.45
-1431.15
-4419.45
-1441.22
-3689.14
-1449.08
-2955
-1454.52
-2217.34
-1455.94
-1475.43
-1452.01
-735.87
-1454.66
-2.02388
-1474.87
743.523
-1475
1500.92
-1494.38
2282.55
-1553.5
3094.73
-1620.3
3939.34
-1685.78
4816.7
-1751.68
5726.87
-1817.98
6669.98
-1884.42
7646.26
-1951.2
8656.14
-2018.87
9700.27
-2087.96
10779.5
-2159
11895
-2232.48
13048.3
-2308.87
14240.9
-2388.5
15474.6
-2471.67
16751.2
-2558.48
18072.6
-2649.16
19440.7
-2743.56
20857.4
-2842.44
22324.7
-2944.93
23845.6
-3054.18
25421.3
-3165.63
27058.8
-3292.13
28755.6
-3411.13
30532.6
-3578.41
32361.5
-3679.35
-4008.96
-6266.69
869.814
-6548.46
840.375
-6827.75
831.583
-7110.48
839.875
-7398.41
853.217
-7693.06
870.863
-7995.19
890.415
-8305.5
911.761
-8624.55
934.478
-8952.87
958.529
-9290.91
983.678
-9638.89
1009.45
-9996.61
1034.85
-10363.2
1058.18
-10736.8
1076.84
-11114.3
1087.45
-11491
1086.48
-11861.6
1071.55
-12220.9
1043.29
-12565.9
1006.54
-12896.6
969.586
-13216.5
940.755
-13530.4
924.491
-13842.9
919.896
-14156.9
922.657
-14473.2
928.207
-14791.6
933.613
-15111.4
937.483
-15431.4
938.858
-15750.1
936.286
-16065.3
927.549
-16373.8
909.811
-16671.6
879.825
-16953.5
834.06
-17213.2
768.876
-17443.3
680.86
-17635.6
567.419
-17781.8
427.527
-17873.7
262.324
-17904.3
75.8194
-17869.2
-123.773
-17766.4
-327.402
-17595.9
-529.667
-17360.7
-723.11
-17065.9
-900.072
-16718.6
-1055.4
-16326.9
-1186.97
-15898.1
-1296.07
-15438.5
-1386.86
-14952.3
-1464.89
-14441.9
-1535.39
-13908.7
-1601.9
-13353.3
-1666.01
-12776.5
-1727.91
-12179.2
-1787.06
-11562.7
-1842.76
-10928.1
-1894.44
-10277.2
-1941.76
-9611.51
-1984.66
-8932.46
-2023.23
-8241.53
-2057.66
-7539.99
-2088.17
-6829.03
-2114.92
-6109.76
-2138.04
-5383.23
-2157.68
-4650.45
-2174.01
-3912.25
-2187.27
-3169.21
-2197.56
-2421.33
-2203.82
-1667.88
-2205.46
-912.801
-2209.74
-163.987
-2223.68
591.167
-2230.16
1360.16
-2263.37
2151.24
-2344.58
2970.6
-2439.66
3821.28
-2536.46
4703.84
-2634.24
5618.37
-2732.52
6564.98
-2831.03
7543.86
-2930.09
8555.42
-3030.43
9600.34
-3132.88
10679.6
-3238.26
11794.4
-3347.33
12946.3
-3460.75
14136.8
-3578.98
15367.5
-3702.34
16639.9
-3830.92
17955.7
-3965
19316.5
-4104.36
20724.2
-4250.09
22180.3
-4401.08
23687.9
-4561.71
25248.4
-4726.13
26867.8
-4911.58
28545.4
-5088.74
30298.5
-5331.44
32104.4
-5485.31
-5960.08
-6257.12
1161.14
-6540.94
1124.19
-6822.64
1113.29
-7108.44
1125.68
-7400.08
1144.86
-7699.14
1169.93
-8006.42
1197.69
-8322.63
1227.98
-8648.37
1260.22
-8984.15
1294.31
-9330.34
1329.87
-9687.04
1366.15
-10053.8
1401.65
-10429.5
1433.88
-10811.8
1459.09
-11196.8
1472.51
-11579.6
1469.21
-11954.1
1446.1
-12315.2
1404.41
-12660.2
1351.46
-12989.8
1299.27
-13308.6
1259.56
-13622.4
1238.21
-13935.8
1233.35
-14251.6
1238.43
-14570.2
1246.8
-14890.9
1254.36
-15212.7
1259.3
-15534.4
1260.47
-15854.2
1256.11
-16170.1
1243.43
-16479
1218.81
-16777.3
1178.07
-17059.9
1116.63
-17320.7
1029.71
-17552.6
912.795
-17747.6
762.421
-17897.3
577.17
-17993.4
358.471
-18029.1
111.47
-17999.4
-153.452
-17902.1
-424.642
-17737.1
-694.723
-17506.7
-953.436
-17216.3
-1190.48
-16873
-1398.77
-16484.6
-1575.3
-16059
-1721.7
-15602.4
-1843.5
-15119.1
-1948.21
-14611.5
-2042.91
-14081
-2132.4
-13528.2
-2218.79
-12953.9
-2302.3
-12358.7
-2382.17
-11744.1
-2457.44
-11111.2
-2527.29
-10461.7
-2591.32
-9796.94
-2649.39
-9118.5
-2701.67
-8427.71
-2748.45
-7725.84
-2790.04
-7014.01
-2826.75
-6293.24
-2858.82
-5564.46
-2886.45
-4828.55
-2909.91
-4086.27
-2929.55
-3338.19
-2945.65
-2584.37
-2957.64
-1824.43
-2965.4
-1060.77
-2973.39
-299.23
-2985.22
466.997
-2996.38
1246.28
-3042.66
2046.24
-3144.54
2872.84
-3266.26
3729.46
-3393.08
4616.89
-3521.66
5535.32
-3650.95
6484.88
-3780.59
7465.83
-3911.03
8478.64
-4043.23
9524.05
-4178.29
10603.1
-4317.29
11716.9
-4461.19
12867
-4610.79
14054.6
-4766.57
15281.1
-4928.91
16548.1
-5097.84
17856.8
-5273.73
19208.8
-5456.33
20605.7
-5647.05
22049.4
-5844.7
23542.4
-6054.76
25086.7
-6270.46
26687.8
-6512.66
28345.9
-6746.8
30075.9
-7061.51
31858.8
-7268.23
-7880.7
-6246.43
1452.89
-6532.17
1409.94
-6815.91
1397.02
-7104.28
1414.05
-7398.93
1439.52
-7701.45
1472.45
-8012.6
1508.85
-8333.11
1548.49
-8663.52
1590.63
-9004.3
1635.09
-9355.72
1681.3
-9717.75
1728.17
-10089.8
1773.67
-10470.3
1814.42
-10856.7
1845.47
-11244.8
1860.59
-11629.1
1853.54
-12003.6
1820.66
-12363.4
1764.15
-12706.1
1694.19
-13033.7
1626.83
-13351.3
1577.18
-13665.2
1552.12
-13980.1
1548.3
-14298.2
1556.51
-14619.3
1567.94
-14942.4
1577.41
-15266
1582.91
-15588.8
1583.3
-15909.4
1576.65
-16225.6
1559.69
-16534.9
1528.08
-16833.6
1476.71
-17116.9
1399.93
-17378.9
1291.76
-17612.6
1146.53
-17810.1
959.851
-17962.8
729.876
-18062.6
458.291
-18102.4
151.32
-18077.2
-178.656
-17984.4
-517.511
-17823.2
-855.875
-17596.2
-1180.48
-17308.4
-1478.23
-16967.2
-1740
-16580.7
-1961.76
-16156.9
-2145.46
-15702.4
-2298.04
-15221.5
-2429.08
-14716.8
-2547.62
-14189.4
-2659.78
-13640
-2768.24
-13069.1
-2873.19
-12477.6
-2973.69
-11866.5
-3068.48
-11237.3
-3156.56
-10591.2
-3237.4
-9929.68
-3310.88
-9254.15
-3377.2
-8565.83
-3436.76
-7865.89
-3489.99
-7155.36
-3537.28
-6435.19
-3578.99
-5706.23
-3615.41
-4969.29
-3646.86
-4225.05
-3673.79
-3474.07
-3696.63
-2716.54
-3715.17
-1952.37
-3729.57
-1183.11
-3742.65
-412.23
-3756.1
363.866
-3772.48
1152.17
-3830.96
1960.18
-3952.56
2793.58
-4099.65
3655.65
-4255.14
4547.37
-4413.38
5469.02
-4572.6
6420.82
-4732.4
7403.14
-4893.35
8416.54
-5056.63
9461.83
-5223.58
10540
-5395.47
11652.2
-5573.4
12799.7
-5758.23
13983.6
-5950.47
15205.1
-6150.5
16465.7
-6358.37
17766.5
-6574.52
19108.9
-6798.72
20494.6
-7032.76
21925.3
-7275.4
23403.7
-7533.16
24931.8
-7798.6
26514.9
-8095.75
28153.7
-8385.65
29862.1
-8769.81
31622.6
-9028.76
-9773.62
-6234.92
1749.07
-6521
1696.01
-6806.52
1682.55
-7096.73
1704.26
-7393.54
1736.33
-7698.42
1777.33
-8012.12
1822.55
-8335.31
1871.68
-8668.49
1923.81
-9012.08
1978.68
-9366.28
2035.51
-9730.97
2092.87
-10105.4
2148.12
-10488
2196.99
-10875.8
2233.31
-11264.6
2249.4
-11648.8
2237.73
-12022.4
2194.2
-12380.5
2122.24
-12721.4
2035.15
-13047.8
1953.17
-13365.3
1894.68
-13680.3
1867.2
-13997.4
1865.37
-14318
1877.08
-14641.4
1891.32
-14966
1902.07
-15290.4
1907.34
-15613.4
1906.25
-15933.6
1896.83
-16249.3
1875.4
-16558.1
1836.91
-16856.6
1775.27
-17140.4
1683.68
-17403.5
1554.89
-17639
1381.98
-17838.7
1159.58
-17994.2
885.34
-18097.1
561.191
-18140.2
194.419
-18118.2
-200.665
-18028.1
-607.536
-17869.2
-1014.83
-17643.6
-1406.05
-17356.7
-1765.13
-17016
-2080.72
-16630
-2347.7
-16207.2
-2568.28
-15754.3
-2750.94
-15276
-2907.45
-14774.5
-3049.02
-14251.1
-3183.21
-13706.1
-3313.22
-13140
-3439.29
-12553.5
-3560.19
-11947.6
-3674.41
-11323.4
-3780.74
-10682.3
-3878.56
-10025.4
-3967.73
-9354.1
-4048.51
-8669.5
-4121.37
-7972.65
-4186.83
-7264.54
-4245.39
-6546.08
-4297.46
-5818.07
-4343.41
-5081.29
-4383.64
-4336.42
-4418.67
-3584
-4449.04
-2824.31
-4474.86
-2057.4
-4496.48
-1284.24
-4515.81
-506.621
-4533.72
277.528
-4556.63
1073.59
-4627.02
1888.64
-4767.6
2728.01
-4939.02
3594.78
-5121.91
4490.05
-5308.65
5414.2
-5496.75
6367.56
-5685.76
7350.62
-5876.41
8364.04
-6070.05
9408.66
-6268.19
10485.4
-6472.23
11595.3
-6683.34
12739.5
-6902.42
13919.1
-7130
15135
-7366.47
16388.6
-7611.89
17680.9
-7866.82
19013.2
-8131.09
20387.3
-8406.87
21804.9
-8692.95
23268.6
-8996.88
24780.7
-9310.65
26346.1
-9661.16
27966
-10005.6
29653.3
-10457.1
31392
-10767.4
-11640.8
-6220.53
2045.13
-6507.23
1982.71
-6793.82
1969.14
-7085.21
1995.65
-7383.36
2034.48
-7689.62
2083.6
-8004.71
2137.64
-8329.24
2196.21
-8663.68
2258.26
-9008.41
2323.42
-9363.62
2390.73
-9729.16
2458.4
-10104.3
2523.23
-10487.3
2580.01
-10875.3
2621.35
-11264
2638.09
-11647.7
2621.47
-12020.5
2566.97
-12377.6
2479.36
-12717.7
2375.27
-13043.8
2279.24
-13362
2212.82
-13678.6
2183.8
-13997.6
2184.47
-14320.1
2199.58
-14644.8
2216
-14969.9
2227.12
-15293.8
2231.28
-15615.6
2228.08
-15934.4
2215.62
-16248.9
2189.84
-16556.8
2144.88
-16855.1
2073.59
-17139.4
1967.89
-17403.6
1819.15
-17640.7
1619.1
-17842.5
1361.32
-18000.1
1042.99
-18105.2
666.291
-18150.4
239.618
-18130.3
-220.818
-18041.6
-696.152
-17883.4
-1173.06
-17657.9
-1631.55
-17370.6
-2052.4
-17029.5
-2421.89
-16643.5
-2733.7
-16221.4
-2990.31
-15770.5
-3201.88
-15295.3
-3382.62
-14798.2
-3546.11
-14280
-3701.46
-13740.7
-3852.48
-13180.7
-3999.33
-12600.3
-4140.53
-12000.5
-4274.22
-11382.3
-4398.99
-10746.7
-4514.1
-10095.1
-4619.38
-9428.47
-4715.12
-8747.98
-4801.86
-8054.63
-4880.19
-7349.35
-4950.67
-6633.03
-5013.78
-5906.5
-5069.93
-5170.53
-5119.61
-4425.79
-5163.41
-3672.85
-5201.99
-2912
-5235.71
-2143.39
-5265.09
-1367.57
-5291.62
-585.196
-5316.1
205.204
-5347.03
1007.79
-5429.61
1828.85
-5588.66
2673.31
-5783.48
3544.02
-5992.62
4442.12
-6206.75
5368.08
-6422.71
6322.36
-6640.04
7305.57
-6859.62
8318.45
-7082.93
9361.82
-7311.56
10436.6
-7546.99
11543.7
-7790.43
12684
-8042.78
13858.6
-8304.58
15068.4
-8576.25
16314.4
-8857.87
17597.7
-9150.15
18919.7
-9453.04
20281.9
-9769.09
21686.1
-10097.2
23135.1
-10445.8
24631.1
-10806.6
26179
-11209.1
27780.2
-11606.8
29447.1
-12124.1
31164.2
-12484.5
-13483.6
-6203.44
2340.38
-6490.6
2269.87
-6777.61
2256.16
-7069.62
2287.66
-7368.41
2333.27
-7675.26
2390.45
-7990.82
2453.21
-8315.68
2521.07
-8650.26
2592.84
-8994.95
2668.11
-9349.95
2745.73
-9715.15
2823.6
-10089.8
2897.92
-10472.4
2962.61
-10860.1
3008.99
-11248.4
3026.46
-11631.9
3004.91
-12004.4
2939.46
-12361.2
2836.22
-12701.2
2715.28
-13027.6
2605.6
-13346.6
2531.83
-13664.6
2501.79
-13985.2
2505.06
-14308.7
2523.12
-14633.6
2540.86
-14957.8
2551.35
-15280.1
2553.61
-15599.9
2547.89
-15916.7
2532.43
-16229.6
2502.71
-16536.6
2451.93
-16834.8
2371.75
-17119.6
2252.65
-17384.9
2084.49
-17623.4
1857.62
-17826.6
1564.56
-17985.7
1202.06
-18092.1
772.652
-18138.4
285.904
-18119.1
-240.113
-18030.9
-784.281
-17872.6
-1331.36
-17646.6
-1857.59
-17358.6
-2340.44
-17016.8
-2763.63
-16631
-3119.55
-16210.2
-3411.02
-15762.1
-3650.03
-15291.2
-3853.5
-14799.6
-4037.69
-14287.7
-4213.41
-13755.1
-4385.02
-13201.9
-4552.55
-12628.3
-4714.17
-12034.9
-4867.63
-11422.6
-5011.23
-10792.6
-5144.1
-10146
-5266
-9483.86
-5377.25
-8807.29
-5478.43
-8117.27
-5570.2
-7414.76
-5653.18
-6700.65
-5727.88
-5975.8
-5794.79
-5240.97
-5854.44
-4496.86
-5907.52
-3744.02
-5954.82
-2982.78
-5996.95
-2213.27
-6034.61
-1435.74
-6069.15
-650.124
-6101.71
144.945
-6142.09
952.826
-6237.49
1778.88
-6414.72
2627.55
-6632.16
3501.43
-6866.5
4401.63
-7106.95
5328.75
-7349.83
6283.37
-7594.66
7266.19
-7842.44
8277.99
-8094.73
9319.58
-8353.15
10391.8
-8619.2
11495.5
-8894.09
12631.4
-9178.73
13800.4
-9473.63
15003.5
-9779.27
16241.4
-10095.8
17515.3
-10424.1
18826.4
-10764.2
20176.5
-11119.1
21567.2
-11487.9
23001.3
-11880
24481.2
-12286.5
26011.8
-12739.6
27594.4
-13189.4
29241.3
-13771
30937.2
-14180.4
-15303.2
-6183.77
2634.11
-6471.04
2557.14
-6757.99
2543.11
-7050.13
2579.8
-7349
2632.14
-7655.83
2697.28
-7971.19
2768.58
-8295.63
2845.51
-8629.57
2926.78
-8973.4
3011.94
-9327.37
3099.71
-9691.45
3187.68
-10065
3271.52
-10446.7
3344.24
-10833.6
3395.93
-11221.6
3414.45
-11605
3388.28
-11977.6
3312.07
-12334.7
3193.32
-12675
3055.63
-13001.9
2932.51
-13321.8
2851.71
-13640.9
2820.82
-13962.3
2826.49
-14286
2846.81
-14610
2864.87
-14932.4
2873.79
-15252.3
2873.51
-15569.6
2865.12
-15884.1
2846.99
-16195.4
2813.96
-16501.6
2758.15
-16799.6
2669.82
-17084.9
2537.9
-17351.1
2350.67
-17590.5
2097.08
-17794.6
1768.66
-17954.4
1361.84
-18061.4
879.61
-18108.2
332.785
-18089.5
-258.82
-18001.8
-871.979
-17843.6
-1489.58
-17617.3
-2083.86
-17329
-2628.75
-16987.3
-3105.32
-16602.4
-3504.53
-16183.8
-3829.56
-15739.4
-4094.44
-15273.7
-4319.18
-14788.5
-4522.95
-14283.4
-4718.45
-13757.9
-4910.52
-13211.6
-5098.93
-12644.4
-5281.37
-12056.9
-5455.1
-11450
-5618.08
-10824.9
-5769.25
-10182.6
-5908.29
-9524.31
-6035.53
-8851.12
-6151.62
-8164.05
-6257.27
-7464.07
-6353.17
-6752.08
-6439.87
-6028.95
-6517.92
-5295.47
-6587.92
-4552.34
-6650.65
-3800.09
-6707.07
-3039.04
-6758
-2269.28
-6804.36
-1490.84
-6847.6
-703.189
-6889.36
95.1897
-6940.47
907.23
-7049.53
1737.31
-7244.8
2589.33
-7484.18
3465.62
-7742.78
4367.27
-8008.6
5294.95
-8277.51
6249.35
-8549.07
7231.25
-8824.34
8241.43
-9104.91
9280.68
-9392.39
10349.8
-9688.27
11449.4
-9993.72
12580.3
-10309.6
13743.2
-10636.5
14938.9
-10975
16168.2
-11325.1
17432.2
-11688.1
18732.2
-12064.2
20069.8
-12456.7
21446.9
-12865
22866.1
-13299.2
24329.9
-13750.4
25843.2
-14252.9
27407.5
-14753.6
29034.7
-15398.2
30709.6
-15855.4
-17100.4
-6161.47
2925.57
-6448.71
2844.38
-6735.16
2829.57
-7027.06
2871.71
-7325.6
2930.69
-7631.95
3003.63
-7946.63
3083.26
-8270.13
3169.01
-8602.87
3259.52
-8945.26
3354.34
-9297.63
3452.08
-9660.04
3550.09
-10032
3643.52
-10412.3
3724.54
-10798.3
3781.94
-11185.9
3801.99
-11569.3
3771.71
-11942.3
3685.12
-12300.1
3551.04
-12641.1
3396.68
-12968.8
3260.18
-13289.5
3172.38
-13609.1
3140.51
-13930.7
3148.07
-14253.7
3169.8
-14576
3187.17
-14895.9
3193.66
-15212.8
3190.44
-15527.2
3179.49
-15839.4
3159.21
-16149.1
3123.64
-16454.5
3063.59
-16752.5
2967.77
-17038
2823.45
-17304.6
2617.31
-17544.5
2336.97
-17749
1973.12
-17909.2
1522
-18016.7
987.178
-18064.6
380.655
-18047.2
-276.234
-17960.8
-958.317
-17803.7
-1646.67
-17578.3
-2309.27
-17290.7
-2916.34
-16950
-3446.08
-16566.6
-3887.89
-16150.8
-4245.33
-15710.6
-4534.67
-15250.5
-4779.32
-14771.6
-5001.79
-14273.3
-5216.74
-13754.4
-5429.43
-13214.2
-5639.19
-12652.5
-5843.04
-12069.9
-6037.66
-11467.4
-6220.58
-10846.2
-6390.54
-10207.3
-6547.14
-9552.12
-6690.72
-8881.73
-6822.01
-8197.19
-6941.81
-7499.48
-7050.87
-6789.52
-7149.84
-6068.16
-7239.28
-5336.2
-7319.87
-4594.33
-7392.52
-3843.07
-7458.33
-3082.7
-7518.37
-2313.26
-7573.81
-1534.57
-7626.29
-745.862
-7678.06
54.6608
-7740.99
869.818
-7864.69
1703.03
-8078.01
2557.59
-8338.74
3435.57
-8620.76
4338.02
-8911.05
5265.69
-9205.18
6219.35
-9502.72
7199.8
-9804.79
8207.81
-10112.9
9244.14
-10428.7
10309.5
-10753.6
11404.4
-11088.7
12529.7
-11434.9
13685.8
-11792.7
14873.6
-12162.7
16093.9
-12545.4
17347.6
-12941.8
18636.1
-13352.7
19961.1
-13781.7
21324.3
-14228.2
22728.7
-14703.5
24176.5
-15198.2
25672.6
-15749
27218.6
-16299.6
28826.3
-17006
30480.7
-17509.7
-18875.9
-6138.27
3222.38
-6423.48
3129.59
-6709.47
3115.56
-7000.76
3163
-7298.68
3228.61
-7604.23
3309.18
-7917.88
3396.91
-8240.08
3491.22
-8571.23
3590.68
-8911.79
3694.89
-9262.13
3802.42
-9622.45
3910.41
-9992.46
4013.54
-10371.1
4103.13
-10755.8
4166.73
-11142.8
4188.97
-11526.3
4155.23
-11900
4058.82
-12258.7
3909.74
-12600.8
3738.77
-12929.4
3588.78
-13250.8
3493.73
-13570.7
3460.43
-13891.8
3469.15
-14213.3
3491.31
-14533.1
3507.01
-14849.8
3510.38
-15163.4
3504.04
-15474.8
3490.86
-15784.7
3469.11
-16092.9
3431.81
-16397.5
3368.24
-16695.2
3265.42
-16980.7
3108.96
-17247.4
2884.02
-17487.4
2576.99
-17692.2
2177.93
-17853.2
1683.01
-17962.4
1096.35
-18012.7
430.946
-17998.2
-290.704
-17914.9
-1041.59
-17760.6
-1801.02
-17537.4
-2532.48
-17251.4
-3202.25
-16912.1
-3785.38
-16530.5
-4269.49
-16117.4
-4658.47
-15681
-4971.04
-15225.9
-5234.46
-14752.8
-5474.91
-14260.3
-5709.19
-13746.9
-5942.84
-13211.6
-6174.52
-12654.2
-6400.42
-12075.4
-6616.51
-11476.1
-6819.85
-10857.7
-7008.96
-10221.4
-7183.37
-9568.67
-7343.47
-8900.59
-7490.08
-8218.27
-7624.13
-7522.66
-7746.48
-6814.68
-7857.82
-6095.16
-7958.8
-5364.89
-8050.14
-4624.54
-8132.87
-3874.6
-8208.27
-3115.33
-8277.65
-2346.68
-8342.46
-1568.33
-8404.63
-779.312
-8467.08
22.4027
-8542.71
839.676
-8681.96
1675.14
-8913.47
2531.48
-9195.07
3410.46
-9499.74
4313.11
-9813.71
5240.23
-10132.3
6192.61
-10455.1
7171.06
-10783.2
8176.34
-11118.2
9209.15
-11461.5
10270.1
-11814.6
11359.8
-12178.4
12478.8
-12553.8
13627.6
-12941.5
14807
-13342.1
16017.7
-13756.1
17260.9
-14185
18537.6
-14629.5
19849.7
-15093.8
21199.1
-15577.6
22588.5
-16092.9
24020.3
-16630.1
25499.4
-17228
27027.2
-17827.4
28615.8
-18594.6
30249.8
-19143.8
-20630.6
-6112.02
3516.31
-6395.93
3413.5
-6681.17
3400.8
-6971.6
3453.43
-7268.7
3525.71
-7573.23
3613.71
-7885.62
3709.3
-8206.27
3811.87
-8535.57
3919.98
-8873.98
4033.31
-9221.98
4150.42
-9579.85
4268.28
-9947.51
4381.2
-10324.1
4479.68
-10707.3
4550.02
-11093.6
4575.19
-11477.2
4538.84
-11851.7
4433.36
-12211.7
4269.74
-12555.2
4082.25
-12884.9
3918.48
-13206.8
3815.63
-13526.5
3780.13
-13846.4
3789.08
-14165.7
3810.65
-14482.5
3823.8
-14795.7
3823.56
-15105.8
3814.11
-15414.1
3799.19
-15721.7
3776.72
-16028.4
3738.45
-16332.1
3671.96
-16629.2
3562.53
-16914.4
3394.16
-17181
3150.61
-17421.3
2817.32
-17627.2
2383.84
-17790.5
1846.31
-17903.3
1209.17
-17958.4
485.985
-17949.1
-299.968
-17870.9
-1119.81
-17720.8
-1951.05
-17500.8
-2752.51
-17216.9
-3486.14
-16878.8
-4123.49
-16498.2
-4650.08
-16086.6
-5070.05
-15652.9
-5404.8
-15201.5
-5685.85
-14732.8
-5943.58
-14244.9
-6197.1
-13735.7
-6452.08
-13203.9
-6706.22
-12649.6
-6954.74
-12073.4
-7192.76
-11476.4
-7416.85
-10860
-7625.31
-10225.8
-7817.63
-9574.99
-7994.25
-8908.9
-8156.17
-8228.59
-8304.45
-7534.99
-8440.08
-6828.99
-8563.83
-6111.4
-8676.39
-5382.97
-8778.57
-4644.37
-8871.48
-3896.06
-8956.58
-3138.23
-9035.47
-2370.79
-9109.9
-1593.29
-9182.13
-804.611
-9255.76
-2.52758
-9344.79
815.976
-9500.46
1652.92
-9750.41
2510.3
-10052.5
3389.64
-10379.1
4291.91
-10716
5217.92
-11058.3
6168.48
-11405.7
7144.38
-11759.1
8146.37
-12120.2
9175.07
-12490.2
10231.1
-12870.6
11314.9
-13262.2
12427
-13666
13568
-14082.5
14738.5
-14512.6
15939.4
-14956.9
17171.5
-15417.1
18436.3
-15894.3
19735.5
-16392.9
21070.9
-16913
22445.2
-17467.2
23861.2
-18046
25323.2
-18690.1
26833.1
-19337.2
28402.7
-20164.2
30016.8
-20757.9
-22364.9
-6083.28
3806.75
-6366.32
3696.54
-6650.51
3684.99
-6939.95
3742.87
-7236.05
3821.81
-7539.42
3917.08
-7850.39
4020.28
-8169.33
4130.81
-8496.59
4247.24
-8832.65
4369.37
-9178.03
4495.8
-9533.16
4623.41
-9898.11
4746.15
-10272.2
4853.82
-10653.7
4931.48
-11039
4960.43
-11422.6
4922.5
-11798.1
4808.9
-12159.8
4631.38
-12505
4427.46
-12835.9
4249.45
-13158.2
4137.94
-13477.3
4099.19
-13795.5
4107.25
-14112
4127.23
-14425.3
4137.09
-14734.7
4132.92
-15041.1
4120.55
-15346.4
4104.48
-15651.7
4082.05
-15956.8
4043.48
-16259.4
3974.56
-16555.7
3858.86
-16840.5
3678.93
-17107.2
3417.38
-17348.8
3058.89
-17557.5
2592.58
-17725.6
2014.37
-17844.9
1328.49
-17907.5
548.549
-17905.7
-301.727
-17834.2
-1191.3
-17689.5
-2095.81
-17472.8
-2969.21
-17190.3
-3768.65
-16852
-4461.7
-16470.7
-5031.38
-16058.8
-5481.95
-15625.9
-5837.75
-15176.6
-6135.15
-14710.9
-6409.29
-14226.2
-6681.82
-13719.9
-6958.37
-13190.7
-7235.4
-12638.5
-7506.95
-12064
-7767.22
-11468.6
-8012.23
-10853.8
-8240.11
-10221.2
-8450.29
-9572.07
-8643.35
-8907.77
-8820.46
-8229.35
-8982.87
-7537.72
-9131.71
-6833.71
-9267.84
-6118.12
-9391.98
-5391.67
-9505.01
-4655.01
-9608.14
-3908.57
-9703.02
-3152.5
-9791.54
-2386.64
-9875.76
-1610.43
-9958.34
-822.653
-10043.5
-20.9056
-10146.5
798.042
-10319.4
1635.72
-10588.1
2493.48
-10910.2
3372.56
-11258.2
4273.86
-11617.3
5198.22
-11982.7
6146.42
-12353.9
7119.24
-12732
8117.36
-13118.3
9141.39
-13514.3
10191.9
-13921
11269.2
-14339.6
12374
-14770.7
13506.7
-15215.2
14667.9
-15673.9
15858.5
-16147.5
17079.4
-16638.1
18332.1
-17146.9
19618.1
-17678.9
20939.5
-18234.4
22298.8
-18826.6
23698.9
-19446.1
25144
-20135.2
26636.1
-20829.3
28187
-21715.1
29781.6
-22352.5
-24079.4
-6052.68
4093.21
-6334.74
3978.61
-6617.74
3967.98
-6906.09
4031.23
-7201.08
4116.8
-7503.2
4219.21
-7812.67
4329.75
-8129.79
4447.93
-8454.88
4572.33
-8788.41
4702.9
-9130.97
4838.36
-9483.08
4975.53
-9845.01
5108.09
-10216.4
5225.19
-10595.7
5310.77
-10979.7
5344.44
-11363.3
5306.09
-11739.9
5185.55
-12103.5
4994.93
-12450.7
4774.71
-12783.1
4581.84
-13105.7
4460.51
-13423.7
4417.18
-13739.6
4423.13
-14052.9
4440.55
-14362.3
4446.51
-14667.7
4438.3
-14970.5
4423.33
-15272.7
4406.74
-15575.7
4385.03
-15879
4346.76
-16180.3
4275.86
-16475.8
4154.36
-16760.4
3963.58
-17028.3
3685.28
-17272.9
3303.49
-17487.1
2806.8
-17663.1
2190.36
-17792.1
1457.5
-17864.8
621.255
-17872.3
-294.239
-17808.4
-1255.2
-17668.9
-2235.3
-17454.7
-3183.47
-17171.9
-4051.41
-16831.4
-4802.17
-16447
-5415.79
-16032.4
-5896.52
-15598.2
-6271.95
-15149.4
-6584.01
-14685.4
-6873.31
-14202.8
-7164.39
-13698.6
-7462.56
-13171.2
-7762.76
-12620.6
-8057.63
-12047.4
-8340.35
-11453.3
-8606.35
-10839.8
-8853.62
-10208.5
-9081.57
-9560.93
-9290.93
-8898.3
-9483.09
-8221.69
-9659.49
-7531.96
-9821.43
-6829.94
-9969.86
-6116.38
-10105.5
-5392.01
-10229.4
-4657.43
-10342.7
-3913.08
-10447.4
-3159.04
-10545.6
-2395.09
-10639.7
-1620.58
-10732.9
-834.191
-10829.9
-33.3994
-10947.3
785.285
-11138.1
1623.02
-11425.8
2480.52
-11767.7
3358.74
-12136.4
4258.52
-12517.1
5180.67
-12904.8
6125.98
-13299.2
7095.17
-13701.2
8088.89
-14112
9107.7
-14533.1
10152.1
-14965.4
11222.5
-15410
12319.5
-15867.7
13443.4
-16339.1
14595
-16825.4
15775
-17327.5
16984.5
-17847.6
18224.8
-18387.2
19497.6
-18951.7
20804.9
-19541.8
22149.3
-20170.9
23533.5
-20830.3
24961.8
-21563.4
26436.4
-22303.9
27968.7
-23247.4
29544.2
-23928
-25774.4
-6020.26
4375.22
-6301.4
4259.74
-6583.04
4249.62
-6870.29
4318.48
-7164.08
4410.59
-7464.9
4520.03
-7772.81
4637.66
-8088.05
4763.17
-8410.89
4895.17
-8741.78
5033.8
-9081.34
5177.92
-9430.21
5324.39
-9788.82
5466.7
-10157.1
5593.46
-10533.8
5687.54
-10916.3
5726.92
-11299.7
5689.49
-11677.6
5563.4
-12043.3
5360.68
-12392.9
5124.32
-12726.9
4915.81
-13049.6
4783.23
-13366.2
4733.74
-13679.3
4736.27
-13989
4750.22
-14294.3
4751.84
-14595.6
4739.59
-14894.7
4722.44
-15193.9
4705.93
-15494.4
4685.59
-15795.8
4648.14
-16095.7
4575.8
-16390.6
4449.25
-16676
4248.94
-16946.7
3955.99
-17197
3553.75
-17420
3029.79
-17607.3
2377.69
-17748.9
1599.07
-17833.6
705.989
-17851.1
-276.714
-17794.6
-1311.7
-17659.4
-2370.55
-17445.7
-3397.08
-17160.4
-4336.8
-16815
-5147.58
-16424.7
-5806.01
-16005.1
-6316.17
-15567.7
-6709.31
-15118
-7033.77
-14654.7
-7336.54
-14173.7
-7645.38
-13671.2
-7965.08
-13145.4
-8288.61
-12596
-8607
-12024
-8912.29
-11431.1
-9199.33
-10818.7
-9465.95
-10188.7
-9711.58
-9542.57
-9937.1
-8881.51
-10144.2
-8206.6
-10334.4
-7518.71
-10509.3
-6818.62
-10669.9
-6107.09
-10817.1
-5384.83
-10951.6
-4652.45
-11075.1
-3910.36
-11189.5
-3158.6
-11297.3
-2396.86
-11401.4
-1624.41
-11505.3
-839.858
-11614.5
-40.5698
-11746.6
777.209
-11955.9
1614.35
-12263
2470.99
-12624.4
3347.77
-13013.2
4245.47
-13414.8
5164.89
-13824.2
6106.77
-14241.1
7071.81
-14666.2
8060.61
-15100.8
9073.7
-15546.2
10111.6
-16003.3
11174.6
-16473
12263.3
-16956.3
13378.1
-17454
14519.7
-17967
15688.9
-18496.7
16886.7
-19045.4
18114.6
-19615.1
19374.1
-20211.2
20667.3
-20835
21996.7
-21500.3
23365.3
-22198.9
24776.8
-22975
26234.1
-23761.2
27747.9
-24761.2
29304.7
-25484.7
-27450.3
-5988.25
4662.45
-6266.03
4537.53
-6546.65
4530.24
-6832.74
4604.57
-7125.28
4703.14
-7424.77
4819.52
-7731.12
4944.02
-8044.45
5076.5
-8364.99
5215.71
-8693.16
5361.98
-9029.59
5514.36
-9375.01
5669.81
-9730.03
5821.73
-10094.9
5958.28
-10468.7
6061.42
-10849.4
6107.55
-11232.4
6072.49
-11611.4
5942.44
-11979.5
5728.81
-12331.8
5476.56
-12667.5
5251.52
-12990.3
5106.03
-13305.1
5048.59
-13615.1
5046.28
-13920.8
5055.91
-14221.9
5052.89
-14519
5036.73
-14814.4
5017.84
-15110.5
5002.02
-15408.5
4983.61
-15707.9
4947.57
-16006.7
4874.53
-16301.6
4744.22
-16589.2
4536.5
-16865.1
4231.92
-17124.2
3812.84
-17359.4
3264.98
-17561.1
2579.41
-17717.3
1755.25
-17814.9
803.589
-17842.2
-249.4
-17792
-1361.9
-17659.2
-2503.32
-17444
-3612.35
-17153.3
-4627.48
-16800.1
-5500.73
-16401.5
-6204.68
-15974.5
-6743.1
-15532.4
-7151.39
-15080.9
-7485.31
-14618.1
-7799.36
-14138.5
-8124.94
-13637.6
-8465.98
-13113.3
-8812.94
-12565.2
-9155.05
-11994.5
-9483.04
-11402.6
-9791.16
-10791.5
-10077.1
-10162.7
-10340.4
-9517.86
-10581.9
-8858.26
-10803.8
-8184.95
-11007.7
-7498.78
-11195.5
-6800.54
-11368.2
-6090.97
-11526.6
-5370.82
-11671.8
-4640.72
-11805.2
-3901.03
-11929.2
-3151.77
-12046.6
-2392.53
-12160.7
-1622.48
-12275.4
-840.177
-12396.8
-42.8824
-12543.9
773.397
-12772.2
1609.33
-13098.9
2464.51
-13479.5
3339.29
-13887.9
4234.37
-14309.8
5150.52
-14740.4
6088.47
-15179
7048.86
-15626.6
8032.26
-16084.2
9039.17
-16553.1
10070
-17034.1
11125.3
-17528.3
12205.3
-18036.4
13310.7
-18559.3
14442.1
-19098.4
15600.2
-19654.9
16786.3
-20231.5
18001.6
-20830.4
19247.7
-21457.4
20526.9
-22114.1
21841.4
-22814.8
23194.3
-23551.8
24589.2
-24369.9
26029.3
-25201.3
27524.8
-26256.7
29063.1
-27023.1
-29106.7
-5954.5
4944.45
-6229.14
4812.17
-6508.66
4809.76
-6793.6
4889.51
-7084.9
4994.43
-7383.03
5117.65
-7687.82
5248.81
-7999.25
5387.93
-8317.47
5533.93
-8642.87
5687.38
-8976.08
5847.56
-9317.88
6011.61
-9669.07
6172.92
-10030.1
6319.35
-10400.8
6432.05
-10779.2
6485.98
-11161.6
6454.86
-11541.7
6322.61
-11912.4
6099.46
-12267.5
5831.7
-12605.2
5589.18
-12928.1
5428.9
-13241
5361.5
-13547.5
5352.86
-13849
5357.39
-14145.7
5349.53
-14438.6
5329.69
-14730.3
5309.52
-15023.2
5294.91
-15318.6
5279.02
-15616.1
5245.1
-15914.1
5172.54
-16210.3
5040.42
-16502.1
4828.29
-16786.2
4515.97
-17057.4
4084.1
-17308
3515.51
-17526.3
2797.71
-17698
1927.01
-17808.2
913.826
-17844.3
-213.351
-17798.7
-1407.48
-17666.3
-2635.7
-17447
-3831.68
-17148.4
-4926.05
-16784.9
-5864.22
-16375.5
-6614.17
-15939.4
-7179.17
-15491.4
-7599.34
-15037.6
-7939.11
-14575.2
-8261.75
-14097.3
-8602.89
-13598.2
-8965.05
-13075.5
-9335.62
-12528.9
-9701.68
-11959.4
-10052.6
-11368.7
-10381.8
-10758.7
-10687.2
-10131.1
-10968
-9487.49
-11225.5
-8829.22
-11462
-8157.37
-11679.6
-7472.79
-11880.1
-6776.28
-12064.7
-6068.6
-12234.3
-5350.54
-12389.9
-4622.74
-12533
-3885.59
-12666.3
-3139.03
-12793.2
-2382.57
-12917.1
-1615.26
-13042.7
-835.582
-13176.5
-40.7225
-13338.8
773.505
-13586.4
1607.63
-13933
2460.78
-14332.7
3333
-14760.2
4224.93
-15201.8
5137.3
-15652.8
6070.81
-16112.5
7026.08
-16581.8
8003.64
-17061.8
9003.95
-17553.4
10027.4
-18057.6
11074.5
-18575.4
12145.6
-19107.5
13241.3
-19655
14362.2
-20219.3
15509.2
-20801.9
16683.3
-21405.6
17886
-22033
19118.8
-22690.2
20383.9
-23379.2
21683.5
-24114.5
23020.9
-24889.2
24399.3
-25748.3
25822.4
-26624.3
27299.4
-27733.7
28819.5
-28543.1
-30743.3
-5919.18
5221.7
-6191.17
5084.16
-6469.12
5087.71
-6753.01
5173.39
-7043.09
5284.52
-7339.85
5414.42
-7643.1
5552.07
-7952.66
5697.49
-8268.57
5849.85
-8591.18
6009.99
-8921.09
6177.47
-9259.15
6349.67
-9606.3
6520.08
-9963.33
6676.38
-10330.4
6799.09
-10706.2
6861.84
-11087.6