/*--------------------------------*- C++ -*----------------------------------*\
| =========                 |                                                 |
| \\      /  F ield         | OpenFOAM: The Open Source CFD Toolbox           |
|  \\    /   O peration     | Version:  4.1                                   |
|   \\  /    A nd           | Web:      www.OpenFOAM.org                      |
|    \\/     M anipulation  |                                                 |
\*---------------------------------------------------------------------------*/
FoamFile
{
    version     2.0;
    format      ascii;
    class       volVectorField;
    location    "1700";
    object      U;
}
// * * * * * * * * * * * * * * * * * * * * * * * * * * * * * * * * * * * * * //

dimensions      [0 1 -1 0 0 0 0];

internalField   nonuniform List<vector> 
26785
(
(-1.82246e-13 0.0159019 -50.213)
(-1.806e-13 0.0130892 -50.5092)
(-1.80945e-13 0.0110725 -50.7713)
(-1.76814e-13 0.0113969 -51.005)
(-1.72904e-13 0.0121898 -51.2494)
(-1.68111e-13 0.0134292 -51.5067)
(-1.58755e-13 0.0147872 -51.7838)
(-1.60915e-13 0.0162512 -52.0805)
(-1.63955e-13 0.0177603 -52.3979)
(-1.65193e-13 0.0193094 -52.7357)
(-1.52699e-13 0.0208754 -53.0941)
(-1.51861e-13 0.0224186 -53.4723)
(-1.4845e-13 0.0238578 -53.8689)
(-1.4547e-13 0.0250505 -54.2808)
(-1.42266e-13 0.0257822 -54.7021)
(-1.38862e-13 0.0257781 -55.1231)
(-1.35075e-13 0.0247614 -55.5301)
(-1.30862e-13 0.0225721 -55.9061)
(-1.25701e-13 0.0193207 -56.2341)
(-1.17737e-13 0.0154836 -56.5021)
(-1.08842e-13 0.011809 -56.7085)
(-1.06281e-13 0.00900384 -56.8631)
(-1.01168e-13 0.00739217 -56.9835)
(-9.24841e-14 0.00682058 -57.0878)
(-9.03472e-14 0.00686416 -57.1884)
(-8.35952e-14 0.00711874 -57.2909)
(-8.03219e-14 0.00735164 -57.3966)
(-7.58272e-14 0.00746681 -57.5042)
(-7.11368e-14 0.00738665 -57.6119)
(-6.31596e-14 0.00696326 -57.7164)
(-6.06309e-14 0.00595604 -57.8123)
(-5.76612e-14 0.00404817 -57.8915)
(-5.69679e-14 0.000866224 -57.9422)
(-5.53072e-14 -0.00400562 -57.9494)
(-5.43173e-14 -0.0110042 -57.8947)
(-4.88365e-14 -0.0205439 -57.7562)
(-4.79091e-14 -0.032945 -57.5101)
(-4.63991e-14 -0.0483451 -57.1314)
(-4.59491e-14 -0.0666277 -56.5966)
(-4.6672e-14 -0.0873312 -55.8861)
(-5.12624e-14 -0.109469 -54.99)
(-5.9656e-14 -0.131825 -53.9082)
(-6.41924e-14 -0.153601 -52.6477)
(-6.8205e-14 -0.173928 -51.2224)
(-6.5968e-14 -0.191969 -49.6528)
(-7.03852e-14 -0.207175 -47.965)
(-6.78846e-14 -0.219376 -46.187)
(-7.74595e-14 -0.228797 -44.3452)
(-8.563e-14 -0.235976 -42.462)
(-9.67908e-14 -0.241595 -40.5533)
(-1.11676e-13 -0.24628 -38.6295)
(-1.37301e-13 -0.250456 -36.6961)
(-1.45731e-13 -0.254325 -34.7562)
(-1.61045e-13 -0.257929 -32.8123)
(-1.80117e-13 -0.261229 -30.8665)
(-1.96988e-13 -0.264162 -28.9216)
(-1.9711e-13 -0.266672 -26.9806)
(-1.81136e-13 -0.268725 -25.0467)
(-1.9283e-13 -0.270309 -23.1231)
(-2.02954e-13 -0.271432 -21.2128)
(-2.01669e-13 -0.272133 -19.3185)
(-2.12718e-13 -0.272481 -17.443)
(-2.18194e-13 -0.272577 -15.5884)
(-2.12744e-13 -0.272536 -13.757)
(-2.16891e-13 -0.272452 -11.9505)
(-2.57114e-13 -0.272324 -10.1702)
(-2.84098e-13 -0.272043 -8.41738)
(-3.11646e-13 -0.271512 -6.69426)
(-3.47259e-13 -0.270898 -5.00372)
(-3.67009e-13 -0.271591 -3.34562)
(-2.95501e-13 -0.281326 -1.73127)
(-1.83629e-13 -0.292624 -0.19932)
(5.25824e-14 -0.262091 1.32431)
(1.02807e-13 -0.247001 2.84162)
(1.01621e-13 -0.257351 4.40251)
(5.46124e-14 -0.271424 5.99831)
(-4.53417e-14 -0.2828 7.62601)
(-1.48323e-13 -0.29305 9.2905)
(-2.13477e-13 -0.302905 10.9909)
(-2.561e-13 -0.312378 12.7255)
(-2.5868e-13 -0.321553 14.4936)
(-2.69596e-13 -0.330712 16.2949)
(-2.28379e-13 -0.340136 18.1296)
(-1.72169e-13 -0.349991 19.9986)
(-1.27997e-13 -0.360343 21.9032)
(-4.84389e-14 -0.371206 23.8449)
(1.59451e-14 -0.382578 25.8256)
(7.34811e-14 -0.394467 27.8475)
(1.07474e-13 -0.406881 29.9127)
(1.43132e-13 -0.419881 32.0237)
(1.57e-13 -0.433464 34.1822)
(1.60836e-13 -0.447812 36.3925)
(1.54368e-13 -0.462761 38.6525)
(1.39921e-13 -0.47896 40.9771)
(1.22947e-13 -0.495421 43.3396)
(9.46243e-14 -0.514793 45.8214)
(7.4142e-14 -0.532297 48.2286)
(5.54379e-14 -0.559248 51.0844)
(3.93261e-14 -0.573591 53.0358)
(1.2883e-14 -0.6296 57.4458)
(-1.57978e-13 0.0528755 -50.1424)
(-1.55917e-13 0.0393895 -50.4489)
(-1.53029e-13 0.0345216 -50.723)
(-1.51266e-13 0.0356003 -50.9718)
(-1.47591e-13 0.0383592 -51.2349)
(-1.46137e-13 0.0424659 -51.5145)
(-1.37215e-13 0.0470094 -51.8181)
(-1.42568e-13 0.0519465 -52.1458)
(-1.36685e-13 0.0571117 -52.4992)
(-1.27693e-13 0.0624971 -52.8785)
(-1.23415e-13 0.0680356 -53.2841)
(-1.16739e-13 0.0735981 -53.7156)
(-1.09096e-13 0.0789112 -54.1717)
(-1.00717e-13 0.0834884 -54.6489)
(-9.0895e-14 0.0865901 -55.1404)
(-7.56138e-14 0.0872552 -55.635)
(-6.85031e-14 0.0844938 -56.1164)
(-6.25725e-14 0.0776838 -56.5644)
(-5.13048e-14 0.0671029 -56.9584)
(-4.45144e-14 0.0542822 -57.2834)
(-3.74976e-14 0.041739 -57.5362)
(-2.58689e-14 0.0319571 -57.7275)
(-2.19248e-14 0.0262129 -57.878)
(-1.26448e-14 0.0241655 -58.0091)
(-9.59036e-15 0.0244599 -58.1365)
(-5.4575e-15 0.0256891 -58.2678)
(-1.26254e-15 0.0269536 -58.4043)
(-5.98101e-16 0.027813 -58.5446)
(4.1706e-17 0.0279284 -58.6861)
(7.28785e-17 0.0267704 -58.8246)
(1.16517e-15 0.0235372 -58.9538)
(-5.33401e-15 0.0172101 -59.0644)
(-8.24542e-15 0.00662742 -59.1439)
(-1.34338e-14 -0.00946085 -59.1766)
(-1.94361e-14 -0.0323227 -59.1435)
(-2.38078e-14 -0.0631123 -59.0225)
(-3.15676e-14 -0.102654 -58.7897)
(-3.97367e-14 -0.151178 -58.4204)
(-4.86533e-14 -0.208101 -57.8913)
(-5.7968e-14 -0.271758 -57.1833)
(-6.67738e-14 -0.338991 -56.2868)
(-7.86701e-14 -0.406435 -55.2037)
(-9.58994e-14 -0.472231 -53.9413)
(-1.05085e-13 -0.533867 -52.5125)
(-1.20833e-13 -0.588732 -50.9374)
(-1.25644e-13 -0.635181 -49.2416)
(-1.30419e-13 -0.67265 -47.4531)
(-1.21733e-13 -0.701768 -45.5984)
(-1.26183e-13 -0.724117 -43.6997)
(-1.2246e-13 -0.741724 -41.7736)
(-1.37218e-13 -0.756457 -39.8301)
(-1.12876e-13 -0.76959 -37.8751)
(-1.1468e-13 -0.781719 -35.9116)
(-1.08463e-13 -0.792954 -33.9421)
(-9.59893e-14 -0.803169 -31.9689)
(-1.18502e-13 -0.812174 -29.9951)
(-1.13913e-13 -0.819824 -28.0239)
(-1.09327e-13 -0.826057 -26.0591)
(-1.16438e-13 -0.830875 -24.104)
(-1.48323e-13 -0.834321 -22.1619)
(-1.47176e-13 -0.836448 -20.2359)
(-1.23781e-13 -0.837294 -18.3285)
(-6.93627e-14 -0.836884 -16.442)
(-9.93232e-14 -0.835277 -14.5789)
(-1.30798e-13 -0.832613 -12.7412)
(-1.22788e-13 -0.82911 -10.931)
(-1.44352e-13 -0.824952 -9.14937)
(-1.66261e-13 -0.819958 -7.39743)
(-1.56434e-13 -0.812865 -5.67527)
(-3.85333e-14 -0.802647 -3.98097)
(-1.25086e-13 -0.798179 -2.31666)
(-2.70732e-13 -0.799838 -0.707315)
(1.66662e-13 -0.768005 0.849689)
(4.26751e-14 -0.762718 2.42123)
(-2.81702e-14 -0.795815 4.01202)
(-3.61763e-13 -0.829714 5.62416)
(-4.94766e-13 -0.85879 7.26529)
(-5.18945e-13 -0.886754 8.94134)
(-5.45258e-13 -0.914532 10.6515)
(-4.53718e-13 -0.942058 12.3943)
(-3.1427e-13 -0.969473 14.1692)
(-2.06922e-13 -0.997107 15.9764)
(-7.30697e-14 -1.02527 17.8157)
(7.79781e-14 -1.05424 19.6879)
(1.97771e-13 -1.08425 21.5937)
(2.31368e-13 -1.11558 23.5349)
(2.35704e-13 -1.14841 25.5133)
(2.18473e-13 -1.18295 27.5311)
(2.24289e-13 -1.21925 29.5905)
(2.06691e-13 -1.25748 31.694)
(1.63282e-13 -1.29754 33.8431)
(1.19251e-13 -1.33985 36.0419)
(7.95735e-14 -1.3839 38.2879)
(2.41903e-14 -1.43139 40.5959)
(-1.7151e-14 -1.47976 42.938)
(-5.34216e-14 -1.536 45.3974)
(-8.69783e-14 -1.58785 47.7764)
(-1.11196e-13 -1.66498 50.6028)
(-1.29036e-13 -1.70871 52.5239)
(-1.39961e-13 -1.86769 56.8664)
(-1.29745e-13 0.0889603 -50.0589)
(-1.25326e-13 0.0677016 -50.3839)
(-1.24362e-13 0.0596808 -50.675)
(-1.19573e-13 0.0619094 -50.9454)
(-1.23138e-13 0.0669543 -51.2336)
(-1.19975e-13 0.074313 -51.5426)
(-1.10302e-13 0.0824756 -51.8798)
(-1.15226e-13 0.0913692 -52.2457)
(-1.07556e-13 0.100723 -52.642)
(-1.01035e-13 0.110519 -53.0691)
(-9.27749e-14 0.120631 -53.5273)
(-8.25986e-14 0.130817 -54.0158)
(-7.15835e-14 0.14057 -54.5326)
(-6.0752e-14 0.148998 -55.0729)
(-5.03945e-14 0.154749 -55.6281)
(-3.88884e-14 0.156069 -56.1844)
(-2.69012e-14 0.151145 -56.7221)
(-1.93839e-14 0.138832 -57.2174)
(-5.59137e-15 0.119618 -57.6468)
(-1.00236e-15 0.0962873 -57.9941)
(8.98173e-15 0.0734433 -58.2573)
(8.22389e-15 0.0556593 -58.451)
(3.5395e-15 0.0453188 -58.6004)
(5.44414e-15 0.0418296 -58.7309)
(6.26266e-15 0.042696 -58.8597)
(2.91128e-15 0.0452841 -58.9942)
(1.02313e-15 0.0478786 -59.1348)
(-4.73446e-15 0.0496347 -59.2786)
(-1.41472e-14 0.0499527 -59.4217)
(-2.39176e-14 0.0479517 -59.5591)
(-3.43696e-14 0.0423159 -59.6838)
(-4.61078e-14 0.0313844 -59.7866)
(-5.94142e-14 0.0132768 -59.8552)
(-7.07553e-14 -0.0140203 -59.8747)
(-8.28238e-14 -0.0525483 -59.8272)
(-9.53917e-14 -0.10417 -59.6921)
(-1.0692e-13 -0.170223 -59.447)
(-1.17393e-13 -0.251091 -59.069)
(-1.26205e-13 -0.345832 -58.5363)
(-1.33163e-13 -0.451735 -57.8307)
(-1.38151e-13 -0.563663 -56.9426)
(-1.41455e-13 -0.676128 -55.8704)
(-1.4342e-13 -0.786066 -54.6185)
(-1.44373e-13 -0.889266 -53.1995)
(-1.45017e-13 -0.981334 -51.6329)
(-1.45918e-13 -1.05947 -49.944)
(-1.46555e-13 -1.12266 -48.1607)
(-1.47012e-13 -1.17193 -46.3096)
(-1.46575e-13 -1.2099 -44.4133)
(-1.46079e-13 -1.23996 -42.4883)
(-1.46871e-13 -1.26527 -40.5448)
(-1.4953e-13 -1.28798 -38.5883)
(-1.50936e-13 -1.30905 -36.6219)
(-1.52055e-13 -1.32865 -34.6478)
(-1.47454e-13 -1.34652 -32.6683)
(-1.37108e-13 -1.36229 -30.6865)
(-1.12679e-13 -1.37566 -28.7059)
(-1.21398e-13 -1.38649 -26.7301)
(-1.52101e-13 -1.3948 -24.763)
(-1.52146e-13 -1.40067 -22.808)
(-1.91972e-13 -1.40429 -20.8683)
(-1.75045e-13 -1.40579 -18.9467)
(-1.64509e-13 -1.40533 -17.0454)
(-1.37487e-13 -1.403 -15.1664)
(-1.16254e-13 -1.39894 -13.3115)
(-2.63444e-14 -1.39334 -11.4822)
(2.95356e-15 -1.38644 -9.67993)
(-3.08288e-14 -1.37836 -7.90597)
(1.82572e-15 -1.36814 -6.16063)
(1.6591e-14 -1.35407 -4.44205)
(2.7273e-14 -1.33933 -2.75087)
(-5.03047e-14 -1.32739 -1.09915)
(2.286e-13 -1.30459 0.507096)
(-1.12696e-13 -1.30625 2.10443)
(-4.03691e-13 -1.34634 3.71829)
(-4.55593e-13 -1.39267 5.35127)
(-4.71931e-13 -1.43841 7.01018)
(-4.15922e-13 -1.48411 8.70105)
(-2.89582e-13 -1.52951 10.4239)
(-1.26724e-13 -1.57443 12.1774)
(3.18995e-14 -1.61916 13.961)
(1.61305e-13 -1.66424 15.7747)
(1.91787e-13 -1.71023 17.6186)
(2.13698e-13 -1.75765 19.4936)
(2.14215e-13 -1.80694 21.4008)
(1.93312e-13 -1.85851 23.342)
(1.67323e-13 -1.91265 25.3191)
(1.35734e-13 -1.96957 27.3342)
(1.01034e-13 -2.02932 29.3889)
(4.20363e-14 -2.09207 31.4856)
(5.97549e-16 -2.15769 33.625)
(-3.19258e-14 -2.22679 35.8114)
(-7.18738e-14 -2.29869 38.0413)
(-1.00291e-13 -2.37594 40.3304)
(-1.24529e-13 -2.45504 42.649)
(-1.39928e-13 -2.54609 45.0835)
(-1.51963e-13 -2.63207 47.431)
(-1.51357e-13 -2.75517 50.2265)
(-1.46924e-13 -2.83017 52.1145)
(-1.24831e-13 -3.08192 56.3926)
(-1.02976e-13 0.125984 -49.9724)
(-1.01247e-13 0.0980155 -50.3169)
(-1.01001e-13 0.087045 -50.6259)
(-1.01165e-13 0.0907964 -50.9181)
(-1.02084e-13 0.0985342 -51.2311)
(-1.01836e-13 0.109584 -51.5678)
(-1.03575e-13 0.121853 -51.9358)
(-9.48965e-14 0.135228 -52.3354)
(-7.96387e-14 0.149327 -52.7683)
(-7.24703e-14 0.164099 -53.2346)
(-6.18845e-14 0.179331 -53.7341)
(-5.05858e-14 0.194614 -54.2655)
(-3.76439e-14 0.209138 -54.8256)
(-2.61836e-14 0.221514 -55.4082)
(-2.10154e-14 0.229671 -56.0025)
(-9.81339e-15 0.230957 -56.5923)
(-9.81051e-17 0.222686 -57.1553)
(7.24199e-15 0.20324 -57.6656)
(1.20237e-14 0.17354 -58.0984)
(1.8308e-14 0.137991 -58.4388)
(1.67941e-14 0.10368 -58.6885)
(1.06022e-14 0.0774809 -58.8672)
(-3.36627e-16 0.062782 -59.0045)
(-7.51886e-15 0.0583961 -59.1282)
(-1.72721e-14 0.0603214 -59.2552)
(-2.82433e-14 0.0644795 -59.3908)
(-4.02366e-14 0.0682903 -59.5333)
(-5.29982e-14 0.0705527 -59.6784)
(-6.58089e-14 0.0704843 -59.8211)
(-7.88787e-14 0.0669362 -59.9562)
(-9.28336e-14 0.0581657 -60.0769)
(-1.06079e-13 0.0419619 -60.1745)
(-1.19459e-13 0.0158153 -60.2376)
(-1.27554e-13 -0.0229746 -60.2522)
(-1.32865e-13 -0.0771654 -60.2013)
(-1.38672e-13 -0.149294 -60.0651)
(-1.46492e-13 -0.241203 -59.8214)
(-1.44712e-13 -0.353448 -59.4476)
(-1.50678e-13 -0.484812 -58.9217)
(-1.56049e-13 -0.631745 -58.2251)
(-1.53495e-13 -0.787555 -57.3477)
(-1.55557e-13 -0.944854 -56.2872)
(-1.59162e-13 -1.09907 -55.0461)
(-1.55581e-13 -1.24408 -53.6367)
(-1.50387e-13 -1.37371 -52.0779)
(-1.52281e-13 -1.48392 -50.395)
(-1.5441e-13 -1.5732 -48.6159)
(-1.63079e-13 -1.64291 -46.7679)
(-1.71739e-13 -1.69671 -44.8741)
(-1.66711e-13 -1.73941 -42.9513)
(-1.55338e-13 -1.77549 -41.0098)
(-1.55918e-13 -1.80797 -39.0552)
(-1.42104e-13 -1.83823 -37.0902)
(-1.69836e-13 -1.86646 -35.1169)
(-1.86152e-13 -1.89227 -33.1379)
(-1.82338e-13 -1.91511 -31.1559)
(-1.71939e-13 -1.93456 -29.1745)
(-1.47191e-13 -1.95039 -27.1973)
(-1.63464e-13 -1.96261 -25.2279)
(-1.57952e-13 -1.97134 -23.2699)
(-1.90442e-13 -1.97683 -21.3263)
(-1.77093e-13 -1.97931 -19.3998)
(-2.22022e-13 -1.979 -17.4926)
(-1.95498e-13 -1.97606 -15.6066)
(-1.66045e-13 -1.9707 -13.7433)
(-1.09009e-13 -1.96312 -11.9041)
(-1.03255e-13 -1.95362 -10.0902)
(-4.89196e-14 -1.94232 -8.30283)
(1.29531e-14 -1.92859 -6.5423)
(2.90976e-14 -1.91149 -4.80719)
(9.9088e-14 -1.8927 -3.09752)
(-9.38514e-14 -1.87309 -1.41941)
(1.45978e-13 -1.84922 0.224285)
(-3.71053e-13 -1.85438 1.84758)
(-3.6498e-13 -1.90272 3.48253)
(-3.38394e-13 -1.96317 5.13493)
(-4.1415e-13 -2.0254 6.81039)
(-2.57813e-13 -2.08769 8.51486)
(-1.09574e-13 -2.14962 10.2488)
(4.15631e-14 -2.21112 12.0113)
(1.36732e-13 -2.27256 13.8019)
(1.47664e-13 -2.33458 15.6206)
(1.4175e-13 -2.39789 17.4679)
(1.00966e-13 -2.46322 19.3448)
(9.67064e-14 -2.53117 21.2525)
(8.0333e-14 -2.60229 23.1926)
(8.034e-14 -2.67691 25.1669)
(5.42945e-14 -2.75527 27.177)
(2.36784e-14 -2.83742 29.2245)
(-2.85637e-14 -2.92355 31.3113)
(-5.04636e-14 -3.01349 33.438)
(-7.52858e-14 -3.10809 35.6087)
(-1.0218e-13 -3.20654 37.8196)
(-1.16744e-13 -3.31218 40.0873)
(-1.22825e-13 -3.42083 42.3805)
(-1.17808e-13 -3.54511 44.7889)
(-1.15701e-13 -3.66455 47.1037)
(-9.8749e-14 -3.83095 49.8691)
(-8.74886e-14 -3.93767 51.7236)
(-6.61799e-14 -4.27628 55.9423)
(-9.15763e-14 0.166048 -49.8767)
(-9.09039e-14 0.130123 -50.2414)
(-9.38947e-14 0.116515 -50.5659)
(-9.04318e-14 0.12209 -50.8776)
(-8.67494e-14 0.132772 -51.2116)
(-7.69393e-14 0.147788 -51.571)
(-6.47929e-14 0.164441 -51.9631)
(-6.55945e-14 0.18258 -52.3881)
(-5.43507e-14 0.201701 -52.8475)
(-4.52043e-14 0.221705 -53.3408)
(-3.4453e-14 0.242261 -53.8676)
(-2.47321e-14 0.262758 -54.4258)
(-1.97491e-14 0.282035 -55.0114)
(-1.19016e-14 0.298147 -55.6169)
(-8.38085e-15 0.308247 -56.2303)
(2.08099e-15 0.308755 -56.8334)
(9.76462e-15 0.296129 -57.4028)
(1.05443e-14 0.268403 -57.9113)
(7.69015e-15 0.227171 -58.3349)
(3.35951e-16 0.178773 -58.6607)
(-1.148e-14 0.133015 -58.8946)
(-2.65454e-14 0.0990738 -59.0606)
(-4.45576e-14 0.0810669 -59.1916)
(-5.87823e-14 0.0768198 -59.3154)
(-7.37927e-14 0.0805358 -59.4472)
(-8.816e-14 0.0866086 -59.5896)
(-1.00302e-13 0.0916704 -59.7384)
(-1.10207e-13 0.0943009 -59.8878)
(-1.25771e-13 0.0936634 -60.0323)
(-1.34847e-13 0.0884385 -60.1669)
(-1.4322e-13 0.0765189 -60.2856)
(-1.49285e-13 0.0551718 -60.3804)
(-1.53001e-13 0.0212514 -60.4409)
(-1.56522e-13 -0.0286693 -60.4538)
(-1.57083e-13 -0.0981271 -60.4028)
(-1.54176e-13 -0.190401 -60.2683)
(-1.53687e-13 -0.307889 -60.0284)
(-1.52114e-13 -0.45134 -59.6604)
(-1.5126e-13 -0.619223 -59.1423)
(-1.50491e-13 -0.807087 -58.4552)
(-1.49696e-13 -1.00671 -57.5882)
(-1.50088e-13 -1.20893 -56.5383)
(-1.50259e-13 -1.40775 -55.3064)
(-1.46414e-13 -1.59501 -53.9043)
(-1.51731e-13 -1.76267 -52.3505)
(-1.56141e-13 -1.90536 -50.6706)
(-1.6105e-13 -2.021 -48.8934)
(-1.66105e-13 -2.11127 -47.0469)
(-1.7105e-13 -2.18092 -45.1549)
(-1.73593e-13 -2.23621 -43.2348)
(-1.63071e-13 -2.28301 -41.297)
(-1.62594e-13 -2.32529 -39.3469)
(-1.49395e-13 -2.3648 -37.387)
(-1.56771e-13 -2.40176 -35.4194)
(-1.61685e-13 -2.43564 -33.4461)
(-1.69503e-13 -2.46571 -31.47)
(-1.88546e-13 -2.49139 -29.4943)
(-1.86218e-13 -2.51241 -27.5225)
(-1.8501e-13 -2.52876 -25.558)
(-1.77191e-13 -2.54064 -23.6041)
(-1.89579e-13 -2.54835 -21.6636)
(-1.85031e-13 -2.55225 -19.739)
(-2.44239e-13 -2.55264 -17.8323)
(-2.56907e-13 -2.54977 -15.9452)
(-2.62569e-13 -2.5439 -14.0792)
(-2.20538e-13 -2.53526 -12.2356)
(-4.16117e-14 -2.52417 -10.4154)
(9.87569e-15 -2.51084 -8.61971)
(5.00364e-14 -2.49477 -6.84889)
(3.83166e-15 -2.47518 -5.10196)
(9.18564e-14 -2.45296 -3.37877)
(-8.10761e-14 -2.42844 -1.68215)
(4.59045e-14 -2.40399 -0.0113319)
(-2.07135e-13 -2.41263 1.63511)
(-2.50218e-13 -2.46863 3.28887)
(-3.29679e-13 -2.54104 4.95884)
(-3.61919e-13 -2.61777 6.64916)
(-1.52028e-13 -2.69541 8.36557)
(-7.50798e-16 -2.77296 10.1089)
(1.0253e-13 -2.8502 11.8785)
(1.05248e-13 -2.92753 13.6742)
(4.20567e-14 -3.00575 15.4963)
(4.33043e-14 -3.08578 17.3455)
(6.23658e-14 -3.16847 19.2227)
(7.08867e-14 -3.25457 21.1294)
(6.50274e-14 -3.34466 23.0668)
(3.38134e-14 -3.4391 25.0365)
(-1.8837e-15 -3.53812 27.04)
(-3.83119e-14 -3.64176 29.0784)
(-5.29067e-14 -3.75027 31.1536)
(-7.38534e-14 -3.86347 33.2659)
(-8.81448e-14 -3.98244 35.4196)
(-1.06448e-13 -4.10636 37.6105)
(-1.12377e-13 -4.23926 39.8563)
(-1.10298e-13 -4.37654 42.1236)
(-9.82575e-14 -4.53284 44.5064)
(-8.94987e-14 -4.68513 46.7889)
(-7.58565e-14 -4.89298 49.5255)
(-6.56086e-14 -5.03141 51.3472)
(-4.41317e-14 -5.45272 55.5109)
(-7.51968e-14 0.204518 -49.7886)
(-7.01582e-14 0.164446 -50.146)
(-6.54004e-14 0.148029 -50.4888)
(-5.8003e-14 0.155686 -50.8148)
(-5.29357e-14 0.169504 -51.1655)
(-4.43316e-14 0.188672 -51.5418)
(-4.19579e-14 0.209888 -51.9512)
(-4.48929e-14 0.232963 -52.3934)
(-4.19231e-14 0.257265 -52.8696)
(-3.2403e-14 0.282636 -53.3793)
(-1.65525e-14 0.308611 -53.9216)
(-1.19998e-14 0.334347 -54.4941)
(-1.12484e-14 0.358294 -55.0923)
(-3.27414e-15 0.377913 -55.7082)
(1.60104e-15 0.389548 -56.3289)
(4.54052e-15 0.388671 -56.9357)
(2.1031e-15 0.37092 -57.5043)
(-4.2701e-15 0.334093 -58.0076)
(-1.40449e-14 0.280653 -58.4222)
(-3.37054e-14 0.219112 -58.7374)
(-5.60573e-14 0.162146 -58.962)
(-7.80076e-14 0.121164 -59.1232)
(-9.53003e-14 0.100717 -59.2553)
(-1.14782e-13 0.0972907 -59.3855)
(-1.28097e-13 0.10307 -59.5263)
(-1.34941e-13 0.110903 -59.6773)
(-1.43286e-13 0.11676 -59.8324)
(-1.48282e-13 0.119169 -59.9847)
(-1.51428e-13 0.117385 -60.129)
(-1.51284e-13 0.110016 -60.261)
(-1.45574e-13 0.0946422 -60.3758)
(-1.39701e-13 0.0680301 -60.4668)
(-1.32315e-13 0.0263938 -60.5246)
(-1.26248e-13 -0.0344415 -60.5366)
(-1.20791e-13 -0.118823 -60.4868)
(-1.17865e-13 -0.230807 -60.3558)
(-1.15093e-13 -0.373387 -60.1214)
(-1.12549e-13 -0.547556 -59.7605)
(-1.12093e-13 -0.75153 -59.2505)
(-1.12231e-13 -0.980026 -58.572)
(-1.11524e-13 -1.22337 -57.7135)
(-1.09374e-13 -1.47068 -56.6716)
(-1.08507e-13 -1.71449 -55.4456)
(-1.09855e-13 -1.94446 -54.047)
(-1.04622e-13 -2.15057 -52.4945)
(-1.09402e-13 -2.32601 -50.8145)
(-1.13648e-13 -2.46808 -49.0366)
(-1.19352e-13 -2.57875 -47.19)
(-1.258e-13 -2.6639 -45.2997)
(-1.32208e-13 -2.73137 -43.3835)
(-1.39035e-13 -2.78851 -41.452)
(-1.43282e-13 -2.84027 -39.5099)
(-1.43202e-13 -2.88882 -37.5596)
(-1.38946e-13 -2.93438 -35.6023)
(-1.37905e-13 -2.97628 -33.6398)
(-1.38908e-13 -3.01358 -31.6747)
(-1.45228e-13 -3.0456 -29.7099)
(-1.55471e-13 -3.072 -27.7484)
(-1.58375e-13 -3.09277 -25.7936)
(-1.33905e-13 -3.10816 -23.8482)
(-1.41706e-13 -3.11854 -21.9149)
(-1.40994e-13 -3.12434 -19.9959)
(-1.78589e-13 -3.12591 -18.0932)
(-2.03203e-13 -3.1236 -16.2085)
(-2.43436e-13 -3.11768 -14.3431)
(-1.89068e-13 -3.10846 -12.4983)
(-1.24255e-13 -3.09627 -10.6751)
(-6.67926e-15 -3.0814 -8.87461)
(1.13308e-13 -3.06359 -7.09717)
(1.3289e-13 -3.04238 -5.34208)
(2.10133e-13 -3.01822 -3.60901)
(-7.07428e-14 -2.99104 -1.89901)
(-3.63668e-14 -2.96594 -0.208473)
(-1.01223e-13 -2.97709 1.45773)
(-2.36724e-13 -3.04012 3.1279)
(-3.12321e-13 -3.12381 4.81304)
(-1.70516e-13 -3.21436 6.51609)
(7.37723e-15 -3.30666 8.24253)
(2.67681e-14 -3.39912 9.99341)
(6.73876e-15 -3.49144 11.7684)
(1.64793e-14 -3.58411 13.5676)
(5.26135e-14 -3.67805 15.3916)
(6.54312e-14 -3.77431 17.2413)
(1.10722e-13 -3.87385 19.1177)
(8.15578e-14 -3.97749 21.022)
(1.568e-14 -4.08587 22.9554)
(-6.96553e-15 -4.19933 24.9192)
(-3.79654e-14 -4.31814 26.9146)
(-6.12623e-14 -4.44232 28.9426)
(-8.60586e-14 -4.5722 31.0051)
(-8.94332e-14 -4.70764 33.102)
(-9.30542e-14 -4.84994 35.238)
(-1.06449e-13 -4.99833 37.4083)
(-1.11634e-13 -5.15747 39.6318)
(-9.84784e-14 -5.3225 41.8732)
(-8.46346e-14 -5.50977 44.2306)
(-7.28283e-14 -5.69423 46.4813)
(-5.76111e-14 -5.94206 49.1901)
(-4.03473e-14 -6.11182 50.9794)
(-1.71215e-14 -6.61292 55.0913)
(-5.92794e-14 0.249739 -49.6701)
(-5.45427e-14 0.19946 -50.0336)
(-4.94483e-14 0.181729 -50.3887)
(-5.06954e-14 0.191325 -50.7258)
(-5.47337e-14 0.208464 -51.0887)
(-5.24639e-14 0.231852 -51.4768)
(-4.50757e-14 0.2577 -51.8975)
(-4.3117e-14 0.285759 -52.3502)
(-3.50363e-14 0.315281 -52.8358)
(-1.76854e-14 0.346043 -53.3538)
(-6.65013e-15 0.377442 -53.9033)
(-8.88406e-15 0.408391 -54.4817)
(-3.51118e-15 0.436937 -55.0846)
(-7.14028e-16 0.459927 -55.7039)
(-9.29545e-16 0.472875 -56.3265)
(-4.3649e-15 0.470301 -56.9338)
(-1.21693e-14 0.44704 -57.5012)
(-3.16873e-14 0.40072 -58.0016)
(-5.61497e-14 0.334806 -58.412)
(-7.99502e-14 0.26014 -58.7228)
(-1.03308e-13 0.19236 -58.9447)
(-1.16719e-13 0.145021 -59.1069)
(-1.30762e-13 0.122852 -59.2443)
(-1.41589e-13 0.120702 -59.383)
(-1.45191e-13 0.128585 -59.5327)
(-1.46577e-13 0.13785 -59.6907)
(-1.43644e-13 0.143974 -59.8489)
(-1.34014e-13 0.145633 -60.0004)
(-1.26037e-13 0.142322 -60.1408)
(-1.2095e-13 0.132651 -60.2674)
(-1.07718e-13 0.113904 -60.3768)
(-9.97578e-14 0.0823112 -60.4635)
(-9.25409e-14 0.0333821 -60.5192)
(-8.84456e-14 -0.0378836 -60.5317)
(-8.80703e-14 -0.136722 -60.4848)
(-9.08681e-14 -0.268028 -60.3587)
(-9.73961e-14 -0.435428 -60.1307)
(-1.02663e-13 -0.640163 -59.7768)
(-1.0854e-13 -0.880178 -59.274)
(-1.13413e-13 -1.14934 -58.602)
(-1.15397e-13 -1.43657 -57.7493)
(-1.12849e-13 -1.72931 -56.7124)
(-1.11958e-13 -2.01861 -55.4891)
(-1.03443e-13 -2.29178 -54.091)
(-1.00809e-13 -2.5367 -52.5372)
(-9.54128e-14 -2.74503 -50.8551)
(-9.00298e-14 -2.91336 -49.0756)
(-8.43266e-14 -3.04398 -47.2293)
(-8.93691e-14 -3.144 -45.3423)
(-9.42796e-14 -3.22297 -43.4329)
(-1.13554e-13 -3.28986 -41.5113)
(-1.35404e-13 -3.35069 -39.5817)
(-1.54074e-13 -3.40804 -37.6454)
(-1.41423e-13 -3.46212 -35.7029)
(-1.33199e-13 -3.51206 -33.7555)
(-1.20691e-13 -3.55673 -31.8051)
(-1.07222e-13 -3.5953 -29.8544)
(-1.03285e-13 -3.62737 -27.9061)
(-1.42452e-13 -3.65293 -25.9631)
(-1.29095e-13 -3.67226 -24.0283)
(-1.48923e-13 -3.68581 -22.1039)
(-1.45736e-13 -3.69404 -20.1922)
(-1.34816e-13 -3.69739 -18.295)
(-1.16422e-13 -3.69624 -16.4141)
(-1.47288e-13 -3.69091 -14.551)
(-1.40608e-13 -3.68176 -12.7068)
(-1.39e-13 -3.66915 -10.8827)
(-1.21755e-14 -3.65343 -9.07968)
(1.06844e-13 -3.63451 -7.29816)
(1.16532e-13 -3.61219 -5.53757)
(2.05318e-13 -3.58681 -3.79747)
(-3.36814e-14 -3.55843 -2.0779)
(9.45334e-15 -3.5335 -0.373197)
(-1.25536e-13 -3.54728 1.30921)
(-3.78202e-13 -3.61719 2.99346)
(-3.20969e-13 -3.71151 4.69146)
(-1.15828e-13 -3.8149 6.40521)
(-2.80488e-14 -3.9209 8.13984)
(-5.15521e-14 -4.0274 9.89654)
(-4.7264e-14 -4.13404 11.6753)
(1.86923e-14 -4.2414 13.4766)
(1.21586e-14 -4.35051 15.3012)
(1.96519e-14 -4.46249 17.1502)
(3.53191e-14 -4.57837 19.0245)
(2.95858e-14 -4.699 20.9252)
(8.49447e-15 -4.82502 22.8534)
(-2.07215e-14 -4.95679 24.8101)
(-5.18265e-14 -5.09459 26.7963)
(-6.47899e-14 -5.23844 28.8129)
(-8.93626e-14 -5.38877 30.8615)
(-9.24491e-14 -5.5455 32.9422)
(-9.73568e-14 -5.71019 35.0598)
(-1.08701e-13 -5.88213 37.209)
(-1.0602e-13 -6.06662 39.4101)
(-9.60338e-14 -6.25859 41.6254)
(-7.21439e-14 -6.47594 43.9577)
(-5.03009e-14 -6.6919 46.1767)
(-2.88224e-14 -6.97858 48.8584)
(-1.34053e-14 -7.17917 50.6158)
(4.319e-15 -7.758 54.6781)
(-5.09756e-14 0.294592 -49.528)
(-5.20611e-14 0.236431 -49.9018)
(-4.92884e-14 0.217202 -50.2638)
(-4.96654e-14 0.228915 -50.6093)
(-5.17911e-14 0.249426 -50.9807)
(-4.65444e-14 0.277053 -51.3766)
(-3.85948e-14 0.307528 -51.8041)
(-2.77655e-14 0.340548 -52.2623)
(-1.37085e-14 0.375261 -52.7521)
(-6.27352e-15 0.41139 -53.2729)
(-1.26949e-15 0.448194 -53.8239)
(5.83728e-16 0.484349 -54.403)
(2.77895e-15 0.517494 -55.0059)
(6.40306e-16 0.543852 -55.625)
(-5.93033e-15 0.55809 -56.2476)
(-1.90297e-14 0.553755 -56.8552)
(-4.16766e-14 0.524862 -57.4231)
(-6.34986e-14 0.468882 -57.9242)
(-8.53089e-14 0.390349 -58.335)
(-1.0261e-13 0.302559 -58.6463)
(-1.15378e-13 0.2242 -58.87)
(-1.22684e-13 0.170929 -59.0363)
(-1.26231e-13 0.147441 -59.1805)
(-1.28303e-13 0.146705 -59.3272)
(-1.26971e-13 0.156453 -59.4839)
(-1.21532e-13 0.166606 -59.6456)
(-1.1428e-13 0.172351 -59.8033)
(-1.06064e-13 0.172715 -59.9504)
(-1.0215e-13 0.16757 -60.0842)
(-9.68893e-14 0.155574 -60.2036)
(-9.39939e-14 0.133678 -60.3071)
(-9.42559e-14 0.0974999 -60.3904)
(-9.75494e-14 0.0417553 -60.4453)
(-1.04346e-13 -0.0394715 -60.4598)
(-1.137e-13 -0.152379 -60.4172)
(-1.25942e-13 -0.302749 -60.2968)
(-1.37697e-13 -0.494855 -60.0748)
(-1.44445e-13 -0.730169 -59.7269)
(-1.47868e-13 -1.00632 -59.2293)
(-1.4741e-13 -1.31629 -58.5617)
(-1.43598e-13 -1.64758 -57.7126)
(-1.33947e-13 -1.98602 -56.6787)
(-1.24007e-13 -2.32125 -55.4565)
(-1.13615e-13 -2.638 -54.0578)
(-1.12371e-13 -2.92193 -52.5024)
(-1.10579e-13 -3.16307 -50.8185)
(-1.09914e-13 -3.35725 -49.0386)
(-1.09303e-13 -3.50711 -47.1948)
(-1.11216e-13 -3.62111 -45.3141)
(-1.21354e-13 -3.71068 -43.4151)
(-1.34437e-13 -3.78661 -41.5076)
(-1.39052e-13 -3.85606 -39.5945)
(-1.57006e-13 -3.922 -37.6758)
(-1.57927e-13 -3.98458 -35.7512)
(-1.57987e-13 -4.04269 -33.8212)
(-1.49343e-13 -4.09497 -31.8872)
(-1.28462e-13 -4.14041 -29.9515)
(-9.82367e-14 -4.17854 -28.0168)
(-1.12492e-13 -4.20932 -26.0859)
(-1.01464e-13 -4.23306 -24.1615)
(-1.25258e-13 -4.25024 -22.246)
(-1.31443e-13 -4.2614 -20.3416)
(-1.44788e-13 -4.26701 -18.4502)
(-1.47693e-13 -4.26749 -16.5737)
(-1.43685e-13 -4.2632 -14.7134)
(-1.3345e-13 -4.25453 -12.8709)
(-1.31366e-13 -4.24193 -11.0472)
(-5.53369e-14 -4.22582 -9.2433)
(2.33726e-14 -4.20633 -7.45964)
(5.72482e-14 -4.18345 -5.69569)
(1.41509e-13 -4.15759 -3.95087)
(-8.98876e-15 -4.12913 -2.22461)
(-4.17806e-14 -4.10517 -0.509965)
(-1.6012e-13 -4.12189 1.1853)
(-4.28942e-13 -4.19845 2.88133)
(-3.69421e-13 -4.30283 4.58991)
(-1.76004e-13 -4.41827 6.31237)
(-1.31415e-13 -4.53723 8.05342)
(-1.13899e-13 -4.65709 9.81433)
(-5.57285e-14 -4.77749 11.5954)
(-3.09783e-14 -4.89906 13.3976)
(-9.67177e-15 -5.02289 15.2217)
(1.17227e-14 -5.15013 17.0688)
(1.73878e-14 -5.28185 18.9399)
(1.28744e-14 -5.41889 20.8358)
(-1.34526e-14 -5.5619 22.7575)
(-4.79753e-14 -5.71125 24.7059)
(-7.72731e-14 -5.86722 26.6817)
(-1.01367e-13 -6.02989 28.6858)
(-9.87198e-14 -6.19978 30.7197)
(-9.68689e-14 -6.3769 32.7833)
(-1.02939e-13 -6.5631 34.8819)
(-1.05665e-13 -6.75776 37.0096)
(-8.51355e-14 -6.96677 39.188)
(-6.2477e-14 -7.18494 41.3772)
(-4.04798e-14 -7.43158 43.6846)
(-1.96568e-14 -7.67837 45.8721)
(-7.56659e-15 -8.00296 48.5271)
(5.3516e-15 -8.23374 50.253)
(1.52053e-14 -8.88888 54.2675)
(-4.27936e-14 0.33967 -49.366)
(-4.77926e-14 0.275156 -49.7488)
(-4.28111e-14 0.254352 -50.1147)
(-3.85884e-14 0.268325 -50.4663)
(-3.28091e-14 0.29222 -50.8434)
(-2.05186e-14 0.324056 -51.2441)
(-1.20291e-14 0.359103 -51.6751)
(-9.77195e-15 0.397011 -52.1354)
(-6.44603e-16 0.436845 -52.6257)
(1.32812e-15 0.478285 -53.1456)
(-7.56436e-16 0.520474 -53.6946)
(-2.47878e-16 0.561855 -54.2711)
(-4.81465e-15 0.599669 -54.8713)
(-1.39049e-14 0.629511 -55.4884)
(-2.7719e-14 0.645186 -56.1101)
(-4.60774e-14 0.639226 -56.7184)
(-6.58466e-14 0.604779 -57.2887)
(-8.26123e-14 0.539128 -57.7933)
(-9.49957e-14 0.44791 -58.2082)
(-1.04545e-13 0.346968 -58.5237)
(-1.14657e-13 0.258151 -58.7519)
(-1.15863e-13 0.199196 -58.9239)
(-1.14931e-13 0.174589 -59.075)
(-1.11592e-13 0.175212 -59.2285)
(-1.03475e-13 0.186437 -59.3897)
(-1.04519e-13 0.196872 -59.5518)
(-1.04204e-13 0.201629 -59.7056)
(-1.05535e-13 0.200293 -59.8457)
(-1.0281e-13 0.193217 -59.9711)
(-1.05097e-13 0.179101 -60.083)
(-1.07141e-13 0.154484 -60.1812)
(-1.0826e-13 0.114257 -60.2621)
(-1.15488e-13 0.0522312 -60.3177)
(-1.18696e-13 -0.0385146 -60.3353)
(-1.21183e-13 -0.165198 -60.2974)
(-1.23724e-13 -0.334505 -60.1822)
(-1.21805e-13 -0.551328 -59.9653)
(-1.14326e-13 -0.817319 -59.6218)
(-1.04591e-13 -1.12973 -59.1279)
(-9.42947e-14 -1.4806 -58.4638)
(-8.5507e-14 -1.85608 -57.6179)
(-7.78014e-14 -2.24049 -56.5874)
(-6.8682e-14 -2.622 -55.3673)
(-5.63983e-14 -2.98264 -53.9696)
(-5.43695e-14 -3.30571 -52.4145)
(-5.34164e-14 -3.57949 -50.7313)
(-5.53419e-14 -3.79901 -48.9536)
(-5.91352e-14 -3.96729 -47.1152)
(-6.52596e-14 -4.09428 -45.2439)
(-7.35464e-14 -4.19353 -43.3587)
(-8.42284e-14 -4.27782 -41.4682)
(-9.76957e-14 -4.35555 -39.5741)
(-1.14864e-13 -4.43005 -37.6748)
(-1.33499e-13 -4.50131 -35.7688)
(-1.46554e-13 -4.56792 -33.8562)
(-1.58099e-13 -4.62822 -31.9379)
(-1.55636e-13 -4.68097 -30.0162)
(-1.39994e-13 -4.72559 -28.0938)
(-1.49656e-13 -4.76203 -26.1736)
(-1.19863e-13 -4.79059 -24.2584)
(-1.04772e-13 -4.81183 -22.3507)
(-8.99855e-14 -4.82631 -20.4529)
(-1.03859e-13 -4.83458 -18.5669)
(-1.25834e-13 -4.83708 -16.6946)
(-1.31306e-13 -4.83422 -14.8377)
(-1.08287e-13 -4.82644 -12.9974)
(-8.21972e-14 -4.81423 -11.1751)
(-5.30756e-14 -4.79814 -9.37165)
(2.17884e-14 -4.77847 -7.5874)
(2.83013e-14 -4.75545 -5.82186)
(1.46956e-13 -4.72966 -4.07426)
(1.45547e-14 -4.7019 -2.34366)
(-3.9178e-15 -4.67974 -0.622428)
(-1.57759e-13 -4.70001 1.08264)
(-4.36616e-13 -4.78319 2.78825)
(-3.11323e-13 -4.89716 4.50529)
(-1.70415e-13 -5.02399 6.23461)
(-1.74031e-13 -5.15516 7.98044)
(-1.24525e-13 -5.28773 9.74412)
(-4.41478e-14 -5.4213 11.5263)
(9.78863e-15 -5.55657 13.3281)
(-6.96485e-15 -5.69465 15.1505)
(4.23087e-15 -5.83668 16.9946)
(4.17542e-14 -5.98372 18.8612)
(-8.91491e-16 -6.1366 20.7512)
(-4.04157e-14 -6.29597 22.6652)
(-6.78424e-14 -6.46219 24.604)
(-9.4473e-14 -6.63557 26.5684)
(-1.04802e-13 -6.81626 28.5589)
(-9.90518e-14 -7.00488 30.5773)
(-8.74497e-14 -7.20159 32.6231)
(-8.51678e-14 -7.40848 34.7021)